 Gaussian 16, Revision A.03,
 Gaussian 16:  ES64L-G16RevA.03 25-Dec-2016

 -------------------------------------
 # td=(NStates=1) CAM-B3LYP/6-31G(d,p)
 -------------------------------------

 --
 TD
 --
 Symbolic Z-matrix:
 Charge =  0 Multiplicity = 1

                         Standard orientation:
 ---------------------------------------------------------------------
 Center     Atomic      Atomic             Coordinates (Angstroms)
 Number     Number       Type             X           Y           Z
 ---------------------------------------------------------------------
      1          8           0       14.697469   -2.262241   -0.564173
      2          8           0      -14.600896    2.123613    0.652714
      3          6           0       11.455712   -1.016167    1.139777
      4          6           0      -12.215678   -0.905100    0.813311
      5          6           0       12.995188   -1.328159    0.976323
      6          6           0      -13.627043   -0.147896    0.834209
      7          6           0       13.338681   -1.900661   -0.420103
      8          6           0      -13.446719    1.386020    0.597513
      9          6           0       10.940787   -0.243183    0.040285
     10          6           0      -11.324697   -0.392412   -0.293041
     11          6           0       12.997976   -0.859645   -1.445236
     12          6           0      -12.784887    1.625488   -0.806547
     13          6           0       11.696059   -0.163429   -1.135914
     14          6           0      -11.558845    0.749103   -0.952007
     15          6           0       11.346413   -0.154099    2.469127
     16          6           0       10.647952   -2.308592    1.483095
     17          6           0      -11.474634   -0.665475    2.166728
     18          6           0      -12.543219   -2.451086    0.718110
     19          6           0        9.615110    0.365149    0.147146
     20          6           0      -10.046916   -1.075708   -0.535342
     21          6           0       11.105302    0.508527   -2.402959
     22          6           0      -10.703680    1.410539   -2.101167
     23          6           0        9.250450    1.638332   -0.194791
     24          6           0       -8.859869   -0.547481   -0.169401
     25          6           0        7.941889    2.263874    0.110721
     26          6           0       -7.587534   -1.158137   -0.381367
     27          6           0        8.010699    3.742402    0.462579
     28          6           0       -7.713707   -2.735122   -0.840640
     29          6           0        6.825679    1.489678   -0.061008
     30          6           0       -6.390058   -0.605888   -0.286356
     31          6           0        5.439618    1.990343    0.176754
     32          6           0       -5.095012   -1.195211   -0.440169
     33          6           0        4.331416    1.225353    0.073175
     34          6           0       -4.079971   -0.428974   -0.183732
     35          6           0        2.996466    1.648291    0.121085
     36          6           0       -2.675726   -0.872631   -0.307793
     37          6           0        2.761287    3.070942    0.486914
     38          6           0       -2.364851   -2.351812   -0.760479
     39          6           0        2.040775    0.712349   -0.081788
     40          6           0       -1.663533    0.042998    0.038961
     41          6           0        0.643688    0.796987    0.045693
     42          6           0       -0.228670   -0.237894   -0.120022
     43          1           0       13.499969   -0.317545    1.043499
     44          1           0       13.324137   -2.094293    1.606359
     45          1           0      -14.239058   -0.385984    1.660432
     46          1           0      -14.303828   -0.519342    0.214614
     47          1           0       12.718290   -2.771429   -0.421457
     48          1           0      -12.714976    1.888384    1.358844
     49          1           0       13.953677   -0.204873   -1.447974
     50          1           0       12.960663   -1.505103   -2.423026
     51          1           0      -13.661798    1.311502   -1.478340
     52          1           0      -12.512308    2.690846   -0.784076
     53          1           0       11.959654   -0.731466    3.223409
     54          1           0       10.496877    0.079376    2.943975
     55          1           0       11.832677    0.861548    2.384518
     56          1           0       10.691674   -3.110720    0.649360
     57          1           0       11.333725   -2.740731    2.215653
     58          1           0        9.565201   -1.989250    1.725728
     59          1           0      -10.988117    0.397640    2.485462
     60          1           0      -10.669807   -1.387871    1.916170
     61          1           0      -11.950324   -0.788951    3.107598
     62          1           0      -13.332251   -2.611420    1.393542
     63          1           0      -11.496100   -2.821282    1.205514
     64          1           0      -12.877814   -2.601864   -0.366964
     65          1           0        8.901327   -0.483181    0.536866
     66          1           0      -10.156334   -2.114927   -0.860497
     67          1           0       10.021782    0.585350   -2.222692
     68          1           0       11.596783    1.339655   -2.466042
     69          1           0       11.374781   -0.113094   -3.251401
     70          1           0      -11.546096    1.585564   -2.989264
     71          1           0       -9.820139    0.747460   -2.178158
     72          1           0      -10.495965    2.293977   -1.736989
     73          1           0       14.900375   -2.888349    0.282735
     74          1           0      -15.066307    1.963771    1.634019
     75          1           0       10.272447    2.210618   -0.478052
     76          1           0       -8.862262    0.622156    0.164002
     77          1           0        8.671011    4.177736   -0.271759
     78          1           0        7.127240    4.114369    0.464113
     79          1           0        8.408588    3.868843    1.522503
     80          1           0       -8.281668   -3.240079   -0.049977
     81          1           0       -8.205400   -2.878225   -1.889168
     82          1           0       -6.683220   -3.059606   -0.913512
     83          1           0        6.990221    0.603997   -0.368040
     84          1           0       -6.412188    0.588612   -0.289015
     85          1           0        5.419305    3.110833    0.641062
     86          1           0       -5.046096   -2.100207   -1.166467
     87          1           0        4.557041    0.216169   -0.123498
     88          1           0       -4.324379    0.509944    0.130807
     89          1           0        3.298436    3.395213    1.470217
     90          1           0        1.658684    3.490231    0.366737
     91          1           0        3.235717    3.679571   -0.149485
     92          1           0       -2.962157   -3.122533   -0.179843
     93          1           0       -2.519728   -2.491181   -1.699590
     94          1           0       -1.346367   -2.846545   -0.655370
     95          1           0        2.410550   -0.372008   -0.299157
     96          1           0       -1.879553    0.789220    0.486663
     97          1           0        0.288609    1.808577    0.254627
     98          1           0        0.136821   -1.059768   -0.527395
 ---------------------------------------------------------------------

 SCF Done:  E(RCAM-B3LYP) =  -1706.90689543     A.U. after   14 cycles

 Excitation energies and oscillator strengths:

 Excited State   1:      Singlet-A      2.8236 eV  439.10 nm  f=3.6244  <S**2>=0.000
     155 ->158         0.16812
     156 ->157         0.68156
 This state for optimization and/or second-order correction.
 Total Energy, E(TD-HF/TD-DFT) =  -1706.80312954
 Copying the excited state density for this state as the 1-particle RhoCI density.

 The electronic state is 1-A.
 Alpha  occ. eigenvalues --  -19.22242 -19.21743 -10.30073 -10.29312 -10.28453
 Alpha  occ. eigenvalues --  -10.27935 -10.27839 -10.27634 -10.27573 -10.27508
 Alpha  occ. eigenvalues --  -10.27242 -10.27013 -10.26930 -10.26727 -10.26702
 Alpha  occ. eigenvalues --  -10.26422 -10.26321 -10.26301 -10.26242 -10.26212
 Alpha  occ. eigenvalues --  -10.26132 -10.26127 -10.25966 -10.25952 -10.25881
 Alpha  occ. eigenvalues --  -10.25857 -10.25713 -10.25540 -10.25533 -10.25419
 Alpha  occ. eigenvalues --  -10.25274 -10.25165 -10.25124 -10.25077 -10.25015
 Alpha  occ. eigenvalues --  -10.25007 -10.24947 -10.24943 -10.24767 -10.24066
 Alpha  occ. eigenvalues --  -10.23419 -10.22676  -1.08716  -1.08428  -0.93707
 Alpha  occ. eigenvalues --   -0.92927  -0.92512  -0.91773  -0.90482  -0.89449
 Alpha  occ. eigenvalues --   -0.87672  -0.86377  -0.86100  -0.85320  -0.84568
 Alpha  occ. eigenvalues --   -0.82878  -0.81728  -0.80280  -0.79218  -0.78865
 Alpha  occ. eigenvalues --   -0.77587  -0.76535  -0.75963  -0.75702  -0.75665
 Alpha  occ. eigenvalues --   -0.75399  -0.75173  -0.74647  -0.74534  -0.70624
 Alpha  occ. eigenvalues --   -0.68640  -0.67065  -0.65284  -0.64570  -0.64093
 Alpha  occ. eigenvalues --   -0.63883  -0.63352  -0.62323  -0.61469  -0.60409
 Alpha  occ. eigenvalues --   -0.59250  -0.58191  -0.58004  -0.57100  -0.56342
 Alpha  occ. eigenvalues --   -0.55260  -0.55171  -0.54365  -0.53787  -0.53412
 Alpha  occ. eigenvalues --   -0.53014  -0.52782  -0.52383  -0.51576  -0.50846
 Alpha  occ. eigenvalues --   -0.50777  -0.49900  -0.49736  -0.49586  -0.49391
 Alpha  occ. eigenvalues --   -0.49154  -0.48818  -0.48497  -0.48185  -0.48056
 Alpha  occ. eigenvalues --   -0.47867  -0.47552  -0.47021  -0.46864  -0.46344
 Alpha  occ. eigenvalues --   -0.45867  -0.45483  -0.45398  -0.45101  -0.45005
 Alpha  occ. eigenvalues --   -0.44475  -0.44181  -0.43973  -0.43710  -0.43426
 Alpha  occ. eigenvalues --   -0.43272  -0.43084  -0.42886  -0.42765  -0.42712
 Alpha  occ. eigenvalues --   -0.42154  -0.41691  -0.41628  -0.41595  -0.41059
 Alpha  occ. eigenvalues --   -0.40538  -0.40403  -0.40374  -0.39854  -0.39342
 Alpha  occ. eigenvalues --   -0.38965  -0.38822  -0.38192  -0.38112  -0.37921
 Alpha  occ. eigenvalues --   -0.37613  -0.36855  -0.36167  -0.35957  -0.35479
 Alpha  occ. eigenvalues --   -0.35285  -0.34215  -0.33082  -0.31785  -0.31525
 Alpha  occ. eigenvalues --   -0.30766  -0.29313  -0.28061  -0.26438  -0.24466
 Alpha  occ. eigenvalues --   -0.21001
 Alpha virt. eigenvalues --   -0.04087   0.00042   0.02818   0.05969   0.08065
 Alpha virt. eigenvalues --    0.08713   0.09789   0.09892   0.10610   0.11541
 Alpha virt. eigenvalues --    0.12018   0.12104   0.12433   0.13215   0.13656

 Mulliken charges:
               1
     1  O   -0.562907
     2  O   -0.560905
     3  C   -0.053164
     4  C   -0.047432
     5  C   -0.194634
     6  C   -0.193852
     7  C    0.179151
     8  C    0.179677
     9  C    0.101835
    10  C    0.080264
    11  C   -0.225633
    12  C   -0.218324
    13  C    0.005083
    14  C    0.024991
    15  C   -0.300294
    16  C   -0.292512
    17  C   -0.283846
    18  C   -0.293548
    19  C   -0.105422
    20  C   -0.177945
    21  C   -0.347063
    22  C   -0.329436
    23  C   -0.138609
    24  C   -0.070106
    25  C    0.053799
    26  C    0.088734
    27  C   -0.341384
    28  C   -0.360881
    29  C   -0.066616
    30  C   -0.143176
    31  C   -0.107607
    32  C   -0.080517
    33  C   -0.110006
    34  C   -0.082411
    35  C    0.155455
    36  C    0.065855
    37  C   -0.385635
    38  C   -0.380729
    39  C   -0.147774
    40  C   -0.069877
    41  C   -0.071313
    42  C   -0.067782
    43  H    0.100870
    44  H    0.068011
    45  H    0.068863
    46  H    0.095790
    47  H    0.074967
    48  H    0.048465
    49  H    0.119746
    50  H    0.104147
    51  H    0.112660
    52  H    0.109975
    53  H    0.083978
    54  H    0.114792
    55  H    0.092358
    56  H    0.092251
    57  H    0.107006
    58  H    0.105486
    59  H    0.080678
    60  H    0.099958
    61  H    0.105340
    62  H    0.116098
    63  H    0.085048
    64  H    0.110349
    65  H    0.080731
    66  H    0.100896
    67  H    0.120051
    68  H    0.126142
    69  H    0.099217
    70  H    0.092750
    71  H    0.113363
    72  H    0.128857
    73  H    0.303373
    74  H    0.304281
    75  H    0.093644
    76  H    0.076372
    77  H    0.125267
    78  H    0.116216
    79  H    0.116555
    80  H    0.121637
    81  H    0.110170
    82  H    0.100940
    83  H    0.061403
    84  H    0.073571
    85  H    0.066120
    86  H    0.102628
    87  H    0.083115
    88  H    0.083786
    89  H    0.113886
    90  H    0.096513
    91  H    0.141146
    92  H    0.114494
    93  H    0.138747
    94  H    0.105652
    95  H    0.069266
    96  H    0.048237
    97  H    0.075749
    98  H    0.074884
 Sum of Mulliken charges =  -0.00000

 Dipole moment (field-independent basis, Debye):
    X=              0.1830    Y=             -0.8763    Z=              2.1671  Tot=              2.3447
 Quadrupole moment (field-independent basis, Debye-Ang):
   XX=           -273.6660   YY=           -245.6608   ZZ=           -261.6301
   XY=              9.8882   XZ=              1.5105   YZ=              3.3630

 Normal termination of Gaussian 16 at Sun Jun 30 12:13:15 2019.
