 Gaussian 16, Revision A.03,
 Gaussian 16:  ES64L-G16RevA.03 25-Dec-2016

 -------------------------------------
 # td=(NStates=1) CAM-B3LYP/6-31G(d,p)
 -------------------------------------

 --
 TD
 --
 Symbolic Z-matrix:
 Charge =  0 Multiplicity = 1

                         Standard orientation:
 ---------------------------------------------------------------------
 Center     Atomic      Atomic             Coordinates (Angstroms)
 Number     Number       Type             X           Y           Z
 ---------------------------------------------------------------------
      1          8           0       14.827002   -2.166669   -0.343214
      2          8           0      -14.793332    1.990543    0.675209
      3          6           0       11.609666   -0.919589    1.183128
      4          6           0      -12.380851   -0.867645    0.651997
      5          6           0       13.044142   -1.179118    0.985252
      6          6           0      -13.742538   -0.067660    0.576964
      7          6           0       13.465834   -1.904923   -0.313481
      8          6           0      -13.532137    1.355020    0.706753
      9          6           0       11.015818   -0.224378   -0.018169
     10          6           0      -11.310339   -0.175948   -0.174612
     11          6           0       13.060829   -0.953698   -1.439377
     12          6           0      -12.771285    1.769833   -0.585580
     13          6           0       11.680113   -0.317353   -1.241775
     14          6           0      -11.564537    0.983178   -0.807967
     15          6           0       11.450354    0.111557    2.375020
     16          6           0       10.844261   -2.174604    1.550348
     17          6           0      -11.902361   -1.088254    2.126933
     18          6           0      -12.741129   -2.332047    0.164952
     19          6           0        9.746976    0.356408    0.123037
     20          6           0      -10.176462   -1.006088   -0.374353
     21          6           0       11.208485    0.331004   -2.572013
     22          6           0      -10.622319    1.638868   -1.713742
     23          6           0        9.371657    1.553117   -0.260376
     24          6           0       -8.942505   -0.521856   -0.413891
     25          6           0        7.993214    2.146151    0.094373
     26          6           0       -7.632872   -1.317590   -0.401933
     27          6           0        7.971683    3.633937    0.367651
     28          6           0       -7.748961   -2.830377   -0.664072
     29          6           0        6.832424    1.402984   -0.027538
     30          6           0       -6.525367   -0.618668   -0.197355
     31          6           0        5.515102    1.868505    0.115204
     32          6           0       -5.176071   -1.186431   -0.339856
     33          6           0        4.372617    1.123083   -0.009741
     34          6           0       -4.055068   -0.396066   -0.205420
     35          6           0        3.123619    1.533460    0.100710
     36          6           0       -2.666373   -0.761611   -0.327229
     37          6           0        2.934037    2.931384    0.678404
     38          6           0       -2.361150   -2.202716   -0.657993
     39          6           0        2.133369    0.626257   -0.066558
     40          6           0       -1.670814    0.078345   -0.003916
     41          6           0        0.692316    0.821120    0.052220
     42          6           0       -0.262869   -0.122437   -0.106496
     43          1           0       13.767342   -0.325221    1.240290
     44          1           0       13.334461   -1.808339    1.881398
     45          1           0      -14.506700   -0.404614    1.396613
     46          1           0      -14.024975   -0.518752   -0.343927
     47          1           0       12.996811   -2.875349   -0.428258
     48          1           0      -12.856337    1.603056    1.505359
     49          1           0       13.803030   -0.160780   -1.496057
     50          1           0       12.997101   -1.425816   -2.291257
     51          1           0      -13.388223    1.613458   -1.419311
     52          1           0      -12.519646    2.836975   -0.654642
     53          1           0       12.070339   -0.222411    3.406693
     54          1           0       10.259975    0.246836    2.558040
     55          1           0       11.913786    1.066255    1.958174
     56          1           0       10.825960   -2.902678    0.721419
     57          1           0       11.157066   -2.570512    2.489136
     58          1           0        9.854709   -1.982999    1.798458
     59          1           0      -11.550410   -0.118405    2.731355
     60          1           0      -10.787281   -1.581524    2.172444
     61          1           0      -12.630316   -1.625955    2.776384
     62          1           0      -13.824042   -2.425253    0.683816
     63          1           0      -12.197038   -3.189903    0.518259
     64          1           0      -12.789908   -2.244128   -1.013966
     65          1           0        8.999939   -0.431254    0.532774
     66          1           0      -10.596261   -2.118816   -0.304608
     67          1           0       10.118352    0.706291   -2.409092
     68          1           0       11.894401    1.180740   -2.822161
     69          1           0       11.187632   -0.455117   -3.289078
     70          1           0      -11.284910    2.052498   -2.629645
     71          1           0       -9.860472    0.925239   -2.080182
     72          1           0      -10.052698    2.243336   -1.308501
     73          1           0       14.918751   -2.722706    0.389760
     74          1           0      -15.074215    1.894297    1.587970
     75          1           0       10.136994    2.257923   -0.696805
     76          1           0       -8.744528    0.653679   -0.416723
     77          1           0        8.630418    4.238671   -0.292133
     78          1           0        6.942569    3.995037    0.385801
     79          1           0        8.346861    3.730557    1.239567
     80          1           0       -8.173771   -3.451768    0.116740
     81          1           0       -8.558755   -2.814854   -1.487476
     82          1           0       -6.840215   -3.483957   -1.160927
     83          1           0        6.819955    0.309546   -0.075245
     84          1           0       -6.428581    0.440343   -0.114842
     85          1           0        5.382975    2.870828    0.124385
     86          1           0       -5.064826   -2.051204   -0.793706
     87          1           0        4.506200   -0.091357   -0.414074
     88          1           0       -4.311659    0.692600   -0.151458
     89          1           0        3.118800    2.944861    1.745534
     90          1           0        1.887093    3.144370    0.560318
     91          1           0        3.799806    3.670616    0.187138
     92          1           0       -2.270477   -3.208563    0.017916
     93          1           0       -2.739516   -2.432263   -1.621190
     94          1           0       -1.240099   -2.375992   -0.829916
     95          1           0        2.414413   -0.365863   -0.438033
     96          1           0       -2.161248    1.016037    0.325044
     97          1           0        0.302507    1.884573    0.088373
     98          1           0        0.136439   -0.994174   -0.388923
 ---------------------------------------------------------------------

 SCF Done:  E(RCAM-B3LYP) =  -1706.97191690     A.U. after   14 cycles

 Excitation energies and oscillator strengths:

 Excited State   1:      Singlet-A      2.6523 eV  467.46 nm  f=3.6576  <S**2>=0.000
     155 ->158         0.15888
     156 ->157         0.68517
 This state for optimization and/or second-order correction.
 Total Energy, E(TD-HF/TD-DFT) =  -1706.87444744
 Copying the excited state density for this state as the 1-particle RhoCI density.

 The electronic state is 1-A.
 Alpha  occ. eigenvalues --  -19.21343 -19.20879 -10.30128 -10.29744 -10.28150
 Alpha  occ. eigenvalues --  -10.27782 -10.27777 -10.27471 -10.27415 -10.27198
 Alpha  occ. eigenvalues --  -10.27169 -10.27013 -10.26951 -10.26893 -10.26692
 Alpha  occ. eigenvalues --  -10.26639 -10.26603 -10.26582 -10.26464 -10.26296
 Alpha  occ. eigenvalues --  -10.26252 -10.26199 -10.26093 -10.26027 -10.26004
 Alpha  occ. eigenvalues --  -10.25905 -10.25560 -10.25473 -10.25462 -10.25459
 Alpha  occ. eigenvalues --  -10.25414 -10.25379 -10.25173 -10.25014 -10.24942
 Alpha  occ. eigenvalues --  -10.24842 -10.24662 -10.24491 -10.24077 -10.23927
 Alpha  occ. eigenvalues --  -10.23851 -10.23730  -1.11861  -1.10507  -0.94465
 Alpha  occ. eigenvalues --   -0.94155  -0.93114  -0.91682  -0.90225  -0.89837
 Alpha  occ. eigenvalues --   -0.87571  -0.87397  -0.86885  -0.86352  -0.85608
 Alpha  occ. eigenvalues --   -0.83253  -0.82134  -0.80249  -0.80149  -0.77792
 Alpha  occ. eigenvalues --   -0.77098  -0.76628  -0.76427  -0.76005  -0.75740
 Alpha  occ. eigenvalues --   -0.75083  -0.74614  -0.74325  -0.74147  -0.70865
 Alpha  occ. eigenvalues --   -0.68970  -0.68041  -0.66509  -0.64987  -0.64401
 Alpha  occ. eigenvalues --   -0.63340  -0.62688  -0.62152  -0.61429  -0.60776
 Alpha  occ. eigenvalues --   -0.59775  -0.59289  -0.59121  -0.57788  -0.56063
 Alpha  occ. eigenvalues --   -0.55511  -0.55283  -0.54841  -0.54635  -0.54249
 Alpha  occ. eigenvalues --   -0.53366  -0.52639  -0.52068  -0.51488  -0.51321
 Alpha  occ. eigenvalues --   -0.50762  -0.50616  -0.50105  -0.49794  -0.49562
 Alpha  occ. eigenvalues --   -0.49329  -0.49081  -0.48730  -0.48165  -0.47750
 Alpha  occ. eigenvalues --   -0.47566  -0.47271  -0.47030  -0.46738  -0.46442
 Alpha  occ. eigenvalues --   -0.45784  -0.45546  -0.45526  -0.45289  -0.45243
 Alpha  occ. eigenvalues --   -0.45071  -0.44586  -0.44120  -0.43838  -0.43725
 Alpha  occ. eigenvalues --   -0.43440  -0.43272  -0.43069  -0.42264  -0.41887
 Alpha  occ. eigenvalues --   -0.41795  -0.41453  -0.41197  -0.40974  -0.40723
 Alpha  occ. eigenvalues --   -0.40380  -0.40070  -0.39693  -0.39504  -0.39266
 Alpha  occ. eigenvalues --   -0.38816  -0.38644  -0.38399  -0.38122  -0.37958
 Alpha  occ. eigenvalues --   -0.37651  -0.37037  -0.37001  -0.36136  -0.36065
 Alpha  occ. eigenvalues --   -0.35668  -0.34839  -0.34054  -0.32670  -0.32186
 Alpha  occ. eigenvalues --   -0.32043  -0.30354  -0.27758  -0.26447  -0.23910
 Alpha  occ. eigenvalues --   -0.20442
 Alpha virt. eigenvalues --   -0.04522   0.00027   0.03443   0.05518   0.08159
 Alpha virt. eigenvalues --    0.09812   0.11283   0.11482   0.11935   0.12332
 Alpha virt. eigenvalues --    0.12614   0.12700   0.13144   0.13576   0.13710

 Mulliken charges:
               1
     1  O   -0.538537
     2  O   -0.548611
     3  C   -0.009513
     4  C   -0.044292
     5  C   -0.207431
     6  C   -0.163063
     7  C    0.159463
     8  C    0.149786
     9  C    0.073320
    10  C    0.083695
    11  C   -0.184974
    12  C   -0.233639
    13  C   -0.005856
    14  C    0.055756
    15  C   -0.289244
    16  C   -0.299796
    17  C   -0.294133
    18  C   -0.326198
    19  C   -0.094527
    20  C   -0.106955
    21  C   -0.355371
    22  C   -0.360882
    23  C   -0.127203
    24  C   -0.128106
    25  C    0.036680
    26  C    0.107894
    27  C   -0.360710
    28  C   -0.367228
    29  C   -0.093300
    30  C   -0.127005
    31  C   -0.083346
    32  C   -0.056319
    33  C   -0.103624
    34  C   -0.142441
    35  C    0.150115
    36  C    0.126355
    37  C   -0.354492
    38  C   -0.387148
    39  C   -0.146467
    40  C   -0.117518
    41  C   -0.093489
    42  C   -0.068302
    43  H    0.098755
    44  H    0.061248
    45  H    0.060584
    46  H    0.114534
    47  H    0.076758
    48  H    0.097349
    49  H    0.122788
    50  H    0.106157
    51  H    0.126792
    52  H    0.102582
    53  H    0.072180
    54  H    0.094348
    55  H    0.105470
    56  H    0.101704
    57  H    0.103965
    58  H    0.105687
    59  H    0.078307
    60  H    0.086076
    61  H    0.099743
    62  H    0.093296
    63  H    0.119811
    64  H    0.101136
    65  H    0.094747
    66  H    0.094152
    67  H    0.110611
    68  H    0.115152
    69  H    0.116353
    70  H    0.084095
    71  H    0.111919
    72  H    0.133261
    73  H    0.299920
    74  H    0.302884
    75  H    0.096671
    76  H    0.085369
    77  H    0.111464
    78  H    0.108548
    79  H    0.145723
    80  H    0.131749
    81  H    0.113594
    82  H    0.099310
    83  H    0.075618
    84  H    0.079768
    85  H    0.057026
    86  H    0.077127
    87  H    0.047750
    88  H    0.072135
    89  H    0.138830
    90  H    0.111854
    91  H    0.092578
    92  H    0.109459
    93  H    0.123539
    94  H    0.093216
    95  H    0.080865
    96  H    0.076951
    97  H    0.079022
    98  H    0.076126
 Sum of Mulliken charges =  -0.00000

 Dipole moment (field-independent basis, Debye):
    X=              0.2876    Y=             -0.8857    Z=              1.6853  Tot=              1.9255
 Quadrupole moment (field-independent basis, Debye-Ang):
   XX=           -277.8218   YY=           -244.2483   ZZ=           -260.3199
   XY=              9.1528   XZ=             -2.2666   YZ=              1.5623

 Normal termination of Gaussian 16 at Thu Jul 11 16:18:05 2019.
