 Gaussian 16, Revision A.03,
 Gaussian 16:  ES64L-G16RevA.03 25-Dec-2016

 -------------------------------------
 # td=(NStates=1) CAM-B3LYP/6-31G(d,p)
 -------------------------------------

 --
 TD
 --
 Symbolic Z-matrix:
 Charge =  0 Multiplicity = 1

                         Standard orientation:
 ---------------------------------------------------------------------
 Center     Atomic      Atomic             Coordinates (Angstroms)
 Number     Number       Type             X           Y           Z
 ---------------------------------------------------------------------
      1          8           0       14.675048   -2.304821   -0.520473
      2          8           0      -14.768117    2.015858    0.692629
      3          6           0       11.505055   -1.099322    1.130936
      4          6           0      -12.465419   -0.977581    0.629761
      5          6           0       12.911268   -1.449712    1.012939
      6          6           0      -13.704658   -0.130955    0.602739
      7          6           0       13.323643   -1.943403   -0.329725
      8          6           0      -13.549481    1.356438    0.745123
      9          6           0       11.050303   -0.315659   -0.050692
     10          6           0      -11.305101   -0.242568   -0.237211
     11          6           0       13.010096   -0.905383   -1.400277
     12          6           0      -12.761545    1.844633   -0.427931
     13          6           0       11.696631   -0.179889   -1.158629
     14          6           0      -11.574073    0.980575   -0.707903
     15          6           0       11.424418   -0.262570    2.451907
     16          6           0       10.571376   -2.313855    1.368430
     17          6           0      -11.824616   -0.981884    2.098243
     18          6           0      -12.729272   -2.340626    0.178209
     19          6           0        9.750615    0.444918    0.195928
     20          6           0      -10.109202   -1.074821   -0.484118
     21          6           0       11.318671    0.626655   -2.354218
     22          6           0      -10.686603    1.658295   -1.795924
     23          6           0        9.435148    1.697735   -0.009637
     24          6           0       -8.873801   -0.575157   -0.275507
     25          6           0        7.990738    2.256995    0.068127
     26          6           0       -7.571416   -1.311357   -0.465262
     27          6           0        8.003674    3.794543    0.458868
     28          6           0       -7.726229   -2.802918   -0.833703
     29          6           0        6.863194    1.635528   -0.105362
     30          6           0       -6.431414   -0.664180   -0.220749
     31          6           0        5.458528    2.096319    0.182297
     32          6           0       -5.047611   -1.237766   -0.319804
     33          6           0        4.389255    1.270329   -0.029041
     34          6           0       -3.970203   -0.429271   -0.290612
     35          6           0        3.027332    1.680144    0.073850
     36          6           0       -2.527009   -0.864021   -0.316971
     37          6           0        2.754344    3.014864    0.544731
     38          6           0       -2.353072   -2.277046   -0.717188
     39          6           0        2.140187    0.746439   -0.104751
     40          6           0       -1.513099    0.041377   -0.056956
     41          6           0        0.737068    0.875517   -0.018974
     42          6           0       -0.099346   -0.280057   -0.088646
     43          1           0       13.555372   -0.577681    1.224023
     44          1           0       13.251539   -2.277512    1.728269
     45          1           0      -14.437610   -0.380831    1.372600
     46          1           0      -14.276692   -0.429040   -0.382198
     47          1           0       12.533383   -2.893058   -0.493419
     48          1           0      -13.197355    1.680102    1.774529
     49          1           0       13.712587   -0.105070   -1.136432
     50          1           0       13.118089   -1.265384   -2.427220
     51          1           0      -13.409010    2.069765   -1.158430
     52          1           0      -12.210603    2.736282   -0.278777
     53          1           0       11.765290   -0.668027    3.450483
     54          1           0       10.470352   -0.151798    2.755252
     55          1           0       12.007383    0.721751    1.989683
     56          1           0       10.633448   -3.137069    0.516843
     57          1           0       11.140038   -3.023395    2.295188
     58          1           0        9.604609   -2.000297    1.712581
     59          1           0      -11.496661   -0.071472    2.577013
     60          1           0      -10.742143   -1.531727    1.843955
     61          1           0      -12.547994   -1.514079    2.701950
     62          1           0      -13.535676   -2.811189    0.872918
     63          1           0      -11.733774   -2.970711    0.339379
     64          1           0      -12.940105   -2.513275   -0.864559
     65          1           0        9.135943   -0.258929    0.675841
     66          1           0      -10.315683   -2.067343   -0.921596
     67          1           0       10.262735    0.783315   -2.328872
     68          1           0       12.030650    1.427837   -2.522335
     69          1           0       11.265779   -0.087247   -3.258032
     70          1           0      -11.337855    2.310637   -2.559648
     71          1           0      -10.106647    0.919711   -2.242432
     72          1           0       -9.698333    2.053698   -1.073655
     73          1           0       14.966467   -2.650420    0.466018
     74          1           0      -15.349104    1.877245    1.445965
     75          1           0       10.145862    2.335090   -0.499141
     76          1           0       -8.870527    0.280624    0.154682
     77          1           0        8.510086    4.097677   -0.667241
     78          1           0        6.966868    4.024073    0.776974
     79          1           0        8.726870    3.900667    1.402073
     80          1           0       -8.230885   -3.312877   -0.081778
     81          1           0       -8.359027   -3.030480   -1.783737
     82          1           0       -6.807103   -3.246395   -0.908632
     83          1           0        6.866542    0.733232   -0.452896
     84          1           0       -6.577616    0.281886    0.215567
     85          1           0        5.362373    3.192536    0.341467
     86          1           0       -5.072578   -2.410477   -0.542009
     87          1           0        4.648646    0.278388   -0.313089
     88          1           0       -4.027028    0.734332   -0.291440
     89          1           0        3.254724    3.258653    1.466902
     90          1           0        1.613191    2.961407    0.714648
     91          1           0        3.095725    3.743319   -0.227948
     92          1           0       -2.921410   -3.027947   -0.042988
     93          1           0       -2.620237   -2.486089   -1.732997
     94          1           0       -1.245279   -2.553749   -0.547346
     95          1           0        2.305214   -0.243213   -0.239122
     96          1           0       -1.895243    0.992274    0.362486
     97          1           0        0.112337    1.811660    0.047824
     98          1           0        0.414414   -1.365478   -0.278184
 ---------------------------------------------------------------------

 SCF Done:  E(RCAM-B3LYP) =  -1706.95389514     A.U. after   14 cycles

 Excitation energies and oscillator strengths:

 Excited State   1:      Singlet-A      3.0175 eV  410.89 nm  f=3.4168  <S**2>=0.000
     155 ->158        -0.14810
     156 ->157         0.68502
 This state for optimization and/or second-order correction.
 Total Energy, E(TD-HF/TD-DFT) =  -1706.84300523
 Copying the excited state density for this state as the 1-particle RhoCI density.

 The electronic state is 1-A.
 Alpha  occ. eigenvalues --  -19.22865 -19.20150 -10.30919 -10.29862 -10.28532
 Alpha  occ. eigenvalues --  -10.28030 -10.27788 -10.27582 -10.27488 -10.27293
 Alpha  occ. eigenvalues --  -10.27281 -10.27266 -10.26991 -10.26947 -10.26929
 Alpha  occ. eigenvalues --  -10.26857 -10.26604 -10.26481 -10.26100 -10.25999
 Alpha  occ. eigenvalues --  -10.25974 -10.25931 -10.25849 -10.25812 -10.25676
 Alpha  occ. eigenvalues --  -10.25671 -10.25583 -10.25566 -10.25514 -10.25478
 Alpha  occ. eigenvalues --  -10.25423 -10.25179 -10.25118 -10.25105 -10.25095
 Alpha  occ. eigenvalues --  -10.25070 -10.24855 -10.24764 -10.24595 -10.24449
 Alpha  occ. eigenvalues --  -10.23686 -10.23213  -1.10003  -1.08684  -0.95234
 Alpha  occ. eigenvalues --   -0.93233  -0.93068  -0.90970  -0.90047  -0.89643
 Alpha  occ. eigenvalues --   -0.88051  -0.86991  -0.86776  -0.85660  -0.84888
 Alpha  occ. eigenvalues --   -0.82754  -0.81674  -0.80148  -0.79738  -0.78577
 Alpha  occ. eigenvalues --   -0.76919  -0.76830  -0.76121  -0.75893  -0.75532
 Alpha  occ. eigenvalues --   -0.75216  -0.74908  -0.74312  -0.73717  -0.69959
 Alpha  occ. eigenvalues --   -0.68474  -0.67552  -0.65781  -0.65499  -0.64115
 Alpha  occ. eigenvalues --   -0.63361  -0.62106  -0.61904  -0.60974  -0.59976
 Alpha  occ. eigenvalues --   -0.59546  -0.58711  -0.57841  -0.57398  -0.56745
 Alpha  occ. eigenvalues --   -0.56028  -0.55390  -0.54842  -0.54139  -0.53987
 Alpha  occ. eigenvalues --   -0.53320  -0.52797  -0.52486  -0.51987  -0.51111
 Alpha  occ. eigenvalues --   -0.51059  -0.50910  -0.50336  -0.49602  -0.49263
 Alpha  occ. eigenvalues --   -0.48635  -0.48615  -0.48481  -0.48375  -0.47777
 Alpha  occ. eigenvalues --   -0.47554  -0.47401  -0.46845  -0.46416  -0.46328
 Alpha  occ. eigenvalues --   -0.46160  -0.45936  -0.45385  -0.45094  -0.44873
 Alpha  occ. eigenvalues --   -0.44742  -0.44144  -0.44007  -0.43952  -0.43690
 Alpha  occ. eigenvalues --   -0.43330  -0.42907  -0.42549  -0.42287  -0.42021
 Alpha  occ. eigenvalues --   -0.41909  -0.41719  -0.41581  -0.41214  -0.41057
 Alpha  occ. eigenvalues --   -0.40411  -0.40123  -0.39901  -0.39477  -0.39336
 Alpha  occ. eigenvalues --   -0.39302  -0.38305  -0.37763  -0.37540  -0.37296
 Alpha  occ. eigenvalues --   -0.37174  -0.37060  -0.35879  -0.35739  -0.35595
 Alpha  occ. eigenvalues --   -0.35046  -0.33666  -0.33024  -0.32436  -0.31533
 Alpha  occ. eigenvalues --   -0.31498  -0.29822  -0.28545  -0.26843  -0.24710
 Alpha  occ. eigenvalues --   -0.21329
 Alpha virt. eigenvalues --   -0.03503   0.00899   0.03494   0.06243   0.08377
 Alpha virt. eigenvalues --    0.09763   0.10246   0.10966   0.11351   0.11533
 Alpha virt. eigenvalues --    0.11885   0.11986   0.12236   0.12371   0.13438

 Mulliken charges:
               1
     1  O   -0.553414
     2  O   -0.572014
     3  C   -0.026462
     4  C    0.010592
     5  C   -0.189727
     6  C   -0.177411
     7  C    0.194234
     8  C    0.181299
     9  C    0.063449
    10  C    0.030527
    11  C   -0.207858
    12  C   -0.198194
    13  C    0.038476
    14  C    0.023253
    15  C   -0.273095
    16  C   -0.288518
    17  C   -0.291677
    18  C   -0.302351
    19  C   -0.092831
    20  C   -0.137703
    21  C   -0.362777
    22  C   -0.347748
    23  C   -0.088908
    24  C   -0.073311
    25  C    0.019154
    26  C    0.102314
    27  C   -0.325144
    28  C   -0.367243
    29  C   -0.077922
    30  C   -0.124862
    31  C   -0.115752
    32  C   -0.105743
    33  C   -0.100510
    34  C   -0.109626
    35  C    0.130541
    36  C    0.107503
    37  C   -0.369707
    38  C   -0.370865
    39  C   -0.096792
    40  C   -0.141060
    41  C   -0.102956
    42  C   -0.104155
    43  H    0.093051
    44  H    0.071748
    45  H    0.065815
    46  H    0.082931
    47  H    0.027095
    48  H    0.067942
    49  H    0.113946
    50  H    0.113116
    51  H    0.131049
    52  H    0.114977
    53  H    0.097933
    54  H    0.105754
    55  H    0.085258
    56  H    0.103981
    57  H    0.053945
    58  H    0.118077
    59  H    0.110544
    60  H    0.078548
    61  H    0.092685
    62  H    0.092167
    63  H    0.081613
    64  H    0.116517
    65  H    0.076961
    66  H    0.094126
    67  H    0.126156
    68  H    0.124999
    69  H    0.097679
    70  H    0.106534
    71  H    0.132789
    72  H    0.078633
    73  H    0.303702
    74  H    0.300963
    75  H    0.088695
    76  H    0.066917
    77  H    0.102613
    78  H    0.111259
    79  H    0.108019
    80  H    0.133607
    81  H    0.106325
    82  H    0.104789
    83  H    0.054732
    84  H    0.083520
    85  H    0.077836
    86  H    0.090097
    87  H    0.080622
    88  H    0.083312
    89  H    0.131648
    90  H    0.096296
    91  H    0.120534
    92  H    0.110188
    93  H    0.133724
    94  H    0.088048
    95  H    0.073672
    96  H    0.094560
    97  H    0.094101
    98  H    0.098645
 Sum of Mulliken charges =  -0.00000

 Dipole moment (field-independent basis, Debye):
    X=             -0.1661    Y=             -0.9730    Z=              1.9558  Tot=              2.1908
 Quadrupole moment (field-independent basis, Debye-Ang):
   XX=           -265.8222   YY=           -254.1439   ZZ=           -259.4076
   XY=             14.0187   XZ=              4.7359   YZ=              0.5781

 Normal termination of Gaussian 16 at Mon Jul  1 19:17:29 2019.
