 Gaussian 16, Revision A.03,
 Gaussian 16:  ES64L-G16RevA.03 25-Dec-2016

 -------------------------------------
 # td=(NStates=1) CAM-B3LYP/6-31G(d,p)
 -------------------------------------

 --
 TD
 --
 Symbolic Z-matrix:
 Charge =  0 Multiplicity = 1

                         Standard orientation:
 ---------------------------------------------------------------------
 Center     Atomic      Atomic             Coordinates (Angstroms)
 Number     Number       Type             X           Y           Z
 ---------------------------------------------------------------------
      1          8           0       14.852686   -2.000906   -0.082012
      2          8           0      -14.729963    2.031594    0.690742
      3          6           0       11.539311   -0.918386    1.216462
      4          6           0      -12.346432   -0.932775    0.826999
      5          6           0       13.029055   -1.205770    1.120963
      6          6           0      -13.668493   -0.102453    0.773526
      7          6           0       13.479127   -1.736338   -0.175599
      8          6           0      -13.510649    1.431146    0.769806
      9          6           0       11.029195   -0.207264   -0.057968
     10          6           0      -11.356125   -0.290220   -0.091964
     11          6           0       13.159042   -0.933710   -1.334048
     12          6           0      -12.728505    1.777880   -0.393992
     13          6           0       11.683036   -0.302734   -1.192006
     14          6           0      -11.539841    0.957276   -0.717642
     15          6           0       11.121023   -0.135110    2.493633
     16          6           0       10.840801   -2.318048    1.461889
     17          6           0      -11.829960   -1.003375    2.260452
     18          6           0      -12.622323   -2.377557    0.495386
     19          6           0        9.692831    0.358498    0.122780
     20          6           0      -10.106128   -1.070156   -0.361252
     21          6           0       11.196468    0.279201   -2.487203
     22          6           0      -10.570978    1.620173   -1.751971
     23          6           0        9.354848    1.593017   -0.296765
     24          6           0       -8.896175   -0.523192   -0.347113
     25          6           0        8.041266    2.205679   -0.012211
     26          6           0       -7.657838   -1.284523   -0.620826
     27          6           0        8.051176    3.696536    0.288809
     28          6           0       -7.726293   -2.797151   -0.862176
     29          6           0        6.773761    1.443259   -0.118289
     30          6           0       -6.418077   -0.599956   -0.541899
     31          6           0        5.504455    1.904645    0.195007
     32          6           0       -5.103352   -1.079066   -0.706207
     33          6           0        4.440206    1.120376    0.120320
     34          6           0       -3.976475   -0.375304   -0.550397
     35          6           0        3.002897    1.520157    0.224238
     36          6           0       -2.692667   -0.873268   -0.415429
     37          6           0        2.700443    3.016911    0.629478
     38          6           0       -2.392790   -2.285258   -0.905091
     39          6           0        2.134443    0.593055   -0.004217
     40          6           0       -1.640839    0.060470   -0.260534
     41          6           0        0.646046    0.769472    0.067673
     42          6           0       -0.232867   -0.248230   -0.335238
     43          1           0       13.288707   -0.192110    1.285405
     44          1           0       13.431371   -1.942407    1.795152
     45          1           0      -14.447264   -0.404614    1.520056
     46          1           0      -14.274213   -0.148269   -0.171936
     47          1           0       13.079348   -2.748004   -0.274523
     48          1           0      -12.987752    1.633034    1.729278
     49          1           0       13.789789    0.015001   -1.418145
     50          1           0       13.163500   -1.269058   -2.302162
     51          1           0      -13.406600    1.610214   -1.302262
     52          1           0      -12.307023    2.754153   -0.388331
     53          1           0       11.070091   -0.468093    3.561038
     54          1           0       10.011378    0.146910    2.521346
     55          1           0       11.633073    0.969488    2.673664
     56          1           0       11.116885   -3.155921    0.661779
     57          1           0       10.958762   -2.772453    2.384951
     58          1           0        9.812219   -2.208670    1.315751
     59          1           0      -11.576115   -0.047844    2.665856
     60          1           0      -10.819467   -1.449353    2.311102
     61          1           0      -12.548509   -1.207179    3.015802
     62          1           0      -13.584114   -2.695176    1.100253
     63          1           0      -12.028158   -3.111328    0.691312
     64          1           0      -12.994337   -2.456141   -0.542182
     65          1           0        9.007849    0.000197    0.682694
     66          1           0      -10.264788   -2.164903   -0.368384
     67          1           0        9.974155    0.319032   -2.710218
     68          1           0       11.654315    1.304171   -2.941363
     69          1           0       11.461849   -0.398518   -3.232819
     70          1           0      -11.134684    1.988201   -2.725183
     71          1           0       -9.791816    0.860264   -1.997034
     72          1           0      -10.211386    2.542308   -1.580547
     73          1           0       14.981175   -2.747638    0.458544
     74          1           0      -15.166800    2.045216    1.593496
     75          1           0       10.155889    2.234321   -0.749411
     76          1           0       -8.901711    0.453796   -0.201452
     77          1           0        8.678514    4.099776   -0.328142
     78          1           0        7.040359    4.056395    0.087442
     79          1           0        8.326187    3.934650    1.212270
     80          1           0       -8.090864   -3.633330   -0.074754
     81          1           0       -8.383185   -2.826621   -1.848270
     82          1           0       -6.839098   -3.151388   -1.441169
     83          1           0        7.051387    0.334383   -0.152572
     84          1           0       -6.416968    0.572800   -0.445896
     85          1           0        5.356064    2.981518    0.304804
     86          1           0       -4.906393   -2.204065   -0.856690
     87          1           0        4.583911   -0.003382   -0.190829
     88          1           0       -3.963501    0.760660   -0.343597
     89          1           0        3.316865    3.096873    1.499085
     90          1           0        1.632774    3.142293    1.009620
     91          1           0        3.091718    3.555221   -0.090550
     92          1           0       -2.776682   -3.091657   -0.306997
     93          1           0       -2.828850   -2.422101   -1.811633
     94          1           0       -1.369255   -2.414545   -0.942125
     95          1           0        2.433737   -0.297627   -0.336044
     96          1           0       -1.942819    0.948023    0.068931
     97          1           0        0.231504    1.749511    0.368747
     98          1           0        0.231448   -1.208963   -0.477290
 ---------------------------------------------------------------------

 SCF Done:  E(RCAM-B3LYP) =  -1706.97482118     A.U. after   14 cycles

 Excitation energies and oscillator strengths:

 Excited State   1:      Singlet-A      2.6067 eV  475.63 nm  f=3.7232  <S**2>=0.000
     155 ->158        -0.18454
     156 ->157         0.67670
 This state for optimization and/or second-order correction.
 Total Energy, E(TD-HF/TD-DFT) =  -1706.87902505
 Copying the excited state density for this state as the 1-particle RhoCI density.

 The electronic state is 1-A.
 Alpha  occ. eigenvalues --  -19.21769 -19.20038 -10.29635 -10.29506 -10.28302
 Alpha  occ. eigenvalues --  -10.28231 -10.28137 -10.27492 -10.27202 -10.27178
 Alpha  occ. eigenvalues --  -10.27165 -10.26970 -10.26914 -10.26856 -10.26723
 Alpha  occ. eigenvalues --  -10.26721 -10.26720 -10.26629 -10.26510 -10.26438
 Alpha  occ. eigenvalues --  -10.26175 -10.26017 -10.25874 -10.25728 -10.25722
 Alpha  occ. eigenvalues --  -10.25690 -10.25649 -10.25622 -10.25362 -10.25125
 Alpha  occ. eigenvalues --  -10.25070 -10.24630 -10.24535 -10.24423 -10.24374
 Alpha  occ. eigenvalues --  -10.24287 -10.24125 -10.23742 -10.23568 -10.23477
 Alpha  occ. eigenvalues --  -10.23452 -10.23212  -1.11136  -1.10746  -0.94094
 Alpha  occ. eigenvalues --   -0.93312  -0.92005  -0.91490  -0.89878  -0.89281
 Alpha  occ. eigenvalues --   -0.87375  -0.87240  -0.86742  -0.86070  -0.84781
 Alpha  occ. eigenvalues --   -0.83680  -0.81821  -0.81252  -0.79625  -0.79002
 Alpha  occ. eigenvalues --   -0.77154  -0.76986  -0.76574  -0.76227  -0.75771
 Alpha  occ. eigenvalues --   -0.75364  -0.75245  -0.75111  -0.73650  -0.70350
 Alpha  occ. eigenvalues --   -0.69169  -0.67390  -0.66858  -0.65152  -0.64711
 Alpha  occ. eigenvalues --   -0.64167  -0.62743  -0.62593  -0.60427  -0.60148
 Alpha  occ. eigenvalues --   -0.59909  -0.59551  -0.58889  -0.58697  -0.56894
 Alpha  occ. eigenvalues --   -0.56233  -0.55791  -0.55469  -0.54790  -0.53525
 Alpha  occ. eigenvalues --   -0.52938  -0.52808  -0.52114  -0.51718  -0.51177
 Alpha  occ. eigenvalues --   -0.50901  -0.50380  -0.50301  -0.50104  -0.49721
 Alpha  occ. eigenvalues --   -0.49260  -0.49016  -0.48716  -0.48203  -0.47993
 Alpha  occ. eigenvalues --   -0.47646  -0.47597  -0.47212  -0.47199  -0.46686
 Alpha  occ. eigenvalues --   -0.46617  -0.45801  -0.45279  -0.45078  -0.44940
 Alpha  occ. eigenvalues --   -0.44254  -0.43865  -0.43825  -0.43688  -0.43550
 Alpha  occ. eigenvalues --   -0.43113  -0.42895  -0.42568  -0.42010  -0.41756
 Alpha  occ. eigenvalues --   -0.41625  -0.41617  -0.41258  -0.40876  -0.40194
 Alpha  occ. eigenvalues --   -0.40074  -0.39915  -0.39896  -0.39542  -0.39297
 Alpha  occ. eigenvalues --   -0.38973  -0.38843  -0.38389  -0.38175  -0.38090
 Alpha  occ. eigenvalues --   -0.37919  -0.37497  -0.36741  -0.36736  -0.36511
 Alpha  occ. eigenvalues --   -0.35173  -0.34968  -0.34038  -0.32733  -0.32044
 Alpha  occ. eigenvalues --   -0.31265  -0.29665  -0.28492  -0.25955  -0.23143
 Alpha  occ. eigenvalues --   -0.20056
 Alpha virt. eigenvalues --   -0.04298  -0.00757   0.03189   0.06009   0.07618
 Alpha virt. eigenvalues --    0.09991   0.11264   0.11585   0.11986   0.12946
 Alpha virt. eigenvalues --    0.13170   0.13485   0.13717   0.14056   0.14191

 Mulliken charges:
               1
     1  O   -0.560860
     2  O   -0.544324
     3  C   -0.025767
     4  C   -0.003385
     5  C   -0.152280
     6  C   -0.204405
     7  C    0.180427
     8  C    0.162342
     9  C    0.081756
    10  C    0.045013
    11  C   -0.196584
    12  C   -0.201393
    13  C    0.023867
    14  C    0.043819
    15  C   -0.321249
    16  C   -0.311273
    17  C   -0.308434
    18  C   -0.288674
    19  C   -0.083169
    20  C   -0.138842
    21  C   -0.365933
    22  C   -0.368326
    23  C   -0.100287
    24  C   -0.066622
    25  C    0.012249
    26  C    0.078848
    27  C   -0.350362
    28  C   -0.372311
    29  C   -0.119597
    30  C   -0.123243
    31  C   -0.073825
    32  C   -0.093477
    33  C   -0.115392
    34  C   -0.096868
    35  C    0.097696
    36  C    0.093255
    37  C   -0.359103
    38  C   -0.373978
    39  C   -0.119711
    40  C   -0.116529
    41  C   -0.100468
    42  C   -0.085854
    43  H    0.105687
    44  H    0.074015
    45  H    0.065585
    46  H    0.092990
    47  H    0.073388
    48  H    0.067097
    49  H    0.117687
    50  H    0.111559
    51  H    0.114840
    52  H    0.104285
    53  H    0.107124
    54  H    0.100839
    55  H    0.072584
    56  H    0.073567
    57  H    0.115912
    58  H    0.105264
    59  H    0.094524
    60  H    0.109126
    61  H    0.105396
    62  H    0.077481
    63  H    0.112881
    64  H    0.099447
    65  H    0.078768
    66  H    0.085144
    67  H    0.102413
    68  H    0.099172
    69  H    0.115089
    70  H    0.085848
    71  H    0.126445
    72  H    0.127168
    73  H    0.299087
    74  H    0.312775
    75  H    0.090581
    76  H    0.087031
    77  H    0.122320
    78  H    0.103041
    79  H    0.135034
    80  H    0.116371
    81  H    0.107211
    82  H    0.113837
    83  H    0.076356
    84  H    0.074505
    85  H    0.083312
    86  H    0.076947
    87  H    0.076800
    88  H    0.067166
    89  H    0.128173
    90  H    0.110410
    91  H    0.139044
    92  H    0.115405
    93  H    0.132567
    94  H    0.107354
    95  H    0.069194
    96  H    0.078177
    97  H    0.081672
    98  H    0.097556
 Sum of Mulliken charges =  -0.00000

 Dipole moment (field-independent basis, Debye):
    X=              0.6590    Y=             -0.5736    Z=              2.0162  Tot=              2.1974
 Quadrupole moment (field-independent basis, Debye-Ang):
   XX=           -280.3198   YY=           -239.9361   ZZ=           -256.4549
   XY=             -4.2019   XZ=            -14.1774   YZ=              2.2875

 Normal termination of Gaussian 16 at Wed Jul  3 18:11:26 2019.
