 Gaussian 16, Revision A.03,
 Gaussian 16:  ES64L-G16RevA.03 25-Dec-2016

 -------------------------------------
 # td=(NStates=1) CAM-B3LYP/6-31G(d,p)
 -------------------------------------

 --
 TD
 --
 Symbolic Z-matrix:
 Charge =  0 Multiplicity = 1

                         Standard orientation:
 ---------------------------------------------------------------------
 Center     Atomic      Atomic             Coordinates (Angstroms)
 Number     Number       Type             X           Y           Z
 ---------------------------------------------------------------------
      1          8           0       14.773323   -2.176206   -0.076746
      2          8           0      -14.689193    2.032987    0.942930
      3          6           0       11.325460   -1.158135    1.203320
      4          6           0      -12.186300   -0.974246    0.851368
      5          6           0       12.842857   -1.525879    1.149830
      6          6           0      -13.647307   -0.190674    0.863395
      7          6           0       13.483819   -1.901434   -0.196050
      8          6           0      -13.436151    1.302780    0.922891
      9          6           0       10.963823   -0.323916   -0.052481
     10          6           0      -11.280361   -0.313260   -0.197719
     11          6           0       13.191320   -0.849115   -1.175347
     12          6           0      -12.842169    1.662001   -0.393138
     13          6           0       11.778963   -0.160577   -1.007553
     14          6           0      -11.610379    0.849463   -0.820424
     15          6           0       11.032253   -0.463304    2.554971
     16          6           0       10.502978   -2.449698    1.147101
     17          6           0      -11.632448   -0.926641    2.262377
     18          6           0      -12.618498   -2.350545    0.502020
     19          6           0        9.654711    0.342947    0.077019
     20          6           0      -10.111831   -1.022078   -0.435373
     21          6           0       11.423566    0.553270   -2.338484
     22          6           0      -10.779951    1.477113   -1.989170
     23          6           0        9.370182    1.702982    0.020119
     24          6           0       -8.849817   -0.537186   -0.293211
     25          6           0        8.014417    2.228463    0.181008
     26          6           0       -7.600399   -1.263168   -0.592548
     27          6           0        8.030358    3.688239    0.683903
     28          6           0       -7.687349   -2.737489   -0.894792
     29          6           0        6.939852    1.634560   -0.104154
     30          6           0       -6.439406   -0.566638   -0.414445
     31          6           0        5.588365    2.023062    0.142069
     32          6           0       -5.067213   -1.208567   -0.569520
     33          6           0        4.434180    1.312574   -0.134026
     34          6           0       -3.980168   -0.477997   -0.491408
     35          6           0        3.005370    1.778209    0.028686
     36          6           0       -2.586451   -0.883944   -0.552544
     37          6           0        2.789489    3.122804    0.552919
     38          6           0       -2.330130   -2.207428   -0.955573
     39          6           0        2.134112    0.798543   -0.282251
     40          6           0       -1.669998    0.095180   -0.346733
     41          6           0        0.643142    1.050324   -0.232571
     42          6           0       -0.262867    0.035229   -0.468091
     43          1           0       13.268819   -0.602106    1.484118
     44          1           0       12.936816   -2.368115    1.908358
     45          1           0      -14.171331   -0.570850    1.679893
     46          1           0      -14.427805   -0.341134    0.166199
     47          1           0       12.754941   -2.724242   -0.767718
     48          1           0      -12.818614    1.536483    1.838480
     49          1           0       13.935541    0.070268   -1.102543
     50          1           0       13.423649   -1.234566   -2.197638
     51          1           0      -13.823023    1.436908   -1.112449
     52          1           0      -12.527694    2.745570   -0.367232
     53          1           0       11.150454   -1.029558    3.472601
     54          1           0        9.838272   -0.068857    2.549017
     55          1           0       11.756560    0.548831    2.393166
     56          1           0       10.491315   -3.010349    0.272513
     57          1           0       10.991917   -3.319148    1.906509
     58          1           0        9.488985   -2.062756    1.401528
     59          1           0      -11.726562    0.047310    2.785889
     60          1           0      -10.577688   -1.360586    2.280188
     61          1           0      -12.187862   -1.484888    2.979512
     62          1           0      -13.483651   -2.668695    1.067278
     63          1           0      -11.712850   -3.065877    0.790979
     64          1           0      -12.894543   -2.428469   -0.578087
     65          1           0        8.806179   -0.313060    0.446550
     66          1           0      -10.088717   -2.068610   -0.831754
     67          1           0       10.254577    0.729049   -2.635325
     68          1           0       12.036838    1.502442   -2.542008
     69          1           0       11.751570   -0.143563   -3.202085
     70          1           0      -11.331037    1.866368   -2.802254
     71          1           0      -10.291242    0.604471   -2.521291
     72          1           0      -10.039701    2.244305   -1.307908
     73          1           0       15.077281   -3.188364    0.223113
     74          1           0      -15.314335    1.910236    1.792930
     75          1           0       10.143262    2.370171   -0.417849
     76          1           0       -8.519882    0.406485    0.200006
     77          1           0        8.695770    4.089246    0.143737
     78          1           0        7.319857    4.314330    0.583666
     79          1           0        8.470435    3.599988    1.726757
     80          1           0       -8.148921   -3.458032   -0.102209
     81          1           0       -8.345127   -3.088771   -1.806001
     82          1           0       -6.807821   -3.053761   -1.024324
     83          1           0        6.767477    0.520012   -0.623114
     84          1           0       -6.513692    0.467273   -0.249694
     85          1           0        5.283190    3.081794    0.578810
     86          1           0       -5.058250   -2.325869   -0.923884
     87          1           0        4.528209    0.376527   -0.691994
     88          1           0       -4.193334    0.547765   -0.264889
     89          1           0        3.494428    3.179614    1.577230
     90          1           0        1.780541    3.439166    0.641792
     91          1           0        3.200312    3.772245   -0.409064
     92          1           0       -2.991509   -2.848421   -0.389218
     93          1           0       -2.738846   -2.185539   -1.890541
     94          1           0       -1.256879   -2.479425   -0.803086
     95          1           0        2.427751    0.008948   -0.694539
     96          1           0       -2.182567    1.131133   -0.086153
     97          1           0        0.198015    2.085575   -0.067278
     98          1           0        0.047328   -0.988114   -0.640498
 ---------------------------------------------------------------------

 SCF Done:  E(RCAM-B3LYP) =  -1706.90538792     A.U. after   14 cycles

 Excitation energies and oscillator strengths:

 Excited State   1:      Singlet-A      3.1139 eV  398.17 nm  f=3.5988  <S**2>=0.000
     155 ->158        -0.18372
     156 ->157         0.67428
 This state for optimization and/or second-order correction.
 Total Energy, E(TD-HF/TD-DFT) =  -1706.79095573
 Copying the excited state density for this state as the 1-particle RhoCI density.

 The electronic state is 1-A.
 Alpha  occ. eigenvalues --  -19.23120 -19.20894 -10.31261 -10.29704 -10.27958
 Alpha  occ. eigenvalues --  -10.27380 -10.27349 -10.27248 -10.27223 -10.27102
 Alpha  occ. eigenvalues --  -10.27029 -10.27004 -10.26960 -10.26916 -10.26877
 Alpha  occ. eigenvalues --  -10.26672 -10.26511 -10.26487 -10.26420 -10.26337
 Alpha  occ. eigenvalues --  -10.26304 -10.26249 -10.26203 -10.26098 -10.26033
 Alpha  occ. eigenvalues --  -10.26004 -10.25979 -10.25760 -10.25744 -10.25367
 Alpha  occ. eigenvalues --  -10.25323 -10.25222 -10.25188 -10.25088 -10.25073
 Alpha  occ. eigenvalues --  -10.24974 -10.24853 -10.24478 -10.24400 -10.24163
 Alpha  occ. eigenvalues --  -10.23315 -10.22763  -1.11366  -1.06145  -0.93555
 Alpha  occ. eigenvalues --   -0.93222  -0.92865  -0.91696  -0.90605  -0.90120
 Alpha  occ. eigenvalues --   -0.86649  -0.86199  -0.86048  -0.85208  -0.84730
 Alpha  occ. eigenvalues --   -0.83243  -0.82399  -0.79975  -0.79715  -0.79000
 Alpha  occ. eigenvalues --   -0.77340  -0.77060  -0.76090  -0.75789  -0.75309
 Alpha  occ. eigenvalues --   -0.74903  -0.74563  -0.74088  -0.73812  -0.70070
 Alpha  occ. eigenvalues --   -0.68617  -0.66941  -0.65145  -0.64441  -0.63481
 Alpha  occ. eigenvalues --   -0.63074  -0.62252  -0.60966  -0.60224  -0.59407
 Alpha  occ. eigenvalues --   -0.58844  -0.58696  -0.58081  -0.57608  -0.56308
 Alpha  occ. eigenvalues --   -0.55442  -0.54981  -0.54678  -0.54452  -0.54123
 Alpha  occ. eigenvalues --   -0.53444  -0.52580  -0.52297  -0.51814  -0.51195
 Alpha  occ. eigenvalues --   -0.50911  -0.50479  -0.50368  -0.49706  -0.49166
 Alpha  occ. eigenvalues --   -0.48900  -0.48557  -0.48166  -0.47846  -0.47724
 Alpha  occ. eigenvalues --   -0.47383  -0.47044  -0.46648  -0.46132  -0.45750
 Alpha  occ. eigenvalues --   -0.45251  -0.45247  -0.45084  -0.44957  -0.44867
 Alpha  occ. eigenvalues --   -0.44683  -0.43848  -0.43775  -0.43563  -0.43208
 Alpha  occ. eigenvalues --   -0.43000  -0.42654  -0.41963  -0.41341  -0.41243
 Alpha  occ. eigenvalues --   -0.41202  -0.40693  -0.40589  -0.40508  -0.40303
 Alpha  occ. eigenvalues --   -0.39784  -0.39411  -0.39250  -0.39201  -0.39113
 Alpha  occ. eigenvalues --   -0.38761  -0.38496  -0.38404  -0.38133  -0.37787
 Alpha  occ. eigenvalues --   -0.37573  -0.36379  -0.36096  -0.35492  -0.35264
 Alpha  occ. eigenvalues --   -0.34504  -0.34311  -0.33231  -0.32108  -0.31409
 Alpha  occ. eigenvalues --   -0.30838  -0.29735  -0.28575  -0.26541  -0.24434
 Alpha  occ. eigenvalues --   -0.21373
 Alpha virt. eigenvalues --   -0.02947   0.00468   0.03080   0.06249   0.07989
 Alpha virt. eigenvalues --    0.08152   0.10131   0.11082   0.11115   0.11736
 Alpha virt. eigenvalues --    0.12099   0.12678   0.12918   0.13005   0.13645

 Mulliken charges:
               1
     1  O   -0.548642
     2  O   -0.588252
     3  C   -0.045592
     4  C   -0.005559
     5  C   -0.171882
     6  C   -0.198055
     7  C    0.217703
     8  C    0.169764
     9  C    0.102865
    10  C    0.087757
    11  C   -0.219238
    12  C   -0.192077
    13  C    0.039685
    14  C    0.025852
    15  C   -0.271642
    16  C   -0.275413
    17  C   -0.308993
    18  C   -0.287621
    19  C   -0.128137
    20  C   -0.175139
    21  C   -0.359573
    22  C   -0.330507
    23  C   -0.107143
    24  C   -0.071107
    25  C    0.049266
    26  C    0.117112
    27  C   -0.332622
    28  C   -0.353840
    29  C   -0.093874
    30  C   -0.146584
    31  C   -0.091975
    32  C   -0.111252
    33  C   -0.130938
    34  C   -0.100866
    35  C    0.132636
    36  C    0.125316
    37  C   -0.357048
    38  C   -0.375521
    39  C   -0.090840
    40  C   -0.124945
    41  C   -0.113382
    42  C   -0.084026
    43  H    0.094894
    44  H    0.067864
    45  H    0.073483
    46  H    0.097672
    47  H    0.031100
    48  H    0.074433
    49  H    0.089715
    50  H    0.107838
    51  H    0.100870
    52  H    0.101735
    53  H    0.117576
    54  H    0.078671
    55  H    0.078576
    56  H    0.113747
    57  H    0.058263
    58  H    0.095115
    59  H    0.098398
    60  H    0.106386
    61  H    0.104047
    62  H    0.106141
    63  H    0.072059
    64  H    0.104910
    65  H    0.093290
    66  H    0.091838
    67  H    0.105266
    68  H    0.108053
    69  H    0.098015
    70  H    0.121302
    71  H    0.115402
    72  H    0.097611
    73  H    0.328663
    74  H    0.303809
    75  H    0.096858
    76  H    0.073328
    77  H    0.123125
    78  H    0.109087
    79  H    0.113232
    80  H    0.108607
    81  H    0.104110
    82  H    0.106348
    83  H    0.063120
    84  H    0.088078
    85  H    0.065786
    86  H    0.080932
    87  H    0.073785
    88  H    0.078684
    89  H    0.115937
    90  H    0.119183
    91  H    0.109449
    92  H    0.121797
    93  H    0.143557
    94  H    0.107734
    95  H    0.066385
    96  H    0.061780
    97  H    0.085069
    98  H    0.071614
 Sum of Mulliken charges =  -0.00000

 Dipole moment (field-independent basis, Debye):
    X=              0.7905    Y=             -2.1329    Z=              0.6714  Tot=              2.3717
 Quadrupole moment (field-independent basis, Debye-Ang):
   XX=           -249.4610   YY=           -242.8889   ZZ=           -258.8567
   XY=             -1.9649   XZ=            -16.2773   YZ=              3.2178

 Normal termination of Gaussian 16 at Fri Jul  5 20:25:33 2019.
