 Gaussian 16, Revision A.03,
 Gaussian 16:  ES64L-G16RevA.03 25-Dec-2016

 -------------------------------------
 # td=(NStates=1) CAM-B3LYP/6-31G(d,p)
 -------------------------------------

 --
 TD
 --
 Symbolic Z-matrix:
 Charge =  0 Multiplicity = 1

                         Standard orientation:
 ---------------------------------------------------------------------
 Center     Atomic      Atomic             Coordinates (Angstroms)
 Number     Number       Type             X           Y           Z
 ---------------------------------------------------------------------
      1          8           0       14.499325   -2.509233   -0.430208
      2          8           0      -14.728613    1.992857    0.828772
      3          6           0       11.346207   -1.120986    1.299168
      4          6           0      -12.389032   -1.092856    0.698216
      5          6           0       12.923224   -1.413539    1.169686
      6          6           0      -13.661334   -0.211009    0.850929
      7          6           0       13.123067   -2.070539   -0.211381
      8          6           0      -13.470783    1.280197    0.835065
      9          6           0       10.945398   -0.363573   -0.019600
     10          6           0      -11.357984   -0.329028   -0.136349
     11          6           0       12.906091   -1.114536   -1.294904
     12          6           0      -12.829963    1.748205   -0.479207
     13          6           0       11.605425   -0.427498   -1.146980
     14          6           0      -11.518583    0.832492   -0.743319
     15          6           0       11.269645   -0.193812    2.541975
     16          6           0       10.556334   -2.436725    1.448538
     17          6           0      -11.760303   -1.160530    2.177401
     18          6           0      -12.668205   -2.459718    0.346442
     19          6           0        9.599453    0.311173    0.159311
     20          6           0      -10.006540   -1.114161   -0.396569
     21          6           0       11.090068    0.293492   -2.388090
     22          6           0      -10.559667    1.606578   -1.789831
     23          6           0        9.357673    1.576576   -0.097144
     24          6           0       -8.903370   -0.513141   -0.288342
     25          6           0        8.027585    2.358598    0.048801
     26          6           0       -7.545622   -1.283514   -0.510096
     27          6           0        8.185708    3.851745    0.376970
     28          6           0       -7.525270   -2.779557   -0.787361
     29          6           0        6.864088    1.730982   -0.081281
     30          6           0       -6.432478   -0.640500   -0.438252
     31          6           0        5.575760    2.247687    0.018698
     32          6           0       -5.022393   -1.113999   -0.620182
     33          6           0        4.548498    1.403343   -0.068483
     34          6           0       -3.902631   -0.356122   -0.508107
     35          6           0        3.059622    1.731785    0.123174
     36          6           0       -2.499044   -0.718741   -0.520968
     37          6           0        2.884854    3.238350    0.637664
     38          6           0       -2.144699   -2.067737   -0.935956
     39          6           0        2.130224    0.903584   -0.094429
     40          6           0       -1.638390    0.274722   -0.207424
     41          6           0        0.699934    1.015992    0.050742
     42          6           0       -0.191340    0.087222   -0.336771
     43          1           0       13.630291   -0.629102    1.176287
     44          1           0       13.142489   -2.072874    1.994598
     45          1           0      -14.211340   -0.460416    1.729389
     46          1           0      -14.303175   -0.478159    0.014617
     47          1           0       12.467837   -2.859977   -0.379255
     48          1           0      -12.705216    1.712494    1.619933
     49          1           0       13.642277   -0.495647   -1.080917
     50          1           0       12.849872   -1.738362   -2.386002
     51          1           0      -13.588374    1.832545   -1.339909
     52          1           0      -12.401782    2.661817   -0.473843
     53          1           0       11.437252   -0.794916    3.306617
     54          1           0       10.135679    0.265894    2.633227
     55          1           0       12.020754    0.832509    2.477632
     56          1           0       10.628583   -3.058600    0.558596
     57          1           0       10.863452   -3.012013    2.281261
     58          1           0        9.422671   -2.034662    1.486752
     59          1           0      -11.580893   -0.313136    2.862180
     60          1           0      -10.811386   -1.821250    2.140091
     61          1           0      -12.562744   -1.898632    2.821925
     62          1           0      -13.236532   -3.070186    1.248697
     63          1           0      -11.785915   -3.231891    0.324915
     64          1           0      -13.136588   -2.627001   -0.626542
     65          1           0        8.976987   -0.300487    0.643342
     66          1           0      -10.032023   -2.166038   -0.708104
     67          1           0        9.913129    0.609210   -2.339526
     68          1           0       11.471474    1.370250   -2.790013
     69          1           0       11.236435   -0.315216   -3.284623
     70          1           0      -11.284861    1.953449   -2.592852
     71          1           0      -10.118466    0.904573   -2.433595
     72          1           0       -9.961320    2.340080   -1.236346
     73          1           0       14.858573   -2.618054    0.726787
     74          1           0      -15.019179    1.913220    1.695776
     75          1           0       10.240056    2.278961   -0.378075
     76          1           0       -8.732171    0.633858    0.017646
     77          1           0        8.734441    4.243217   -0.350815
     78          1           0        7.221643    4.642200    0.204380
     79          1           0        8.635773    3.803324    1.452263
     80          1           0       -7.935864   -3.453799    0.060544
     81          1           0       -8.435461   -3.109043   -1.524059
     82          1           0       -6.365688   -2.986737   -0.959192
     83          1           0        7.008669    0.726981   -0.518883
     84          1           0       -6.335135    0.496140   -0.312768
     85          1           0        5.357272    3.234489    0.275047
     86          1           0       -5.021672   -2.111360   -1.090641
     87          1           0        4.634079    0.257264   -0.439776
     88          1           0       -4.068140    0.768787   -0.191091
     89          1           0        3.276240    3.434741    1.642139
     90          1           0        1.746341    3.485446    0.843470
     91          1           0        3.125827    3.815670   -0.047754
     92          1           0       -2.327808   -2.892079   -0.028947
     93          1           0       -2.898360   -2.395856   -1.824174
     94          1           0       -1.053808   -2.466907   -1.332268
     95          1           0        2.294269   -0.064734   -0.424267
     96          1           0       -1.848553    1.249306    0.128363
     97          1           0        0.434365    1.887648    0.328345
     98          1           0        0.162672   -0.811331   -0.879613
 ---------------------------------------------------------------------

 SCF Done:  E(RCAM-B3LYP) =  -1706.84690573     A.U. after   13 cycles

 Excitation energies and oscillator strengths:

 Excited State   1:      Singlet-A      3.3584 eV  369.18 nm  f=3.4343  <S**2>=0.000
     155 ->158        -0.18264
     156 ->157         0.67570
 This state for optimization and/or second-order correction.
 Total Energy, E(TD-HF/TD-DFT) =  -1706.72348843
 Copying the excited state density for this state as the 1-particle RhoCI density.

 The electronic state is 1-A.
 Alpha  occ. eigenvalues --  -19.22173 -19.20908 -10.31067 -10.29185 -10.28723
 Alpha  occ. eigenvalues --  -10.28632 -10.28296 -10.28131 -10.27741 -10.27266
 Alpha  occ. eigenvalues --  -10.27180 -10.27068 -10.26988 -10.26962 -10.26929
 Alpha  occ. eigenvalues --  -10.26892 -10.26758 -10.26735 -10.26720 -10.26701
 Alpha  occ. eigenvalues --  -10.26671 -10.26488 -10.26412 -10.26301 -10.26244
 Alpha  occ. eigenvalues --  -10.26223 -10.26183 -10.26081 -10.25688 -10.25648
 Alpha  occ. eigenvalues --  -10.25645 -10.25640 -10.25303 -10.25195 -10.25166
 Alpha  occ. eigenvalues --  -10.25096 -10.24752 -10.24719 -10.24668 -10.24576
 Alpha  occ. eigenvalues --  -10.24464 -10.24174  -1.10007  -1.05399  -0.93691
 Alpha  occ. eigenvalues --   -0.93082  -0.92384  -0.91518  -0.90475  -0.89828
 Alpha  occ. eigenvalues --   -0.87263  -0.87132  -0.86470  -0.85542  -0.84845
 Alpha  occ. eigenvalues --   -0.83121  -0.81706  -0.80149  -0.79864  -0.78324
 Alpha  occ. eigenvalues --   -0.76806  -0.76149  -0.75961  -0.75723  -0.75716
 Alpha  occ. eigenvalues --   -0.75221  -0.74788  -0.74341  -0.74032  -0.70348
 Alpha  occ. eigenvalues --   -0.67933  -0.66433  -0.65694  -0.65002  -0.64366
 Alpha  occ. eigenvalues --   -0.63901  -0.63315  -0.62139  -0.60392  -0.59859
 Alpha  occ. eigenvalues --   -0.59115  -0.58720  -0.58225  -0.58128  -0.56278
 Alpha  occ. eigenvalues --   -0.55189  -0.54709  -0.54182  -0.53848  -0.53436
 Alpha  occ. eigenvalues --   -0.52723  -0.52151  -0.51638  -0.51358  -0.51240
 Alpha  occ. eigenvalues --   -0.51017  -0.50748  -0.50353  -0.49792  -0.49613
 Alpha  occ. eigenvalues --   -0.49336  -0.48916  -0.48578  -0.48305  -0.47994
 Alpha  occ. eigenvalues --   -0.47561  -0.47118  -0.46268  -0.46013  -0.45948
 Alpha  occ. eigenvalues --   -0.45630  -0.45143  -0.44931  -0.44692  -0.44403
 Alpha  occ. eigenvalues --   -0.43829  -0.43539  -0.43418  -0.42956  -0.42542
 Alpha  occ. eigenvalues --   -0.42523  -0.42284  -0.42202  -0.41989  -0.41921
 Alpha  occ. eigenvalues --   -0.41640  -0.41364  -0.41175  -0.41015  -0.40751
 Alpha  occ. eigenvalues --   -0.40169  -0.40152  -0.40089  -0.39724  -0.39627
 Alpha  occ. eigenvalues --   -0.39302  -0.39152  -0.38361  -0.38234  -0.37608
 Alpha  occ. eigenvalues --   -0.36786  -0.36679  -0.36283  -0.35867  -0.35347
 Alpha  occ. eigenvalues --   -0.34272  -0.34017  -0.33243  -0.32949  -0.32840
 Alpha  occ. eigenvalues --   -0.31541  -0.30236  -0.29043  -0.27761  -0.25194
 Alpha  occ. eigenvalues --   -0.22319
 Alpha virt. eigenvalues --   -0.02778   0.01087   0.04510   0.06720   0.07023
 Alpha virt. eigenvalues --    0.08354   0.09876   0.11237   0.11382   0.11734
 Alpha virt. eigenvalues --    0.12295   0.12603   0.12828   0.13053   0.13398

 Mulliken charges:
               1
     1  O   -0.567918
     2  O   -0.539854
     3  C   -0.038333
     4  C    0.013027
     5  C   -0.221152
     6  C   -0.166674
     7  C    0.164851
     8  C    0.130881
     9  C    0.039130
    10  C    0.069842
    11  C   -0.176191
    12  C   -0.193367
    13  C    0.071047
    14  C   -0.024645
    15  C   -0.267462
    16  C   -0.299467
    17  C   -0.295804
    18  C   -0.312828
    19  C   -0.089958
    20  C   -0.145616
    21  C   -0.362273
    22  C   -0.350377
    23  C   -0.104461
    24  C   -0.034908
    25  C    0.041934
    26  C    0.110776
    27  C   -0.347414
    28  C   -0.366070
    29  C   -0.105111
    30  C   -0.129332
    31  C   -0.066252
    32  C   -0.101939
    33  C   -0.107172
    34  C   -0.131803
    35  C    0.093893
    36  C    0.166879
    37  C   -0.369934
    38  C   -0.375892
    39  C   -0.124141
    40  C   -0.124693
    41  C   -0.042224
    42  C   -0.091247
    43  H    0.108952
    44  H    0.083468
    45  H    0.086692
    46  H    0.105218
    47  H    0.087223
    48  H    0.072821
    49  H    0.123005
    50  H    0.088753
    51  H    0.105567
    52  H    0.112941
    53  H    0.111380
    54  H    0.079191
    55  H    0.082798
    56  H    0.123597
    57  H    0.113062
    58  H    0.091017
    59  H    0.110969
    60  H    0.100755
    61  H    0.051330
    62  H    0.088754
    63  H    0.095075
    64  H    0.112611
    65  H    0.082889
    66  H    0.083177
    67  H    0.101380
    68  H    0.091840
    69  H    0.101894
    70  H    0.104084
    71  H    0.130391
    72  H    0.126654
    73  H    0.279533
    74  H    0.296494
    75  H    0.084673
    76  H    0.082001
    77  H    0.137316
    78  H    0.079965
    79  H    0.121552
    80  H    0.113311
    81  H    0.099458
    82  H    0.103526
    83  H    0.082382
    84  H    0.069537
    85  H    0.091436
    86  H    0.079668
    87  H    0.068461
    88  H    0.075531
    89  H    0.127117
    90  H    0.082536
    91  H    0.139428
    92  H    0.106625
    93  H    0.105445
    94  H    0.107469
    95  H    0.065002
    96  H    0.090920
    97  H    0.046333
    98  H    0.079042
 Sum of Mulliken charges =  -0.00000

 Dipole moment (field-independent basis, Debye):
    X=             -0.2329    Y=             -0.1768    Z=              2.4815  Tot=              2.4987
 Quadrupole moment (field-independent basis, Debye-Ang):
   XX=           -289.9077   YY=           -247.9727   ZZ=           -258.6586
   XY=             21.6210   XZ=             13.8506   YZ=             -0.3145

 Normal termination of Gaussian 16 at Sun Jul  7 22:22:14 2019.
