 Gaussian 16, Revision A.03,
 Gaussian 16:  ES64L-G16RevA.03 25-Dec-2016

 -------------------------------------
 # td=(NStates=1) CAM-B3LYP/6-31G(d,p)
 -------------------------------------

 --
 TD
 --
 Symbolic Z-matrix:
 Charge =  0 Multiplicity = 1

                         Standard orientation:
 ---------------------------------------------------------------------
 Center     Atomic      Atomic             Coordinates (Angstroms)
 Number     Number       Type             X           Y           Z
 ---------------------------------------------------------------------
      1          8           0       14.590273   -2.292014   -0.300977
      2          8           0      -14.748090    2.113037    0.657930
      3          6           0       11.428573   -1.038566    1.245952
      4          6           0      -12.331967   -0.978379    0.872879
      5          6           0       12.956129   -1.378196    1.063237
      6          6           0      -13.647649   -0.163514    0.833482
      7          6           0       13.328467   -1.952170   -0.204052
      8          6           0      -13.521627    1.384140    0.761862
      9          6           0       10.982947   -0.265056    0.002857
     10          6           0      -11.386401   -0.295335   -0.254899
     11          6           0       13.038713   -0.921088   -1.405237
     12          6           0      -12.728976    1.748683   -0.466187
     13          6           0       11.681834   -0.234497   -1.168120
     14          6           0      -11.486612    0.825654   -0.774584
     15          6           0       11.275599   -0.185769    2.420032
     16          6           0       10.715846   -2.353529    1.428868
     17          6           0      -11.692893   -0.732741    2.240293
     18          6           0      -12.606963   -2.433529    0.626437
     19          6           0        9.683215    0.427059    0.231642
     20          6           0      -10.163480   -1.222076   -0.422958
     21          6           0       11.094008    0.528251   -2.407746
     22          6           0      -10.673134    1.424158   -1.845679
     23          6           0        9.348882    1.690138    0.015073
     24          6           0       -8.911687   -0.626433   -0.350028
     25          6           0        8.143663    2.275165    0.154962
     26          6           0       -7.590315   -1.276870   -0.660047
     27          6           0        8.056939    3.803009    0.366930
     28          6           0       -7.672343   -2.742812   -1.089375
     29          6           0        7.057530    1.546514    0.029478
     30          6           0       -6.533869   -0.596519   -0.312602
     31          6           0        5.584068    1.904753    0.133886
     32          6           0       -5.164922   -1.119280   -0.443020
     33          6           0        4.505725    1.141913    0.005807
     34          6           0       -3.975711   -0.417618   -0.173122
     35          6           0        3.121942    1.494795    0.086826
     36          6           0       -2.591246   -0.836527   -0.456644
     37          6           0        2.867672    3.020254    0.515704
     38          6           0       -2.447105   -2.212476   -0.809790
     39          6           0        2.119081    0.656648   -0.174836
     40          6           0       -1.625381    0.144436   -0.254187
     41          6           0        0.666041    0.917228   -0.076875
     42          6           0       -0.239967   -0.054268   -0.257867
     43          1           0       13.530896   -0.638406    1.466257
     44          1           0       13.284846   -2.031992    1.851854
     45          1           0      -14.247882   -0.256653    1.715725
     46          1           0      -14.391606   -0.483153    0.164009
     47          1           0       12.606111   -2.748692   -0.464952
     48          1           0      -12.870921    1.806320    1.547852
     49          1           0       13.979593   -0.225164   -1.487919
     50          1           0       13.264868   -1.414570   -2.436104
     51          1           0      -13.337413    1.710400   -1.427728
     52          1           0      -12.294097    2.781632   -0.235305
     53          1           0       11.628328   -0.695108    3.184488
     54          1           0       10.258547    0.048561    2.599003
     55          1           0       11.997983    0.775135    2.181203
     56          1           0       10.716014   -3.069539    0.444014
     57          1           0       11.162378   -2.988226    2.124681
     58          1           0        9.507225   -2.057061    1.547403
     59          1           0      -11.727493    0.368674    2.385326
     60          1           0      -10.627510   -0.887354    2.383311
     61          1           0      -12.103253   -1.316301    3.224956
     62          1           0      -13.350416   -2.860084    1.109497
     63          1           0      -11.819548   -3.139519    0.813756
     64          1           0      -12.966330   -2.635163   -0.360831
     65          1           0        9.035229   -0.228756    0.674197
     66          1           0      -10.200992   -2.218735   -0.788157
     67          1           0        9.880841    0.751269   -2.393873
     68          1           0       11.665119    1.492259   -2.501969
     69          1           0       11.240230    0.006445   -3.250251
     70          1           0      -11.245227    1.736483   -2.690037
     71          1           0       -9.941807    0.844880   -2.168051
     72          1           0      -10.141557    2.196940   -1.662077
     73          1           0       14.856588   -3.012730    0.246540
     74          1           0      -15.370332    1.746879    1.399396
     75          1           0       10.127376    2.213999   -0.442822
     76          1           0       -8.920132    0.493799   -0.207681
     77          1           0        8.694395    4.083696   -0.487752
     78          1           0        7.040639    4.305030    0.421435
     79          1           0        8.625457    3.989195    1.221046
     80          1           0       -8.278575   -3.334334   -0.338799
     81          1           0       -8.352461   -2.793807   -1.973353
     82          1           0       -6.675133   -2.967874   -1.383629
     83          1           0        7.125365    0.456532   -0.342664
     84          1           0       -6.825471    0.318233    0.120993
     85          1           0        5.430366    2.899741    0.381964
     86          1           0       -5.164085   -1.995278   -1.019067
     87          1           0        4.832583    0.054102   -0.436136
     88          1           0       -4.009006    0.538573    0.426090
     89          1           0        3.234629    3.365973    1.405834
     90          1           0        1.712817    3.284093    0.343358
     91          1           0        3.182522    3.563939   -0.342583
     92          1           0       -2.965355   -2.950856   -0.096723
     93          1           0       -2.920595   -2.370388   -1.787298
     94          1           0       -1.491832   -2.354593   -0.686573
     95          1           0        2.361970   -0.280513   -0.610757
     96          1           0       -1.994666    1.226462   -0.025947
     97          1           0        0.416141    1.996798   -0.033128
     98          1           0        0.109422   -1.042677   -0.327733
 ---------------------------------------------------------------------

 SCF Done:  E(RCAM-B3LYP) =  -1706.97545481     A.U. after   14 cycles

 Excitation energies and oscillator strengths:

 Excited State   1:      Singlet-A      2.9799 eV  416.07 nm  f=3.6238  <S**2>=0.000
     155 ->158        -0.18246
     156 ->157         0.67728
 This state for optimization and/or second-order correction.
 Total Energy, E(TD-HF/TD-DFT) =  -1706.86594656
 Copying the excited state density for this state as the 1-particle RhoCI density.

 The electronic state is 1-A.
 Alpha  occ. eigenvalues --  -19.21874 -19.21481 -10.29881 -10.29827 -10.28161
 Alpha  occ. eigenvalues --  -10.27510 -10.27216 -10.27157 -10.26886 -10.26792
 Alpha  occ. eigenvalues --  -10.26587 -10.26586 -10.26558 -10.26498 -10.26456
 Alpha  occ. eigenvalues --  -10.26429 -10.26318 -10.26084 -10.26029 -10.25931
 Alpha  occ. eigenvalues --  -10.25829 -10.25824 -10.25813 -10.25648 -10.25636
 Alpha  occ. eigenvalues --  -10.25609 -10.25575 -10.25482 -10.25192 -10.25151
 Alpha  occ. eigenvalues --  -10.25137 -10.25029 -10.25005 -10.24950 -10.24762
 Alpha  occ. eigenvalues --  -10.24634 -10.24169 -10.24123 -10.23552 -10.22981
 Alpha  occ. eigenvalues --  -10.22838 -10.21455  -1.13758  -1.07988  -0.94050
 Alpha  occ. eigenvalues --   -0.93148  -0.92303  -0.92116  -0.90903  -0.90264
 Alpha  occ. eigenvalues --   -0.87661  -0.87188  -0.86283  -0.84869  -0.84240
 Alpha  occ. eigenvalues --   -0.82936  -0.81954  -0.80534  -0.80114  -0.78390
 Alpha  occ. eigenvalues --   -0.77303  -0.77227  -0.77052  -0.76543  -0.76200
 Alpha  occ. eigenvalues --   -0.75746  -0.75504  -0.75079  -0.74504  -0.70957
 Alpha  occ. eigenvalues --   -0.69651  -0.67172  -0.66277  -0.65450  -0.65017
 Alpha  occ. eigenvalues --   -0.64041  -0.62927  -0.61897  -0.61036  -0.60347
 Alpha  occ. eigenvalues --   -0.59167  -0.58961  -0.57821  -0.57363  -0.56177
 Alpha  occ. eigenvalues --   -0.56057  -0.55447  -0.55136  -0.54689  -0.54119
 Alpha  occ. eigenvalues --   -0.53038  -0.52673  -0.52193  -0.51395  -0.51193
 Alpha  occ. eigenvalues --   -0.50869  -0.50379  -0.50252  -0.49881  -0.49699
 Alpha  occ. eigenvalues --   -0.49438  -0.49319  -0.48998  -0.48787  -0.48507
 Alpha  occ. eigenvalues --   -0.47762  -0.47535  -0.47470  -0.47255  -0.46681
 Alpha  occ. eigenvalues --   -0.46657  -0.46437  -0.45818  -0.45674  -0.45446
 Alpha  occ. eigenvalues --   -0.45209  -0.45028  -0.44357  -0.43864  -0.43375
 Alpha  occ. eigenvalues --   -0.43024  -0.42680  -0.42649  -0.42152  -0.41714
 Alpha  occ. eigenvalues --   -0.41383  -0.41164  -0.40968  -0.40773  -0.40658
 Alpha  occ. eigenvalues --   -0.40468  -0.40071  -0.39762  -0.39167  -0.38856
 Alpha  occ. eigenvalues --   -0.38818  -0.38550  -0.38449  -0.38144  -0.38021
 Alpha  occ. eigenvalues --   -0.37558  -0.36803  -0.36253  -0.35640  -0.35551
 Alpha  occ. eigenvalues --   -0.34048  -0.33362  -0.33023  -0.32503  -0.32129
 Alpha  occ. eigenvalues --   -0.31957  -0.30520  -0.28781  -0.26850  -0.24394
 Alpha  occ. eigenvalues --   -0.21342
 Alpha virt. eigenvalues --   -0.03622   0.00230   0.03429   0.06506   0.09172
 Alpha virt. eigenvalues --    0.10425   0.11495   0.11681   0.11770   0.12916
 Alpha virt. eigenvalues --    0.13186   0.13593   0.13734   0.13982   0.14381

 Mulliken charges:
               1
     1  O   -0.532120
     2  O   -0.564496
     3  C   -0.031253
     4  C    0.025029
     5  C   -0.186850
     6  C   -0.205167
     7  C    0.205063
     8  C    0.169790
     9  C    0.057099
    10  C    0.040699
    11  C   -0.241231
    12  C   -0.209864
    13  C    0.048229
    14  C    0.034943
    15  C   -0.269528
    16  C   -0.280898
    17  C   -0.299318
    18  C   -0.323694
    19  C   -0.108065
    20  C   -0.142417
    21  C   -0.354599
    22  C   -0.352490
    23  C   -0.091601
    24  C   -0.114596
    25  C    0.107186
    26  C    0.094641
    27  C   -0.359035
    28  C   -0.364549
    29  C   -0.139908
    30  C   -0.087078
    31  C   -0.077088
    32  C   -0.119831
    33  C   -0.106018
    34  C   -0.114701
    35  C    0.102746
    36  C    0.101031
    37  C   -0.371427
    38  C   -0.353747
    39  C   -0.138468
    40  C   -0.127657
    41  C   -0.082200
    42  C   -0.074271
    43  H    0.096496
    44  H    0.059423
    45  H    0.072319
    46  H    0.102391
    47  H    0.065521
    48  H    0.081365
    49  H    0.101350
    50  H    0.096024
    51  H    0.109615
    52  H    0.094176
    53  H    0.100688
    54  H    0.108206
    55  H    0.083284
    56  H    0.085710
    57  H    0.114800
    58  H    0.070887
    59  H    0.095531
    60  H    0.113254
    61  H    0.077033
    62  H    0.111986
    63  H    0.103702
    64  H    0.102344
    65  H    0.079989
    66  H    0.088171
    67  H    0.097998
    68  H    0.108546
    69  H    0.117786
    70  H    0.107750
    71  H    0.118073
    72  H    0.120571
    73  H    0.302007
    74  H    0.303824
    75  H    0.081120
    76  H    0.081797
    77  H    0.119764
    78  H    0.115795
    79  H    0.131668
    80  H    0.130069
    81  H    0.116099
    82  H    0.108274
    83  H    0.068470
    84  H    0.078728
    85  H    0.060507
    86  H    0.073886
    87  H    0.058683
    88  H    0.080407
    89  H    0.135017
    90  H    0.081695
    91  H    0.134528
    92  H    0.115615
    93  H    0.130653
    94  H    0.109109
    95  H    0.082248
    96  H    0.083814
    97  H    0.082295
    98  H    0.086641
 Sum of Mulliken charges =  -0.00000

 Dipole moment (field-independent basis, Debye):
    X=              1.3436    Y=             -2.0284    Z=              1.2134  Tot=              2.7188
 Quadrupole moment (field-independent basis, Debye-Ang):
   XX=           -249.7080   YY=           -243.4702   ZZ=           -259.1002
   XY=              9.3340   XZ=              2.5586   YZ=              0.4989

 Normal termination of Gaussian 16 at Fri Jul  5 04:12:28 2019.
