 Gaussian 16, Revision A.03,
 Gaussian 16:  ES64L-G16RevA.03 25-Dec-2016

 -------------------------------------
 # td=(NStates=1) CAM-B3LYP/6-31G(d,p)
 -------------------------------------

 --
 TD
 --
 Symbolic Z-matrix:
 Charge =  0 Multiplicity = 1

                         Standard orientation:
 ---------------------------------------------------------------------
 Center     Atomic      Atomic             Coordinates (Angstroms)
 Number     Number       Type             X           Y           Z
 ---------------------------------------------------------------------
      1          8           0       14.809845   -2.254517   -0.488865
      2          8           0      -14.771149    2.101953    0.650543
      3          6           0       11.509798   -1.070241    1.128960
      4          6           0      -12.329260   -0.843412    0.766719
      5          6           0       13.063424   -1.277320    1.017767
      6          6           0      -13.710709   -0.139995    0.905306
      7          6           0       13.418397   -1.816019   -0.398123
      8          6           0      -13.567087    1.357779    0.645609
      9          6           0       11.012463   -0.260133   -0.009368
     10          6           0      -11.364822   -0.309019   -0.285903
     11          6           0       13.050728   -0.725837   -1.381321
     12          6           0      -12.889108    1.624858   -0.748650
     13          6           0       11.666889   -0.199989   -1.261830
     14          6           0      -11.591998    0.843329   -0.835794
     15          6           0       11.371781   -0.262408    2.462192
     16          6           0       10.744731   -2.400385    1.290369
     17          6           0      -11.695165   -0.815008    2.168425
     18          6           0      -12.546756   -2.424366    0.486696
     19          6           0        9.722205    0.389164    0.152887
     20          6           0       -9.999365   -1.046593   -0.352700
     21          6           0       11.249718    0.610379   -2.509789
     22          6           0      -10.671759    1.453988   -1.863630
     23          6           0        9.390963    1.667846   -0.168848
     24          6           0       -8.857152   -0.516053   -0.284230
     25          6           0        8.029778    2.210054    0.171208
     26          6           0       -7.558649   -1.243656   -0.552199
     27          6           0        8.016700    3.682292    0.476485
     28          6           0       -7.757127   -2.742177   -0.836080
     29          6           0        6.858187    1.464797    0.093861
     30          6           0       -6.479619   -0.528233   -0.412820
     31          6           0        5.527742    1.970875    0.375425
     32          6           0       -5.098073   -1.107980   -0.473719
     33          6           0        4.405117    1.217452    0.124638
     34          6           0       -3.973015   -0.297075   -0.343829
     35          6           0        3.023198    1.503200    0.396903
     36          6           0       -2.625396   -0.898575   -0.374029
     37          6           0        2.758148    2.978295    0.513948
     38          6           0       -2.375599   -2.239698   -0.689853
     39          6           0        2.111347    0.535656    0.165726
     40          6           0       -1.686954    0.094326   -0.199981
     41          6           0        0.640947    0.797408    0.036388
     42          6           0       -0.268203   -0.135724   -0.120407
     43          1           0       13.583547   -0.330487    1.268861
     44          1           0       13.120984   -2.061499    1.844594
     45          1           0      -14.247956   -0.247678    1.887175
     46          1           0      -14.436776   -0.444238   -0.086941
     47          1           0       12.701420   -2.730860   -0.468845
     48          1           0      -12.710194    1.700305    1.342234
     49          1           0       13.866660   -0.046867   -1.384250
     50          1           0       13.048044   -1.265286   -2.385340
     51          1           0      -13.575556    1.421316   -1.543460
     52          1           0      -12.679104    2.672326   -0.813028
     53          1           0       11.749780   -0.702356    3.136428
     54          1           0       10.272189    0.010653    2.513561
     55          1           0       12.025884    0.691839    2.341979
     56          1           0       10.761570   -2.863039    0.390148
     57          1           0       11.023723   -3.092915    2.118250
     58          1           0        9.541661   -2.220747    1.562870
     59          1           0      -11.618722    0.118934    2.626732
     60          1           0      -10.865144   -1.341903    2.162249
     61          1           0      -12.390525   -1.361636    2.851575
     62          1           0      -13.517407   -2.833987    1.138011
     63          1           0      -11.715990   -3.213209    0.580638
     64          1           0      -13.022488   -2.604041   -0.425812
     65          1           0        8.913985   -0.221148    0.676629
     66          1           0      -10.324669   -2.071741   -0.544170
     67          1           0       10.143072    0.689173   -2.482780
     68          1           0       11.727055    1.537134   -2.559396
     69          1           0       11.453556   -0.088774   -3.399131
     70          1           0      -11.302922    1.818265   -2.699848
     71          1           0       -9.999873    0.829488   -2.354604
     72          1           0      -10.324614    2.328570   -1.471415
     73          1           0       14.967889   -2.922829    0.139563
     74          1           0      -15.313214    1.880100    1.363953
     75          1           0       10.025445    2.381842   -0.764112
     76          1           0       -8.911453    0.492723   -0.095269
     77          1           0        8.624743    4.249369   -0.225712
     78          1           0        7.134816    4.162669    0.534855
     79          1           0        8.576546    3.699842    1.390869
     80          1           0       -8.441787   -3.193107   -0.058993
     81          1           0       -8.523116   -3.001877   -1.637460
     82          1           0       -6.800001   -3.259112   -1.267241
     83          1           0        6.977773    0.530471   -0.315971
     84          1           0       -6.381875    0.492229   -0.298054
     85          1           0        5.266639    2.802874    0.919850
     86          1           0       -4.934664   -2.140204   -0.827982
     87          1           0        4.493267    0.180867   -0.265294
     88          1           0       -4.026692    0.790181   -0.046763
     89          1           0        3.179496    3.229466    1.425424
     90          1           0        1.704794    3.272893    0.457927
     91          1           0        3.443004    3.529408   -0.269560
     92          1           0       -3.040517   -3.131933   -0.097916
     93          1           0       -2.486343   -2.414385   -1.745914
     94          1           0       -1.340556   -2.496331   -0.418174
     95          1           0        2.636327   -0.514404    0.038395
     96          1           0       -1.920343    1.195524   -0.410014
     97          1           0        0.188425    1.735846   -0.097031
     98          1           0        0.231983   -1.018009   -0.204192
 ---------------------------------------------------------------------

 SCF Done:  E(RCAM-B3LYP) =  -1707.00536603     A.U. after   13 cycles

 Excitation energies and oscillator strengths:

 Excited State   1:      Singlet-A      3.0240 eV  410.00 nm  f=3.4044  <S**2>=0.000
     155 ->158        -0.19226
     156 ->157         0.67359
 This state for optimization and/or second-order correction.
 Total Energy, E(TD-HF/TD-DFT) =  -1706.89423463
 Copying the excited state density for this state as the 1-particle RhoCI density.

 The electronic state is 1-A.
 Alpha  occ. eigenvalues --  -19.21304 -19.20660 -10.31240 -10.30795 -10.28147
 Alpha  occ. eigenvalues --  -10.27577 -10.27417 -10.27344 -10.27289 -10.27237
 Alpha  occ. eigenvalues --  -10.27233 -10.27226 -10.27213 -10.26965 -10.26779
 Alpha  occ. eigenvalues --  -10.26724 -10.26649 -10.26594 -10.26374 -10.26369
 Alpha  occ. eigenvalues --  -10.26269 -10.25986 -10.25940 -10.25665 -10.25658
 Alpha  occ. eigenvalues --  -10.25564 -10.25515 -10.25475 -10.25309 -10.25298
 Alpha  occ. eigenvalues --  -10.25285 -10.25252 -10.25123 -10.24905 -10.24822
 Alpha  occ. eigenvalues --  -10.24363 -10.24320 -10.24287 -10.24052 -10.23304
 Alpha  occ. eigenvalues --  -10.23003 -10.22499  -1.10304  -1.08475  -0.93810
 Alpha  occ. eigenvalues --   -0.93345  -0.92379  -0.91465  -0.90546  -0.89760
 Alpha  occ. eigenvalues --   -0.87517  -0.87214  -0.86653  -0.85477  -0.85007
 Alpha  occ. eigenvalues --   -0.82683  -0.82053  -0.80204  -0.79937  -0.78169
 Alpha  occ. eigenvalues --   -0.77342  -0.76824  -0.76626  -0.76568  -0.75798
 Alpha  occ. eigenvalues --   -0.75640  -0.75126  -0.75005  -0.74437  -0.69803
 Alpha  occ. eigenvalues --   -0.68440  -0.67182  -0.65617  -0.64725  -0.64368
 Alpha  occ. eigenvalues --   -0.64047  -0.62814  -0.62478  -0.61003  -0.60123
 Alpha  occ. eigenvalues --   -0.59621  -0.58484  -0.58040  -0.57237  -0.56093
 Alpha  occ. eigenvalues --   -0.55494  -0.55263  -0.54735  -0.54184  -0.54137
 Alpha  occ. eigenvalues --   -0.52910  -0.52776  -0.52317  -0.51765  -0.51277
 Alpha  occ. eigenvalues --   -0.51142  -0.50636  -0.50110  -0.49910  -0.49678
 Alpha  occ. eigenvalues --   -0.49610  -0.48953  -0.48645  -0.48384  -0.48074
 Alpha  occ. eigenvalues --   -0.47969  -0.47634  -0.47228  -0.46775  -0.46372
 Alpha  occ. eigenvalues --   -0.46297  -0.45774  -0.45547  -0.45479  -0.44978
 Alpha  occ. eigenvalues --   -0.44803  -0.44397  -0.44308  -0.43811  -0.43209
 Alpha  occ. eigenvalues --   -0.43058  -0.43028  -0.42670  -0.42550  -0.42261
 Alpha  occ. eigenvalues --   -0.41936  -0.41489  -0.41245  -0.41079  -0.40680
 Alpha  occ. eigenvalues --   -0.40626  -0.40547  -0.40255  -0.40072  -0.39384
 Alpha  occ. eigenvalues --   -0.39195  -0.38802  -0.38440  -0.37971  -0.37764
 Alpha  occ. eigenvalues --   -0.37387  -0.36798  -0.36556  -0.35641  -0.35569
 Alpha  occ. eigenvalues --   -0.35393  -0.34378  -0.33831  -0.32228  -0.32040
 Alpha  occ. eigenvalues --   -0.31217  -0.29767  -0.28149  -0.27018  -0.24214
 Alpha  occ. eigenvalues --   -0.21222
 Alpha virt. eigenvalues --   -0.03151   0.00246   0.03336   0.05719   0.08476
 Alpha virt. eigenvalues --    0.09510   0.10964   0.11704   0.11751   0.12421
 Alpha virt. eigenvalues --    0.12948   0.13011   0.13599   0.13805   0.14054

 Mulliken charges:
               1
     1  O   -0.569825
     2  O   -0.550594
     3  C   -0.062336
     4  C   -0.011161
     5  C   -0.189639
     6  C   -0.182698
     7  C    0.167089
     8  C    0.169125
     9  C    0.092902
    10  C    0.058546
    11  C   -0.207208
    12  C   -0.215037
    13  C    0.019797
    14  C    0.011597
    15  C   -0.252840
    16  C   -0.296764
    17  C   -0.282373
    18  C   -0.325269
    19  C   -0.135492
    20  C   -0.115948
    21  C   -0.351682
    22  C   -0.366423
    23  C   -0.103861
    24  C   -0.072368
    25  C    0.048806
    26  C    0.127274
    27  C   -0.361489
    28  C   -0.379964
    29  C   -0.107705
    30  C   -0.114037
    31  C   -0.080515
    32  C   -0.118186
    33  C   -0.128783
    34  C   -0.112438
    35  C    0.136321
    36  C    0.156025
    37  C   -0.375043
    38  C   -0.390604
    39  C   -0.158466
    40  C   -0.155458
    41  C   -0.100183
    42  C   -0.048703
    43  H    0.100139
    44  H    0.073821
    45  H    0.087389
    46  H    0.065435
    47  H    0.065210
    48  H    0.063260
    49  H    0.129101
    50  H    0.098831
    51  H    0.119621
    52  H    0.110273
    53  H    0.096550
    54  H    0.097571
    55  H    0.080523
    56  H    0.121434
    57  H    0.105181
    58  H    0.073002
    59  H    0.102344
    60  H    0.113305
    61  H    0.087301
    62  H    0.065700
    63  H    0.101109
    64  H    0.115507
    65  H    0.094505
    66  H    0.075247
    67  H    0.122130
    68  H    0.132127
    69  H    0.101202
    70  H    0.097102
    71  H    0.124032
    72  H    0.120564
    73  H    0.304613
    74  H    0.299073
    75  H    0.097121
    76  H    0.085325
    77  H    0.111060
    78  H    0.117805
    79  H    0.127826
    80  H    0.126684
    81  H    0.117984
    82  H    0.106680
    83  H    0.079783
    84  H    0.085321
    85  H    0.080016
    86  H    0.081501
    87  H    0.065272
    88  H    0.086853
    89  H    0.132263
    90  H    0.110800
    91  H    0.112309
    92  H    0.088641
    93  H    0.144153
    94  H    0.122449
    95  H    0.083976
    96  H    0.089969
    97  H    0.071700
    98  H    0.066913
 Sum of Mulliken charges =  -0.00000

 Dipole moment (field-independent basis, Debye):
    X=              0.0069    Y=             -1.0447    Z=              0.9350  Tot=              1.4021
 Quadrupole moment (field-independent basis, Debye-Ang):
   XX=           -276.0037   YY=           -244.3731   ZZ=           -260.3937
   XY=             11.0353   XZ=              2.1884   YZ=              0.1354

 Normal termination of Gaussian 16 at Fri Jul  5 16:05:40 2019.
