 Gaussian 16, Revision A.03,
 Gaussian 16:  ES64L-G16RevA.03 25-Dec-2016

 -------------------------------------
 # td=(NStates=1) CAM-B3LYP/6-31G(d,p)
 -------------------------------------

 --
 TD
 --
 Symbolic Z-matrix:
 Charge =  0 Multiplicity = 1

                         Standard orientation:
 ---------------------------------------------------------------------
 Center     Atomic      Atomic             Coordinates (Angstroms)
 Number     Number       Type             X           Y           Z
 ---------------------------------------------------------------------
      1          8           0       14.793730   -2.218441   -0.566952
      2          8           0      -14.959303    1.806827    0.408231
      3          6           0       11.518513   -1.203198    1.087226
      4          6           0      -12.346205   -0.916101    0.670391
      5          6           0       12.902809   -1.624195    0.927514
      6          6           0      -13.796352   -0.267933    0.629732
      7          6           0       13.363698   -1.956931   -0.528804
      8          6           0      -13.663420    1.323264    0.482986
      9          6           0       10.929939   -0.303153   -0.096668
     10          6           0      -11.389315   -0.311544   -0.263352
     11          6           0       12.944698   -0.847847   -1.503024
     12          6           0      -12.908624    1.665644   -0.773612
     13          6           0       11.630005   -0.149373   -1.227646
     14          6           0      -11.591892    0.866812   -0.902000
     15          6           0       11.252849   -0.510549    2.423493
     16          6           0       10.582501   -2.544924    1.078966
     17          6           0      -11.823183   -0.981654    2.141139
     18          6           0      -12.573650   -2.457995    0.243432
     19          6           0        9.712878    0.228196    0.117331
     20          6           0      -10.013997   -1.012326   -0.250958
     21          6           0       11.193820    0.598247   -2.426988
     22          6           0      -10.546520    1.555637   -1.820043
     23          6           0        9.386578    1.604515   -0.021512
     24          6           0       -8.860219   -0.500903   -0.117837
     25          6           0        8.122557    2.315341    0.244868
     26          6           0       -7.603742   -1.246106   -0.381931
     27          6           0        8.160529    3.658687    0.725091
     28          6           0       -7.689183   -2.751718   -0.659202
     29          6           0        6.893036    1.616649    0.084817
     30          6           0       -6.478172   -0.587015   -0.240371
     31          6           0        5.609728    2.096041    0.238115
     32          6           0       -5.046948   -1.039323   -0.458446
     33          6           0        4.507995    1.310652    0.084177
     34          6           0       -3.978997   -0.425321   -0.275527
     35          6           0        3.164496    1.728351    0.301164
     36          6           0       -2.507021   -0.780198   -0.299482
     37          6           0        2.970856    3.206747    0.671918
     38          6           0       -2.297489   -2.113476   -0.666917
     39          6           0        2.172084    0.857122    0.148266
     40          6           0       -1.658137    0.247141   -0.007524
     41          6           0        0.772086    1.018500    0.175740
     42          6           0       -0.202075    0.077867   -0.051039
     43          1           0       13.570863   -0.694749    1.282254
     44          1           0       13.319097   -2.150449    1.755050
     45          1           0      -14.482777   -0.522898    1.520687
     46          1           0      -14.600337   -0.689819   -0.136758
     47          1           0       12.718489   -2.731964   -0.880987
     48          1           0      -13.013973    1.569670    1.456470
     49          1           0       13.717338    0.041286   -1.407216
     50          1           0       12.912495   -1.254241   -2.508526
     51          1           0      -13.508012    1.508634   -1.756920
     52          1           0      -12.506637    2.706215   -0.720086
     53          1           0       11.790888   -1.056272    2.978505
     54          1           0       10.224745   -0.300615    2.451584
     55          1           0       11.769071    0.398336    2.301804
     56          1           0       10.670172   -3.172135    0.461005
     57          1           0       10.711938   -2.942477    2.137940
     58          1           0        9.390584   -2.497611    1.083302
     59          1           0      -11.710578    0.105792    2.422630
     60          1           0      -10.841100   -1.457455    2.251580
     61          1           0      -12.594259   -1.549941    2.884486
     62          1           0      -13.325410   -2.987181    0.856491
     63          1           0      -11.555085   -3.071037    0.321639
     64          1           0      -12.785021   -2.323125   -0.721439
     65          1           0        8.863987   -0.564027    0.529462
     66          1           0      -10.026394   -2.046020   -0.648640
     67          1           0       10.148933    1.037360   -2.301335
     68          1           0       11.896265    1.530137   -2.722498
     69          1           0       11.218482   -0.050871   -3.271245
     70          1           0      -10.929146    1.803580   -2.781529
     71          1           0       -9.914240    0.754198   -1.918267
     72          1           0      -10.102497    2.493725   -1.464296
     73          1           0       14.842400   -3.036176   -0.037848
     74          1           0      -15.365636    1.685431    1.220346
     75          1           0       10.219161    2.227526   -0.297398
     76          1           0       -8.711350    0.528672    0.171192
     77          1           0        8.554520    4.563619   -0.277000
     78          1           0        7.137696    4.093957    0.807047
     79          1           0        8.916849    3.698898    1.498774
     80          1           0       -8.246634   -3.175915    0.109064
     81          1           0       -8.156049   -2.829097   -1.608231
     82          1           0       -6.751067   -3.204747   -0.789208
     83          1           0        6.924727    0.715322   -0.455068
     84          1           0       -6.563327    0.473374    0.254861
     85          1           0        5.264706    3.087619    0.513879
     86          1           0       -5.097498   -2.056803   -0.854438
     87          1           0        4.505579    0.308044   -0.196974
     88          1           0       -4.338350    0.609279    0.203987
     89          1           0        3.205410    3.528078    1.678566
     90          1           0        1.926145    3.414911    0.694153
     91          1           0        3.354261    3.798569   -0.047663
     92          1           0       -2.766321   -2.898576    0.271797
     93          1           0       -2.976399   -2.284141   -1.474666
     94          1           0       -1.272693   -2.415193   -0.907481
     95          1           0        2.373036   -0.230309    0.128077
     96          1           0       -2.130700    1.103574    0.339342
     97          1           0        0.346410    2.047764    0.276499
     98          1           0        0.202734   -1.008591   -0.427890
 ---------------------------------------------------------------------

 SCF Done:  E(RCAM-B3LYP) =  -1706.92833626     A.U. after   15 cycles

 Excitation energies and oscillator strengths:

 Excited State   1:      Singlet-A      2.7018 eV  458.90 nm  f=3.0172  <S**2>=0.000
     155 ->158         0.14856
     156 ->157         0.68702
 This state for optimization and/or second-order correction.
 Total Energy, E(TD-HF/TD-DFT) =  -1706.82904859
 Copying the excited state density for this state as the 1-particle RhoCI density.

 The electronic state is 1-A.
 Alpha  occ. eigenvalues --  -19.22263 -19.21158 -10.31624 -10.31250 -10.27951
 Alpha  occ. eigenvalues --  -10.27921 -10.27737 -10.27733 -10.27552 -10.27403
 Alpha  occ. eigenvalues --  -10.27150 -10.27036 -10.26897 -10.26831 -10.26758
 Alpha  occ. eigenvalues --  -10.26536 -10.26432 -10.26413 -10.26413 -10.26314
 Alpha  occ. eigenvalues --  -10.26215 -10.26186 -10.26164 -10.26121 -10.25927
 Alpha  occ. eigenvalues --  -10.25823 -10.25793 -10.25683 -10.25534 -10.25476
 Alpha  occ. eigenvalues --  -10.25395 -10.25308 -10.25296 -10.25145 -10.25051
 Alpha  occ. eigenvalues --  -10.24843 -10.24690 -10.24269 -10.24262 -10.23987
 Alpha  occ. eigenvalues --  -10.23857 -10.22185  -1.11708  -1.09178  -0.94264
 Alpha  occ. eigenvalues --   -0.93181  -0.92570  -0.92182  -0.90789  -0.90195
 Alpha  occ. eigenvalues --   -0.88270  -0.87279  -0.86085  -0.85845  -0.85237
 Alpha  occ. eigenvalues --   -0.83643  -0.82621  -0.80393  -0.80250  -0.79338
 Alpha  occ. eigenvalues --   -0.77973  -0.77678  -0.77114  -0.76131  -0.75878
 Alpha  occ. eigenvalues --   -0.75838  -0.75086  -0.74213  -0.74111  -0.70000
 Alpha  occ. eigenvalues --   -0.68840  -0.67536  -0.65767  -0.64994  -0.64108
 Alpha  occ. eigenvalues --   -0.63690  -0.62667  -0.60847  -0.60491  -0.59964
 Alpha  occ. eigenvalues --   -0.59435  -0.58953  -0.58635  -0.58392  -0.56638
 Alpha  occ. eigenvalues --   -0.56322  -0.55439  -0.54948  -0.54265  -0.53830
 Alpha  occ. eigenvalues --   -0.53444  -0.53092  -0.52496  -0.51478  -0.51165
 Alpha  occ. eigenvalues --   -0.50585  -0.50514  -0.50431  -0.50127  -0.49837
 Alpha  occ. eigenvalues --   -0.49634  -0.49276  -0.49076  -0.48739  -0.48218
 Alpha  occ. eigenvalues --   -0.48013  -0.47781  -0.47750  -0.47162  -0.47073
 Alpha  occ. eigenvalues --   -0.46482  -0.45711  -0.45615  -0.45254  -0.45043
 Alpha  occ. eigenvalues --   -0.44937  -0.44581  -0.43813  -0.43542  -0.43285
 Alpha  occ. eigenvalues --   -0.43056  -0.42912  -0.42720  -0.42362  -0.42211
 Alpha  occ. eigenvalues --   -0.42147  -0.41686  -0.41194  -0.40825  -0.40595
 Alpha  occ. eigenvalues --   -0.40365  -0.40173  -0.40091  -0.39799  -0.39627
 Alpha  occ. eigenvalues --   -0.39155  -0.39113  -0.38326  -0.38067  -0.37564
 Alpha  occ. eigenvalues --   -0.37371  -0.37244  -0.36808  -0.36154  -0.35936
 Alpha  occ. eigenvalues --   -0.35874  -0.34907  -0.33339  -0.33007  -0.31742
 Alpha  occ. eigenvalues --   -0.30669  -0.29334  -0.28326  -0.26893  -0.24860
 Alpha  occ. eigenvalues --   -0.20590
 Alpha virt. eigenvalues --   -0.04238   0.00257   0.03108   0.05652   0.07565
 Alpha virt. eigenvalues --    0.09049   0.09469   0.11888   0.12113   0.12534
 Alpha virt. eigenvalues --    0.12765   0.13025   0.13073   0.13675   0.13883

 Mulliken charges:
               1
     1  O   -0.549876
     2  O   -0.533738
     3  C   -0.025239
     4  C   -0.026729
     5  C   -0.217897
     6  C   -0.200769
     7  C    0.161256
     8  C    0.172728
     9  C    0.111578
    10  C    0.074395
    11  C   -0.221535
    12  C   -0.195129
    13  C    0.050218
    14  C    0.001952
    15  C   -0.275694
    16  C   -0.287711
    17  C   -0.280885
    18  C   -0.295640
    19  C   -0.148792
    20  C   -0.166733
    21  C   -0.361884
    22  C   -0.358766
    23  C   -0.141564
    24  C   -0.051362
    25  C    0.106292
    26  C    0.097738
    27  C   -0.344754
    28  C   -0.368103
    29  C   -0.115602
    30  C   -0.151708
    31  C   -0.081428
    32  C   -0.081941
    33  C   -0.096191
    34  C   -0.112975
    35  C    0.121391
    36  C    0.161568
    37  C   -0.390358
    38  C   -0.372971
    39  C   -0.147235
    40  C   -0.108407
    41  C   -0.079581
    42  C   -0.108781
    43  H    0.076883
    44  H    0.098005
    45  H    0.067866
    46  H    0.085813
    47  H    0.092431
    48  H    0.065496
    49  H    0.110098
    50  H    0.109867
    51  H    0.116193
    52  H    0.106181
    53  H    0.099975
    54  H    0.121309
    55  H    0.105264
    56  H    0.101895
    57  H    0.083651
    58  H    0.071526
    59  H    0.088033
    60  H    0.112311
    61  H    0.080479
    62  H    0.098883
    63  H    0.073143
    64  H    0.116930
    65  H    0.086777
    66  H    0.089976
    67  H    0.115508
    68  H    0.094522
    69  H    0.113941
    70  H    0.111582
    71  H    0.127743
    72  H    0.112727
    73  H    0.311790
    74  H    0.300617
    75  H    0.093003
    76  H    0.087744
    77  H    0.040907
    78  H    0.127363
    79  H    0.132615
    80  H    0.134595
    81  H    0.127903
    82  H    0.113789
    83  H    0.089261
    84  H    0.063719
    85  H    0.083059
    86  H    0.057786
    87  H    0.066724
    88  H    0.057835
    89  H    0.128981
    90  H    0.106993
    91  H    0.133432
    92  H    0.087561
    93  H    0.134848
    94  H    0.114371
    95  H    0.078513
    96  H    0.090086
    97  H    0.076693
    98  H    0.065665
 Sum of Mulliken charges =  -0.00000

 Dipole moment (field-independent basis, Debye):
    X=             -0.1261    Y=             -1.5772    Z=              1.4638  Tot=              2.1555
 Quadrupole moment (field-independent basis, Debye-Ang):
   XX=           -280.5445   YY=           -243.6589   ZZ=           -260.4973
   XY=             -4.0762   XZ=             -3.4520   YZ=              3.3023

 Normal termination of Gaussian 16 at Wed Jul  3 15:40:06 2019.
