 Gaussian 16, Revision A.03,
 Gaussian 16:  ES64L-G16RevA.03 25-Dec-2016

 -------------------------------------
 # td=(NStates=1) CAM-B3LYP/6-31G(d,p)
 -------------------------------------

 --
 TD
 --
 Symbolic Z-matrix:
 Charge =  0 Multiplicity = 1

                         Standard orientation:
 ---------------------------------------------------------------------
 Center     Atomic      Atomic             Coordinates (Angstroms)
 Number     Number       Type             X           Y           Z
 ---------------------------------------------------------------------
      1          8           0       14.828601   -2.233146   -0.280657
      2          8           0      -14.931312    2.070914    0.654166
      3          6           0       11.471740   -0.976769    1.115750
      4          6           0      -12.414371   -0.856932    0.616277
      5          6           0       12.905018   -1.425056    1.075543
      6          6           0      -13.828032   -0.130485    0.680874
      7          6           0       13.429602   -1.907420   -0.281531
      8          6           0      -13.574199    1.351227    0.692473
      9          6           0       11.016663   -0.351733   -0.161258
     10          6           0      -11.271559   -0.244586   -0.191570
     11          6           0       13.173445   -0.844163   -1.294652
     12          6           0      -12.827371    1.800762   -0.562055
     13          6           0       11.799185   -0.225197   -1.256820
     14          6           0      -11.557128    0.936454   -0.817097
     15          6           0       11.256841   -0.146015    2.367472
     16          6           0       10.457429   -2.351687    1.285992
     17          6           0      -12.028626   -0.893866    2.153583
     18          6           0      -12.644276   -2.285319    0.222931
     19          6           0        9.716267    0.326605   -0.031237
     20          6           0      -10.100964   -1.004650   -0.453635
     21          6           0       11.386073    0.699877   -2.514071
     22          6           0      -10.583949    1.470718   -1.855491
     23          6           0        9.379952    1.650408   -0.234545
     24          6           0       -8.883890   -0.539743   -0.214780
     25          6           0        8.052141    2.214528    0.080422
     26          6           0       -7.561010   -1.269991   -0.396036
     27          6           0        8.218860    3.709253    0.348331
     28          6           0       -7.786727   -2.716108   -0.907526
     29          6           0        6.924512    1.518923   -0.064201
     30          6           0       -6.412157   -0.672744   -0.323632
     31          6           0        5.532646    1.987731    0.240172
     32          6           0       -5.083014   -1.233545   -0.462826
     33          6           0        4.496170    1.207083    0.209756
     34          6           0       -3.942996   -0.460479   -0.137088
     35          6           0        3.125896    1.591227    0.293378
     36          6           0       -2.645403   -0.897316   -0.322713
     37          6           0        2.806605    2.990126    0.734235
     38          6           0       -2.306741   -2.332165   -0.691801
     39          6           0        2.101975    0.612015    0.089340
     40          6           0       -1.609390   -0.020399   -0.178169
     41          6           0        0.705253    0.809856    0.056552
     42          6           0       -0.215504   -0.161614   -0.183330
     43          1           0       13.472984   -0.706860    1.444793
     44          1           0       13.124841   -2.283355    1.687965
     45          1           0      -14.369491   -0.587455    1.436352
     46          1           0      -14.384129   -0.333866   -0.087978
     47          1           0       12.809869   -2.808815   -0.524285
     48          1           0      -12.986601    1.577333    1.512186
     49          1           0       13.823247   -0.041618   -1.076699
     50          1           0       13.093768   -1.174140   -2.248173
     51          1           0      -13.536024    1.837640   -1.428374
     52          1           0      -12.480002    2.983198   -0.277462
     53          1           0       11.665846   -0.813807    3.137156
     54          1           0       10.168188   -0.018900    2.652222
     55          1           0       11.917437    0.888154    2.476355
     56          1           0       10.627412   -3.001628    0.478286
     57          1           0       10.752379   -2.865092    2.384120
     58          1           0        9.454745   -2.233730    1.246636
     59          1           0      -11.747243    0.045433    2.611713
     60          1           0      -11.140637   -1.354800    2.422275
     61          1           0      -12.888351   -1.308309    2.648202
     62          1           0      -13.315586   -2.722152    0.751056
     63          1           0      -11.650393   -3.003482    0.313152
     64          1           0      -12.870723   -2.481606   -0.885458
     65          1           0        8.909930    0.033587    0.544252
     66          1           0      -10.076058   -1.938134   -0.846023
     67          1           0       10.462115    1.325451   -2.443180
     68          1           0       12.174421    1.547965   -2.687373
     69          1           0       11.379549   -0.061391   -3.330914
     70          1           0      -11.355960    1.987291   -2.698311
     71          1           0       -9.880789    0.756131   -2.169334
     72          1           0      -10.153812    2.309968   -1.527920
     73          1           0       14.792702   -3.058977    0.279477
     74          1           0      -15.597891    1.597950    1.393958
     75          1           0       10.218049    2.464232   -0.379655
     76          1           0       -8.473417    0.455712   -0.109928
     77          1           0        8.674302    4.184739   -0.581366
     78          1           0        7.327945    4.187725    0.887424
     79          1           0        9.290798    3.979990    0.980194
     80          1           0       -8.600344   -3.128752    0.032279
     81          1           0       -8.253250   -2.626768   -1.753750
     82          1           0       -7.022494   -3.368588   -1.004294
     83          1           0        7.006464    0.539307   -0.589250
     84          1           0       -6.559290    0.547144   -0.279469
     85          1           0        5.449380    2.913873    0.445406
     86          1           0       -5.204187   -2.305688   -0.518870
     87          1           0        4.692821    0.224035   -0.011337
     88          1           0       -4.200365    0.399476    0.324226
     89          1           0        3.304564    2.933827    1.734352
     90          1           0        1.668735    3.129022    0.966743
     91          1           0        3.203813    3.823458    0.089031
     92          1           0       -2.729786   -3.035785   -0.032816
     93          1           0       -2.877606   -2.483267   -1.532087
     94          1           0       -1.319156   -2.458191   -0.868140
     95          1           0        2.468658   -0.439422   -0.198963
     96          1           0       -1.962186    1.080448    0.225487
     97          1           0        0.166901    1.832524    0.058151
     98          1           0        0.281808   -1.216045   -0.422218
 ---------------------------------------------------------------------

 SCF Done:  E(RCAM-B3LYP) =  -1706.89277039     A.U. after   14 cycles

 Excitation energies and oscillator strengths:

 Excited State   1:      Singlet-A      2.5975 eV  477.32 nm  f=3.6686  <S**2>=0.000
     155 ->158        -0.14745
     156 ->157         0.68891
 This state for optimization and/or second-order correction.
 Total Energy, E(TD-HF/TD-DFT) =  -1706.79731289
 Copying the excited state density for this state as the 1-particle RhoCI density.

 The electronic state is 1-A.
 Alpha  occ. eigenvalues --  -19.22292 -19.21283 -10.30661 -10.29917 -10.28600
 Alpha  occ. eigenvalues --  -10.28331 -10.28100 -10.27569 -10.27525 -10.27423
 Alpha  occ. eigenvalues --  -10.27331 -10.27100 -10.27082 -10.27062 -10.27004
 Alpha  occ. eigenvalues --  -10.26952 -10.26917 -10.26880 -10.26875 -10.26868
 Alpha  occ. eigenvalues --  -10.26845 -10.26715 -10.26473 -10.26341 -10.26172
 Alpha  occ. eigenvalues --  -10.26073 -10.26040 -10.25714 -10.25656 -10.25565
 Alpha  occ. eigenvalues --  -10.25550 -10.25544 -10.25166 -10.24792 -10.24656
 Alpha  occ. eigenvalues --  -10.24595 -10.24415 -10.23976 -10.23678 -10.23505
 Alpha  occ. eigenvalues --  -10.23425 -10.23268  -1.09505  -1.03565  -0.93887
 Alpha  occ. eigenvalues --   -0.93674  -0.92466  -0.92071  -0.90863  -0.90139
 Alpha  occ. eigenvalues --   -0.87961  -0.87056  -0.86773  -0.85615  -0.85086
 Alpha  occ. eigenvalues --   -0.83466  -0.82435  -0.80469  -0.79515  -0.78613
 Alpha  occ. eigenvalues --   -0.77762  -0.76568  -0.76485  -0.76482  -0.76088
 Alpha  occ. eigenvalues --   -0.75803  -0.75584  -0.75289  -0.74283  -0.71375
 Alpha  occ. eigenvalues --   -0.68749  -0.67553  -0.66510  -0.65092  -0.64445
 Alpha  occ. eigenvalues --   -0.64049  -0.63893  -0.62291  -0.61010  -0.59919
 Alpha  occ. eigenvalues --   -0.59845  -0.59214  -0.58761  -0.57198  -0.56050
 Alpha  occ. eigenvalues --   -0.55646  -0.54953  -0.54745  -0.54350  -0.53959
 Alpha  occ. eigenvalues --   -0.53389  -0.52864  -0.51856  -0.51599  -0.51270
 Alpha  occ. eigenvalues --   -0.50816  -0.50455  -0.50089  -0.49923  -0.49277
 Alpha  occ. eigenvalues --   -0.48924  -0.48850  -0.48680  -0.48547  -0.48203
 Alpha  occ. eigenvalues --   -0.47946  -0.47721  -0.47271  -0.46970  -0.46866
 Alpha  occ. eigenvalues --   -0.46390  -0.46169  -0.45668  -0.44827  -0.44722
 Alpha  occ. eigenvalues --   -0.44370  -0.44104  -0.43908  -0.43670  -0.43531
 Alpha  occ. eigenvalues --   -0.43350  -0.43096  -0.42988  -0.42893  -0.42108
 Alpha  occ. eigenvalues --   -0.41762  -0.41715  -0.41625  -0.41255  -0.41013
 Alpha  occ. eigenvalues --   -0.40862  -0.40085  -0.39675  -0.39516  -0.39426
 Alpha  occ. eigenvalues --   -0.39102  -0.39013  -0.38571  -0.38512  -0.38149
 Alpha  occ. eigenvalues --   -0.37974  -0.37512  -0.36956  -0.36643  -0.36216
 Alpha  occ. eigenvalues --   -0.35577  -0.34397  -0.33455  -0.32718  -0.32156
 Alpha  occ. eigenvalues --   -0.31709  -0.29745  -0.27954  -0.26422  -0.24634
 Alpha  occ. eigenvalues --   -0.20511
 Alpha virt. eigenvalues --   -0.04973  -0.00098   0.02667   0.05579   0.08163
 Alpha virt. eigenvalues --    0.09309   0.10197   0.10364   0.11216   0.11403
 Alpha virt. eigenvalues --    0.11729   0.12387   0.12764   0.12879   0.13256

 Mulliken charges:
               1
     1  O   -0.547880
     2  O   -0.590019
     3  C   -0.007425
     4  C   -0.053735
     5  C   -0.181831
     6  C   -0.167702
     7  C    0.128132
     8  C    0.168076
     9  C    0.101444
    10  C    0.091175
    11  C   -0.176630
    12  C   -0.212871
    13  C   -0.028963
    14  C    0.039984
    15  C   -0.291584
    16  C   -0.320504
    17  C   -0.305075
    18  C   -0.285988
    19  C   -0.128030
    20  C   -0.159176
    21  C   -0.344340
    22  C   -0.340051
    23  C   -0.121380
    24  C   -0.055879
    25  C    0.116675
    26  C    0.086329
    27  C   -0.373910
    28  C   -0.346907
    29  C   -0.148274
    30  C   -0.142448
    31  C   -0.049541
    32  C   -0.109781
    33  C   -0.082195
    34  C   -0.102432
    35  C    0.101435
    36  C    0.113114
    37  C   -0.374468
    38  C   -0.355384
    39  C   -0.146483
    40  C   -0.141232
    41  C   -0.074251
    42  C   -0.077699
    43  H    0.112253
    44  H    0.076793
    45  H    0.086987
    46  H    0.103327
    47  H    0.073917
    48  H    0.102282
    49  H    0.128129
    50  H    0.109353
    51  H    0.127666
    52  H    0.085655
    53  H    0.104357
    54  H    0.107247
    55  H    0.083181
    56  H    0.108277
    57  H    0.065960
    58  H    0.119596
    59  H    0.098623
    60  H    0.106427
    61  H    0.094274
    62  H    0.104437
    63  H    0.069744
    64  H    0.093051
    65  H    0.090213
    66  H    0.101468
    67  H    0.127471
    68  H    0.101163
    69  H    0.111180
    70  H    0.068011
    71  H    0.121611
    72  H    0.128896
    73  H    0.309762
    74  H    0.297148
    75  H    0.075158
    76  H    0.073679
    77  H    0.133297
    78  H    0.114419
    79  H    0.082613
    80  H    0.073327
    81  H    0.143073
    82  H    0.107761
    83  H    0.092619
    84  H    0.058172
    85  H    0.053586
    86  H    0.088898
    87  H    0.069327
    88  H    0.094142
    89  H    0.127663
    90  H    0.106661
    91  H    0.122510
    92  H    0.122884
    93  H    0.127348
    94  H    0.112675
    95  H    0.082469
    96  H    0.058675
    97  H    0.086937
    98  H    0.071347
 Sum of Mulliken charges =  -0.00000

 Dipole moment (field-independent basis, Debye):
    X=              1.0651    Y=             -1.8831    Z=              1.3693  Tot=              2.5603
 Quadrupole moment (field-independent basis, Debye-Ang):
   XX=           -282.2941   YY=           -245.9889   ZZ=           -261.8717
   XY=             21.6268   XZ=             -1.1881   YZ=              1.3988

 Normal termination of Gaussian 16 at Sat Jul  6 20:11:54 2019.
