 Gaussian 16, Revision A.03,
 Gaussian 16:  ES64L-G16RevA.03 25-Dec-2016

 -------------------------------------
 # td=(NStates=1) CAM-B3LYP/6-31G(d,p)
 -------------------------------------

 --
 TD
 --
 Symbolic Z-matrix:
 Charge =  0 Multiplicity = 1

                         Standard orientation:
 ---------------------------------------------------------------------
 Center     Atomic      Atomic             Coordinates (Angstroms)
 Number     Number       Type             X           Y           Z
 ---------------------------------------------------------------------
      1          8           0       14.996939   -1.860950   -0.268101
      2          8           0      -14.890669    1.818757    0.793859
      3          6           0       11.436674   -1.299076    1.055218
      4          6           0      -12.367892   -0.998504    0.811748
      5          6           0       12.912854   -1.564690    1.127676
      6          6           0      -13.712457   -0.308610    0.647895
      7          6           0       13.551625   -1.759984   -0.351240
      8          6           0      -13.657430    1.119090    0.709195
      9          6           0       11.036985   -0.391124   -0.084690
     10          6           0      -11.306095   -0.304037   -0.123851
     11          6           0       13.283861   -0.609056   -1.197512
     12          6           0      -12.782911    1.692849   -0.454790
     13          6           0       11.821785   -0.064791   -1.110876
     14          6           0      -11.532464    0.882223   -0.696618
     15          6           0       10.997237   -0.777387    2.438427
     16          6           0       10.628495   -2.567898    1.004208
     17          6           0      -11.900072   -0.917222    2.270778
     18          6           0      -12.579159   -2.522528    0.422043
     19          6           0        9.638666    0.229878    0.046767
     20          6           0      -10.062383   -1.037227   -0.409162
     21          6           0       11.407942    0.755917   -2.263385
     22          6           0      -10.596583    1.646274   -1.625024
     23          6           0        9.329232    1.495089    0.290105
     24          6           0       -8.950162   -0.446382   -0.293389
     25          6           0        7.995497    2.119228    0.330993
     26          6           0       -7.622193   -1.212587   -0.493877
     27          6           0        8.143016    3.540580    0.880235
     28          6           0       -7.804681   -2.702180   -0.892845
     29          6           0        6.864571    1.480128    0.000257
     30          6           0       -6.438261   -0.470364   -0.270729
     31          6           0        5.500806    2.000735    0.202611
     32          6           0       -5.147205   -0.897359   -0.545363
     33          6           0        4.494737    1.218028   -0.058438
     34          6           0       -4.040711   -0.222646   -0.302278
     35          6           0        3.077478    1.660800   -0.032066
     36          6           0       -2.647332   -0.631479   -0.573044
     37          6           0        2.779414    3.032195    0.510549
     38          6           0       -2.409837   -2.024463   -1.219194
     39          6           0        2.113689    0.748155   -0.269080
     40          6           0       -1.622072    0.228997   -0.371155
     41          6           0        0.716978    1.003842   -0.209882
     42          6           0       -0.205881    0.085184   -0.495451
     43          1           0       13.412694   -0.695357    1.615253
     44          1           0       12.988535   -2.572703    1.752468
     45          1           0      -14.282538   -0.715863    1.434557
     46          1           0      -14.368707   -0.729958   -0.280368
     47          1           0       12.939182   -2.788052   -0.708764
     48          1           0      -13.177230    1.392897    1.615507
     49          1           0       14.002592    0.127740   -1.099237
     50          1           0       13.529905   -0.918282   -2.264228
     51          1           0      -13.427235    1.757723   -1.283936
     52          1           0      -12.480120    2.723396   -0.542823
     53          1           0       11.511842   -1.371448    3.238721
     54          1           0        9.772443   -0.674130    2.351122
     55          1           0       11.490429    0.208615    2.579189
     56          1           0       10.891331   -3.282651    0.225096
     57          1           0       10.491204   -3.174614    1.912556
     58          1           0        9.591576   -2.223252    0.859146
     59          1           0      -12.065112    0.082942    2.749875
     60          1           0      -10.867602   -1.292342    2.210895
     61          1           0      -12.552316   -1.414446    3.002705
     62          1           0      -13.507394   -3.036158    0.959977
     63          1           0      -11.711555   -3.182070    0.432545
     64          1           0      -12.979052   -2.490299   -0.718538
     65          1           0        8.739302   -0.750652    0.014143
     66          1           0       -9.999797   -1.952431   -0.815839
     67          1           0       10.512342    1.370379   -2.239082
     68          1           0       12.292011    1.309612   -2.271537
     69          1           0       11.401551   -0.153118   -3.133089
     70          1           0      -11.216565    2.035582   -2.445045
     71          1           0       -9.855666    1.034346   -1.937433
     72          1           0      -10.037378    2.470420   -1.089427
     73          1           0       15.248872   -2.456282    0.616140
     74          1           0      -15.306283    1.633082    1.728875
     75          1           0       10.354737    2.419300    0.423614
     76          1           0       -9.112712    0.496329    0.036868
     77          1           0        9.173227    4.061966    0.155166
     78          1           0        7.234964    4.079870    0.588549
     79          1           0        8.578402    3.546895    1.964748
     80          1           0       -8.036553   -3.333224    0.020301
     81          1           0       -8.618171   -2.766485   -1.599038
     82          1           0       -6.672031   -3.093832   -1.385897
     83          1           0        7.023765    0.435999   -0.131804
     84          1           0       -6.501482    0.490295    0.173509
     85          1           0        5.299339    2.987400    0.712096
     86          1           0       -5.254269   -2.088033   -0.735768
     87          1           0        4.675937    0.255849   -0.445530
     88          1           0       -4.208188    0.853782    0.164475
     89          1           0        3.134485    3.076487    1.560696
     90          1           0        1.696307    3.066347    0.515729
     91          1           0        3.402887    3.785130   -0.072301
     92          1           0       -2.601151   -2.870312   -0.367443
     93          1           0       -3.120481   -2.337284   -2.082355
     94          1           0       -1.283151   -2.044936   -1.539283
     95          1           0        2.397569   -0.181972   -0.684660
     96          1           0       -2.045813    1.134210    0.124361
     97          1           0        0.283814    1.805273    0.288461
     98          1           0        0.292587   -0.971721   -0.788582
 ---------------------------------------------------------------------

 SCF Done:  E(RCAM-B3LYP) =  -1706.93577957     A.U. after   13 cycles

 Excitation energies and oscillator strengths:

 Excited State   1:      Singlet-A      3.0312 eV  409.02 nm  f=3.6790  <S**2>=0.000
     155 ->158         0.17606
     156 ->157         0.67894
 This state for optimization and/or second-order correction.
 Total Energy, E(TD-HF/TD-DFT) =  -1706.82438399
 Copying the excited state density for this state as the 1-particle RhoCI density.

 The electronic state is 1-A.
 Alpha  occ. eigenvalues --  -19.22475 -19.21224 -10.32100 -10.29539 -10.29061
 Alpha  occ. eigenvalues --  -10.28886 -10.28636 -10.28470 -10.28351 -10.28115
 Alpha  occ. eigenvalues --  -10.27916 -10.27837 -10.27245 -10.27219 -10.27152
 Alpha  occ. eigenvalues --  -10.26969 -10.26919 -10.26725 -10.26460 -10.26370
 Alpha  occ. eigenvalues --  -10.26367 -10.26342 -10.26303 -10.26247 -10.25945
 Alpha  occ. eigenvalues --  -10.25941 -10.25771 -10.25737 -10.25713 -10.25663
 Alpha  occ. eigenvalues --  -10.25566 -10.25529 -10.25475 -10.25261 -10.25213
 Alpha  occ. eigenvalues --  -10.24971 -10.24721 -10.24450 -10.24385 -10.24177
 Alpha  occ. eigenvalues --  -10.23999 -10.23440  -1.08035  -1.06821  -0.93973
 Alpha  occ. eigenvalues --   -0.93796  -0.92522  -0.91483  -0.90697  -0.89923
 Alpha  occ. eigenvalues --   -0.88345  -0.88052  -0.86985  -0.86115  -0.84390
 Alpha  occ. eigenvalues --   -0.83190  -0.82325  -0.80371  -0.80010  -0.77752
 Alpha  occ. eigenvalues --   -0.76461  -0.76211  -0.75946  -0.75855  -0.75725
 Alpha  occ. eigenvalues --   -0.75491  -0.75022  -0.74403  -0.74137  -0.69845
 Alpha  occ. eigenvalues --   -0.67813  -0.66804  -0.65750  -0.64409  -0.63886
 Alpha  occ. eigenvalues --   -0.63408  -0.62416  -0.62014  -0.60814  -0.59999
 Alpha  occ. eigenvalues --   -0.59705  -0.58808  -0.57315  -0.56655  -0.56094
 Alpha  occ. eigenvalues --   -0.55561  -0.54964  -0.54437  -0.54053  -0.53472
 Alpha  occ. eigenvalues --   -0.53151  -0.52908  -0.52441  -0.51367  -0.50775
 Alpha  occ. eigenvalues --   -0.50539  -0.50034  -0.49874  -0.49202  -0.48909
 Alpha  occ. eigenvalues --   -0.48608  -0.48459  -0.48222  -0.48049  -0.47922
 Alpha  occ. eigenvalues --   -0.47383  -0.47242  -0.46451  -0.46337  -0.46097
 Alpha  occ. eigenvalues --   -0.45972  -0.45512  -0.45313  -0.44901  -0.44812
 Alpha  occ. eigenvalues --   -0.44748  -0.44551  -0.44374  -0.43633  -0.43324
 Alpha  occ. eigenvalues --   -0.43197  -0.42702  -0.42310  -0.42149  -0.42032
 Alpha  occ. eigenvalues --   -0.41809  -0.41746  -0.41233  -0.40787  -0.40443
 Alpha  occ. eigenvalues --   -0.40309  -0.40260  -0.39951  -0.39585  -0.39284
 Alpha  occ. eigenvalues --   -0.39258  -0.38489  -0.38024  -0.37732  -0.37628
 Alpha  occ. eigenvalues --   -0.37370  -0.37137  -0.36525  -0.36250  -0.35984
 Alpha  occ. eigenvalues --   -0.35510  -0.34645  -0.34255  -0.32758  -0.32106
 Alpha  occ. eigenvalues --   -0.31142  -0.29554  -0.28509  -0.27335  -0.24865
 Alpha  occ. eigenvalues --   -0.21600
 Alpha virt. eigenvalues --   -0.03713   0.00158   0.03449   0.06831   0.07585
 Alpha virt. eigenvalues --    0.08063   0.09143   0.10044   0.10170   0.10774
 Alpha virt. eigenvalues --    0.11151   0.11958   0.12391   0.12704   0.13380

 Mulliken charges:
               1
     1  O   -0.575483
     2  O   -0.581006
     3  C   -0.015064
     4  C   -0.004584
     5  C   -0.211454
     6  C   -0.171526
     7  C    0.195157
     8  C    0.182868
     9  C    0.072977
    10  C    0.016913
    11  C   -0.218238
    12  C   -0.233112
    13  C    0.029041
    14  C    0.063665
    15  C   -0.280017
    16  C   -0.293982
    17  C   -0.299146
    18  C   -0.303443
    19  C   -0.165067
    20  C   -0.102162
    21  C   -0.323301
    22  C   -0.367095
    23  C   -0.056468
    24  C   -0.063228
    25  C    0.093958
    26  C    0.045175
    27  C   -0.334797
    28  C   -0.360984
    29  C   -0.114858
    30  C   -0.104931
    31  C   -0.093689
    32  C   -0.047799
    33  C   -0.080546
    34  C   -0.139897
    35  C    0.089590
    36  C    0.125578
    37  C   -0.370215
    38  C   -0.355953
    39  C   -0.120613
    40  C   -0.138849
    41  C   -0.065516
    42  C   -0.093177
    43  H    0.095281
    44  H    0.072183
    45  H    0.082950
    46  H    0.076711
    47  H    0.052577
    48  H    0.077723
    49  H    0.135489
    50  H    0.106809
    51  H    0.122106
    52  H    0.105911
    53  H    0.098449
    54  H    0.090773
    55  H    0.090277
    56  H    0.095152
    57  H    0.100972
    58  H    0.087141
    59  H    0.095230
    60  H    0.112390
    61  H    0.097508
    62  H    0.090179
    63  H    0.106435
    64  H    0.085319
    65  H    0.069929
    66  H    0.061870
    67  H    0.126938
    68  H    0.121079
    69  H    0.091113
    70  H    0.109604
    71  H    0.129966
    72  H    0.112340
    73  H    0.310827
    74  H    0.306021
    75  H    0.054194
    76  H    0.081347
    77  H    0.054772
    78  H    0.114892
    79  H    0.132531
    80  H    0.135563
    81  H    0.138410
    82  H    0.083210
    83  H    0.081900
    84  H    0.079870
    85  H    0.089497
    86  H    0.066338
    87  H    0.078333
    88  H    0.076164
    89  H    0.124445
    90  H    0.111894
    91  H    0.117852
    92  H    0.098621
    93  H    0.115546
    94  H    0.103442
    95  H    0.079926
    96  H    0.075938
    97  H    0.086681
    98  H    0.072660
 Sum of Mulliken charges =  -0.00000

 Dipole moment (field-independent basis, Debye):
    X=             -0.6070    Y=             -1.2974    Z=              2.6313  Tot=              2.9959
 Quadrupole moment (field-independent basis, Debye-Ang):
   XX=           -275.8258   YY=           -250.6093   ZZ=           -260.3848
   XY=             11.2552   XZ=             -1.6803   YZ=              2.4087

 Normal termination of Gaussian 16 at Fri Jul  5 21:59:29 2019.
