 Gaussian 16, Revision A.03,
 Gaussian 16:  ES64L-G16RevA.03 25-Dec-2016

 -------------------------------------
 # td=(NStates=1) CAM-B3LYP/6-31G(d,p)
 -------------------------------------

 --
 TD
 --
 Symbolic Z-matrix:
 Charge =  0 Multiplicity = 1

                         Standard orientation:
 ---------------------------------------------------------------------
 Center     Atomic      Atomic             Coordinates (Angstroms)
 Number     Number       Type             X           Y           Z
 ---------------------------------------------------------------------
      1          8           0       14.738908   -2.231423   -0.509323
      2          8           0      -14.802276    2.067128    0.479183
      3          6           0       11.538203   -0.991009    1.294445
      4          6           0      -12.391816   -0.742835    0.923923
      5          6           0       13.056773   -1.283881    1.038137
      6          6           0      -13.604934   -0.164653    0.678478
      7          6           0       13.308414   -1.887102   -0.319774
      8          6           0      -13.540636    1.443265    0.532310
      9          6           0       11.039993   -0.255973    0.094669
     10          6           0      -11.278550   -0.229140   -0.145090
     11          6           0       13.028818   -0.814857   -1.324543
     12          6           0      -12.727122    1.750719   -0.618941
     13          6           0       11.639052   -0.187025   -1.115103
     14          6           0      -11.522041    0.826468   -0.852083
     15          6           0       11.351004    0.061857    2.484563
     16          6           0       10.664931   -2.163072    1.478307
     17          6           0      -11.768275   -0.510695    2.337131
     18          6           0      -12.514256   -2.246946    0.749745
     19          6           0        9.730011    0.341705    0.231466
     20          6           0      -10.082093   -1.100773   -0.498033
     21          6           0       11.066014    0.394996   -2.387343
     22          6           0      -10.572672    1.250630   -2.047939
     23          6           0        9.287901    1.619067   -0.142813
     24          6           0       -8.850051   -0.527156   -0.229254
     25          6           0        7.966400    2.194185    0.101683
     26          6           0       -7.627894   -1.325590   -0.467901
     27          6           0        8.065596    3.665040    0.376115
     28          6           0       -7.717579   -2.885853   -0.821016
     29          6           0        6.822989    1.502427   -0.021485
     30          6           0       -6.445119   -0.664831   -0.244815
     31          6           0        5.493797    1.865711    0.160549
     32          6           0       -5.102390   -1.175662   -0.456041
     33          6           0        4.455760    1.049668   -0.001821
     34          6           0       -4.040968   -0.454559   -0.246264
     35          6           0        3.011855    1.642880    0.117191
     36          6           0       -2.671185   -0.871990   -0.437364
     37          6           0        2.754472    2.974153    0.483946
     38          6           0       -2.328163   -2.396199   -0.696800
     39          6           0        2.111073    0.689821   -0.125871
     40          6           0       -1.602411    0.034488   -0.327521
     41          6           0        0.609016    0.769001   -0.086036
     42          6           0       -0.193164   -0.202222   -0.336590
     43          1           0       13.610393   -0.203717    0.900795
     44          1           0       13.527061   -1.878852    1.924769
     45          1           0      -14.081344   -0.521892    1.769249
     46          1           0      -14.170439   -0.675511   -0.006490
     47          1           0       12.561336   -2.813711   -0.709783
     48          1           0      -12.936592    1.643792    1.435969
     49          1           0       13.792064   -0.098760   -1.466047
     50          1           0       12.905784   -1.343966   -2.433904
     51          1           0      -13.528766    1.603324   -1.564410
     52          1           0      -12.352897    2.800693   -0.452793
     53          1           0       11.663281   -0.626563    3.204111
     54          1           0       10.369083    0.307665    2.581458
     55          1           0       12.155376    0.902513    2.271991
     56          1           0       10.575544   -2.760556    0.494950
     57          1           0       11.106177   -2.913972    2.320725
     58          1           0        9.576325   -1.993349    1.966185
     59          1           0      -11.762719    0.497195    2.744463
     60          1           0      -10.942722   -1.139599    2.567633
     61          1           0      -12.683138   -0.928033    3.018958
     62          1           0      -13.583260   -2.568382    1.147747
     63          1           0      -11.671719   -2.668066    1.173725
     64          1           0      -12.685240   -2.563744   -0.249981
     65          1           0        8.995628   -0.365243    0.730853
     66          1           0      -10.277216   -2.116279   -0.835103
     67          1           0       10.083868    0.613066   -2.306051
     68          1           0       11.597222    1.453768   -2.530246
     69          1           0       11.383414   -0.163613   -3.181093
     70          1           0      -11.207478    1.906726   -2.739813
     71          1           0      -10.180459    0.262010   -2.532485
     72          1           0       -9.589602    1.931171   -1.690997
     73          1           0       14.802793   -3.030039    0.027875
     74          1           0      -15.374999    1.938920    1.387211
     75          1           0        9.988733    2.299543   -0.578298
     76          1           0       -8.670027    0.538397   -0.033957
     77          1           0        9.115916    4.149330   -0.168356
     78          1           0        7.204466    4.401293    0.117880
     79          1           0        8.354188    3.935452    1.467718
     80          1           0       -8.261043   -3.315644    0.083363
     81          1           0       -8.114185   -3.159738   -1.768423
     82          1           0       -6.670091   -3.276670   -0.611647
     83          1           0        6.834355    0.273160   -0.137106
     84          1           0       -6.504132    0.376851    0.094474
     85          1           0        5.270531    2.847251    0.585977
     86          1           0       -4.899060   -2.249260   -0.581591
     87          1           0        4.609129    0.205158   -0.663072
     88          1           0       -4.199721    0.693281   -0.106690
     89          1           0        3.260328    3.221090    1.449472
     90          1           0        1.568636    3.179838    0.691987
     91          1           0        3.257662    3.623308   -0.155266
     92          1           0       -2.939079   -2.945097    0.046582
     93          1           0       -2.591232   -2.602376   -1.834621
     94          1           0       -1.274784   -2.535465   -0.422348
     95          1           0        2.344177   -0.373861   -0.442093
     96          1           0       -1.877763    1.072667   -0.181338
     97          1           0        0.302021    1.791110    0.218245
     98          1           0        0.196649   -1.286605   -0.592549
 ---------------------------------------------------------------------

 SCF Done:  E(RCAM-B3LYP) =  -1706.96347373     A.U. after   14 cycles

 Excitation energies and oscillator strengths:

 Excited State   1:      Singlet-A      3.1113 eV  398.50 nm  f=3.7287  <S**2>=0.000
     155 ->158        -0.22170
     156 ->157         0.66055
 This state for optimization and/or second-order correction.
 Total Energy, E(TD-HF/TD-DFT) =  -1706.84913686
 Copying the excited state density for this state as the 1-particle RhoCI density.

 The electronic state is 1-A.
 Alpha  occ. eigenvalues --  -19.22238 -19.21536 -10.32169 -10.30260 -10.28520
 Alpha  occ. eigenvalues --  -10.27854 -10.27778 -10.27667 -10.27546 -10.27538
 Alpha  occ. eigenvalues --  -10.27512 -10.27253 -10.27022 -10.26888 -10.26885
 Alpha  occ. eigenvalues --  -10.26627 -10.26626 -10.26554 -10.26539 -10.26488
 Alpha  occ. eigenvalues --  -10.26439 -10.26428 -10.26339 -10.26268 -10.26231
 Alpha  occ. eigenvalues --  -10.26202 -10.26105 -10.26030 -10.25981 -10.25969
 Alpha  occ. eigenvalues --  -10.25849 -10.25764 -10.25487 -10.25442 -10.25399
 Alpha  occ. eigenvalues --  -10.25310 -10.25014 -10.24695 -10.24447 -10.24346
 Alpha  occ. eigenvalues --  -10.24124 -10.24048  -1.08309  -1.07860  -0.94505
 Alpha  occ. eigenvalues --   -0.94129  -0.92296  -0.91335  -0.90458  -0.89412
 Alpha  occ. eigenvalues --   -0.87942  -0.87175  -0.86877  -0.85801  -0.84364
 Alpha  occ. eigenvalues --   -0.83760  -0.81979  -0.79728  -0.78531  -0.77949
 Alpha  occ. eigenvalues --   -0.76336  -0.76269  -0.76057  -0.75767  -0.75725
 Alpha  occ. eigenvalues --   -0.75447  -0.74938  -0.74147  -0.73332  -0.69720
 Alpha  occ. eigenvalues --   -0.68535  -0.66570  -0.64825  -0.64029  -0.63685
 Alpha  occ. eigenvalues --   -0.62634  -0.61997  -0.61213  -0.60250  -0.60049
 Alpha  occ. eigenvalues --   -0.59475  -0.58838  -0.57901  -0.57292  -0.55900
 Alpha  occ. eigenvalues --   -0.55383  -0.55120  -0.54212  -0.53704  -0.53105
 Alpha  occ. eigenvalues --   -0.52990  -0.52772  -0.51641  -0.51446  -0.51037
 Alpha  occ. eigenvalues --   -0.50421  -0.50306  -0.49942  -0.49862  -0.49283
 Alpha  occ. eigenvalues --   -0.49057  -0.48779  -0.48472  -0.48189  -0.47919
 Alpha  occ. eigenvalues --   -0.47522  -0.47249  -0.47152  -0.46578  -0.45809
 Alpha  occ. eigenvalues --   -0.45768  -0.45548  -0.45310  -0.44876  -0.44591
 Alpha  occ. eigenvalues --   -0.44170  -0.43938  -0.43843  -0.43454  -0.43225
 Alpha  occ. eigenvalues --   -0.42909  -0.42521  -0.42442  -0.42056  -0.41807
 Alpha  occ. eigenvalues --   -0.41581  -0.41430  -0.41059  -0.40911  -0.40876
 Alpha  occ. eigenvalues --   -0.40433  -0.40055  -0.39860  -0.39514  -0.39368
 Alpha  occ. eigenvalues --   -0.39203  -0.38879  -0.38067  -0.37918  -0.37763
 Alpha  occ. eigenvalues --   -0.37544  -0.36917  -0.36764  -0.36418  -0.35723
 Alpha  occ. eigenvalues --   -0.35165  -0.33855  -0.32819  -0.32788  -0.31727
 Alpha  occ. eigenvalues --   -0.30850  -0.29482  -0.28339  -0.26644  -0.23930
 Alpha  occ. eigenvalues --   -0.21495
 Alpha virt. eigenvalues --   -0.03069  -0.00353   0.03407   0.06259   0.08704
 Alpha virt. eigenvalues --    0.09843   0.10167   0.10814   0.10913   0.11337
 Alpha virt. eigenvalues --    0.11519   0.12203   0.12408   0.12903   0.13321

 Mulliken charges:
               1
     1  O   -0.553292
     2  O   -0.573592
     3  C   -0.024227
     4  C    0.021938
     5  C   -0.184033
     6  C   -0.198225
     7  C    0.158547
     8  C    0.196104
     9  C    0.088193
    10  C    0.043436
    11  C   -0.217546
    12  C   -0.202989
    13  C    0.028846
    14  C    0.052300
    15  C   -0.278932
    16  C   -0.298574
    17  C   -0.296064
    18  C   -0.307724
    19  C   -0.134609
    20  C   -0.182277
    21  C   -0.332303
    22  C   -0.331811
    23  C   -0.123792
    24  C   -0.066746
    25  C    0.112091
    26  C    0.088386
    27  C   -0.374992
    28  C   -0.367324
    29  C   -0.126079
    30  C   -0.137194
    31  C   -0.055037
    32  C   -0.078359
    33  C   -0.120277
    34  C   -0.092703
    35  C    0.125430
    36  C    0.060727
    37  C   -0.392266
    38  C   -0.357312
    39  C   -0.135668
    40  C   -0.127196
    41  C   -0.071736
    42  C   -0.072163
    43  H    0.098502
    44  H    0.077865
    45  H    0.038708
    46  H    0.101596
    47  H    0.065364
    48  H    0.070281
    49  H    0.130376
    50  H    0.070632
    51  H    0.091673
    52  H    0.110007
    53  H    0.101663
    54  H    0.122164
    55  H    0.096540
    56  H    0.110103
    57  H    0.076525
    58  H    0.102508
    59  H    0.112993
    60  H    0.118902
    61  H    0.060480
    62  H    0.079852
    63  H    0.108804
    64  H    0.110244
    65  H    0.083136
    66  H    0.105671
    67  H    0.129242
    68  H    0.087707
    69  H    0.113432
    70  H    0.098661
    71  H    0.116267
    72  H    0.080834
    73  H    0.304945
    74  H    0.316578
    75  H    0.091904
    76  H    0.099952
    77  H    0.080246
    78  H    0.111657
    79  H    0.122153
    80  H    0.118396
    81  H    0.132758
    82  H    0.107654
    83  H    0.066567
    84  H    0.079309
    85  H    0.070216
    86  H    0.081072
    87  H    0.098179
    88  H    0.070987
    89  H    0.126117
    90  H    0.102411
    91  H    0.138438
    92  H    0.117815
    93  H    0.117465
    94  H    0.111781
    95  H    0.070295
    96  H    0.076668
    97  H    0.070582
    98  H    0.084163
 Sum of Mulliken charges =  -0.00000

 Dipole moment (field-independent basis, Debye):
    X=              0.0010    Y=             -1.2923    Z=              2.2153  Tot=              2.5647
 Quadrupole moment (field-independent basis, Debye-Ang):
   XX=           -287.3810   YY=           -243.8997   ZZ=           -263.2574
   XY=              9.8533   XZ=             -3.3968   YZ=              4.0403

 Normal termination of Gaussian 16 at Fri Jul  5 01:21:31 2019.
