 Gaussian 16, Revision A.03,
 Gaussian 16:  ES64L-G16RevA.03 25-Dec-2016

 -------------------------------------
 # td=(NStates=1) CAM-B3LYP/6-31G(d,p)
 -------------------------------------

 --
 TD
 --
 Symbolic Z-matrix:
 Charge =  0 Multiplicity = 1

                         Standard orientation:
 ---------------------------------------------------------------------
 Center     Atomic      Atomic             Coordinates (Angstroms)
 Number     Number       Type             X           Y           Z
 ---------------------------------------------------------------------
      1          8           0       14.718401   -2.227678   -0.347383
      2          8           0      -14.701869    2.052087    0.820377
      3          6           0       11.444083   -0.990645    1.369788
      4          6           0      -12.324036   -0.989326    0.797482
      5          6           0       12.974440   -1.254703    1.067025
      6          6           0      -13.613889   -0.353484    0.713219
      7          6           0       13.334740   -1.949672   -0.225183
      8          6           0      -13.474440    1.221186    0.697021
      9          6           0       10.895789   -0.357939    0.048012
     10          6           0      -11.364523   -0.321273   -0.160619
     11          6           0       12.953224   -1.033644   -1.326602
     12          6           0      -12.775794    1.684300   -0.471879
     13          6           0       11.575848   -0.386908   -1.152874
     14          6           0      -11.597769    0.848823   -0.766476
     15          6           0       11.496781   -0.141312    2.546932
     16          6           0       10.652683   -2.369594    1.664711
     17          6           0      -11.841384   -0.988115    2.213554
     18          6           0      -12.620608   -2.429559    0.588152
     19          6           0        9.612403    0.351699    0.190463
     20          6           0      -10.117079   -1.092651   -0.324017
     21          6           0       11.042379    0.122138   -2.512868
     22          6           0      -10.728107    1.562919   -1.725981
     23          6           0        9.367387    1.591386   -0.136460
     24          6           0       -8.833177   -0.511540   -0.263819
     25          6           0        8.014593    2.288320    0.053377
     26          6           0       -7.637635   -1.228104   -0.452088
     27          6           0        8.102651    3.610398    0.536899
     28          6           0       -7.771792   -2.687912   -0.904763
     29          6           0        6.870874    1.544657    0.032376
     30          6           0       -6.454842   -0.602503   -0.354602
     31          6           0        5.489450    2.122270    0.120321
     32          6           0       -5.025566   -1.184783   -0.464152
     33          6           0        4.383010    1.258546   -0.112269
     34          6           0       -3.992361   -0.348431   -0.456428
     35          6           0        3.073828    1.716804    0.100095
     36          6           0       -2.535449   -0.693892   -0.600299
     37          6           0        2.822745    2.984409    0.421557
     38          6           0       -2.347651   -2.209021   -0.846398
     39          6           0        2.106984    0.771070   -0.164664
     40          6           0       -1.594495    0.312288   -0.537735
     41          6           0        0.733509    0.984187   -0.089263
     42          6           0       -0.219106    0.063650   -0.484835
     43          1           0       13.592362   -0.304064    1.038009
     44          1           0       13.227521   -1.891707    1.900659
     45          1           0      -14.214843   -0.435600    1.691349
     46          1           0      -14.127428   -0.674895   -0.117608
     47          1           0       12.871727   -2.957807   -0.360531
     48          1           0      -12.821052    1.476618    1.636060
     49          1           0       13.827249   -0.149564   -1.294772
     50          1           0       13.017354   -1.512139   -2.441331
     51          1           0      -13.181932    1.536336   -1.441542
     52          1           0      -12.454337    2.756888   -0.379781
     53          1           0       12.138750   -0.530481    3.454481
     54          1           0       10.488891    0.178969    2.655985
     55          1           0       11.910484    0.864644    2.048814
     56          1           0       10.944257   -3.051493    0.712601
     57          1           0       11.105561   -2.686573    2.695624
     58          1           0        9.620696   -2.341052    1.693094
     59          1           0      -11.753731    0.128550    2.610295
     60          1           0      -10.771214   -1.412277    2.245107
     61          1           0      -12.496818   -1.308086    3.043465
     62          1           0      -13.440492   -3.134093    1.128765
     63          1           0      -11.747863   -2.875855    0.764463
     64          1           0      -12.925715   -2.560260   -0.519848
     65          1           0        8.743653   -0.111510    0.491821
     66          1           0      -10.164796   -2.188704   -0.559922
     67          1           0       10.021641    0.178735   -2.468475
     68          1           0       11.490400    1.335358   -2.644705
     69          1           0       11.184887   -0.476636   -3.378902
     70          1           0      -11.228385    1.958196   -2.515984
     71          1           0      -10.097661    0.653473   -2.039922
     72          1           0      -10.066002    2.312016   -1.493919
     73          1           0       14.891158   -3.161831    0.000537
     74          1           0      -15.113911    2.258248    2.018010
     75          1           0       10.058260    2.334424   -0.742687
     76          1           0       -8.784756    0.579271    0.044172
     77          1           0        9.054393    4.261434    0.139171
     78          1           0        7.269113    4.391628    0.267889
     79          1           0        8.340093    3.749274    1.657920
     80          1           0       -8.568861   -3.458322   -0.311516
     81          1           0       -8.090682   -2.685220   -2.141132
     82          1           0       -6.673066   -3.107623   -0.848601
     83          1           0        6.829951    0.501570   -0.144155
     84          1           0       -6.537258    0.398793   -0.106429
     85          1           0        5.485078    3.258188    0.423738
     86          1           0       -4.758627   -2.125337   -0.976326
     87          1           0        4.761670    0.220126   -0.402358
     88          1           0       -4.312290    0.596190   -0.124051
     89          1           0        3.851480    3.481796    1.004029
     90          1           0        1.878974    3.095693    0.841750
     91          1           0        2.974514    3.778124   -0.318069
     92          1           0       -3.050901   -2.738270   -0.058854
     93          1           0       -2.961708   -2.429018   -1.748068
     94          1           0       -1.386405   -2.481470   -0.687475
     95          1           0        2.574299   -0.060303   -0.630589
     96          1           0       -1.781710    1.343959   -0.462173
     97          1           0        0.377922    1.997077    0.278825
     98          1           0        0.381666   -0.854884   -0.671123
 ---------------------------------------------------------------------

 SCF Done:  E(RCAM-B3LYP) =  -1706.84722577     A.U. after   14 cycles

 Excitation energies and oscillator strengths:

 Excited State   1:      Singlet-A      2.6301 eV  471.40 nm  f=3.4556  <S**2>=0.000
     155 ->158         0.14676
     156 ->157         0.68775
 This state for optimization and/or second-order correction.
 Total Energy, E(TD-HF/TD-DFT) =  -1706.75057090
 Copying the excited state density for this state as the 1-particle RhoCI density.

 The electronic state is 1-A.
 Alpha  occ. eigenvalues --  -19.21962 -19.20901 -10.30064 -10.29795 -10.29250
 Alpha  occ. eigenvalues --  -10.28701 -10.27778 -10.27608 -10.27571 -10.27511
 Alpha  occ. eigenvalues --  -10.27204 -10.27157 -10.26947 -10.26926 -10.26748
 Alpha  occ. eigenvalues --  -10.26745 -10.26724 -10.26689 -10.26628 -10.26624
 Alpha  occ. eigenvalues --  -10.26584 -10.26545 -10.26513 -10.26510 -10.26405
 Alpha  occ. eigenvalues --  -10.26346 -10.26202 -10.26132 -10.25897 -10.25874
 Alpha  occ. eigenvalues --  -10.25847 -10.25663 -10.25494 -10.25333 -10.25283
 Alpha  occ. eigenvalues --  -10.25178 -10.24909 -10.24508 -10.24454 -10.24048
 Alpha  occ. eigenvalues --  -10.23766 -10.23381  -1.08527  -1.02851  -0.95266
 Alpha  occ. eigenvalues --   -0.94023  -0.93083  -0.91790  -0.90814  -0.90497
 Alpha  occ. eigenvalues --   -0.89394  -0.87761  -0.86543  -0.85457  -0.84604
 Alpha  occ. eigenvalues --   -0.83191  -0.82041  -0.80482  -0.80115  -0.79355
 Alpha  occ. eigenvalues --   -0.76744  -0.76160  -0.75966  -0.75836  -0.75346
 Alpha  occ. eigenvalues --   -0.75261  -0.74796  -0.74202  -0.73925  -0.70027
 Alpha  occ. eigenvalues --   -0.68233  -0.67091  -0.65288  -0.64658  -0.63874
 Alpha  occ. eigenvalues --   -0.63064  -0.62510  -0.61929  -0.60905  -0.60646
 Alpha  occ. eigenvalues --   -0.59081  -0.58884  -0.58521  -0.56949  -0.56502
 Alpha  occ. eigenvalues --   -0.55675  -0.55354  -0.54932  -0.54343  -0.53862
 Alpha  occ. eigenvalues --   -0.53642  -0.53457  -0.52343  -0.52257  -0.51512
 Alpha  occ. eigenvalues --   -0.50407  -0.50163  -0.50043  -0.49622  -0.49340
 Alpha  occ. eigenvalues --   -0.49058  -0.48490  -0.48230  -0.48032  -0.47692
 Alpha  occ. eigenvalues --   -0.47122  -0.47086  -0.46848  -0.46375  -0.46174
 Alpha  occ. eigenvalues --   -0.45977  -0.45738  -0.45486  -0.45023  -0.44780
 Alpha  occ. eigenvalues --   -0.44618  -0.44424  -0.44181  -0.43442  -0.43358
 Alpha  occ. eigenvalues --   -0.43269  -0.42540  -0.42172  -0.42074  -0.41852
 Alpha  occ. eigenvalues --   -0.41792  -0.41335  -0.41152  -0.40661  -0.40642
 Alpha  occ. eigenvalues --   -0.40088  -0.40042  -0.39734  -0.39253  -0.38885
 Alpha  occ. eigenvalues --   -0.38798  -0.38462  -0.38406  -0.37545  -0.37369
 Alpha  occ. eigenvalues --   -0.36603  -0.36449  -0.36118  -0.35374  -0.35231
 Alpha  occ. eigenvalues --   -0.34862  -0.34367  -0.33174  -0.32035  -0.31587
 Alpha  occ. eigenvalues --   -0.30342  -0.29630  -0.28386  -0.26604  -0.24363
 Alpha  occ. eigenvalues --   -0.20670
 Alpha virt. eigenvalues --   -0.04877  -0.00376   0.02461   0.04577   0.05141
 Alpha virt. eigenvalues --    0.07260   0.08944   0.10295   0.11185   0.11342
 Alpha virt. eigenvalues --    0.11973   0.12056   0.12308   0.12462   0.13180

 Mulliken charges:
               1
     1  O   -0.566257
     2  O   -0.574189
     3  C   -0.015834
     4  C   -0.009186
     5  C   -0.165876
     6  C   -0.176439
     7  C    0.167071
     8  C    0.169517
     9  C    0.034637
    10  C    0.084027
    11  C   -0.201277
    12  C   -0.187086
    13  C    0.057761
    14  C    0.025503
    15  C   -0.281674
    16  C   -0.295306
    17  C   -0.299153
    18  C   -0.283165
    19  C   -0.130123
    20  C   -0.175648
    21  C   -0.334994
    22  C   -0.366098
    23  C   -0.082709
    24  C   -0.105160
    25  C    0.087441
    26  C    0.153566
    27  C   -0.379990
    28  C   -0.349140
    29  C   -0.109998
    30  C   -0.149148
    31  C   -0.103063
    32  C   -0.094830
    33  C   -0.148199
    34  C   -0.093103
    35  C    0.197400
    36  C    0.084094
    37  C   -0.403158
    38  C   -0.373192
    39  C   -0.113362
    40  C   -0.113951
    41  C   -0.106132
    42  C   -0.080509
    43  H    0.103224
    44  H    0.073606
    45  H    0.077506
    46  H    0.099582
    47  H    0.067241
    48  H    0.067779
    49  H    0.095546
    50  H    0.082382
    51  H    0.126144
    52  H    0.110176
    53  H    0.104197
    54  H    0.105701
    55  H    0.088187
    56  H    0.085711
    57  H    0.089243
    58  H    0.119583
    59  H    0.067626
    60  H    0.101809
    61  H    0.110079
    62  H    0.097212
    63  H    0.102160
    64  H    0.079334
    65  H    0.087261
    66  H    0.097214
    67  H    0.126160
    68  H    0.077934
    69  H    0.115467
    70  H    0.110180
    71  H    0.110659
    72  H    0.125763
    73  H    0.308140
    74  H    0.269373
    75  H    0.083015
    76  H    0.089569
    77  H    0.086928
    78  H    0.104762
    79  H    0.131236
    80  H    0.097889
    81  H    0.095768
    82  H    0.100120
    83  H    0.078538
    84  H    0.081291
    85  H    0.083599
    86  H    0.075958
    87  H    0.094689
    88  H    0.078458
    89  H    0.076186
    90  H    0.116051
    91  H    0.140260
    92  H    0.116486
    93  H    0.139456
    94  H    0.120686
    95  H    0.081743
    96  H    0.096060
    97  H    0.073905
    98  H    0.082092
 Sum of Mulliken charges =  -0.00000

 Dipole moment (field-independent basis, Debye):
    X=              0.8037    Y=             -0.9231    Z=              1.1189  Tot=              1.6583
 Quadrupole moment (field-independent basis, Debye-Ang):
   XX=           -314.5841   YY=           -241.5599   ZZ=           -259.9503
   XY=             -4.7364   XZ=             -7.1603   YZ=              3.0310

 Normal termination of Gaussian 16 at Wed Jul 10 22:45:14 2019.
