 Gaussian 16, Revision A.03,
 Gaussian 16:  ES64L-G16RevA.03 25-Dec-2016

 -------------------------------------
 # td=(NStates=1) CAM-B3LYP/6-31G(d,p)
 -------------------------------------

 --
 TD
 --
 Symbolic Z-matrix:
 Charge =  0 Multiplicity = 1

                         Standard orientation:
 ---------------------------------------------------------------------
 Center     Atomic      Atomic             Coordinates (Angstroms)
 Number     Number       Type             X           Y           Z
 ---------------------------------------------------------------------
      1          8           0       14.748750   -2.135643   -0.473521
      2          8           0      -14.773994    1.979558    0.726231
      3          6           0       11.606572   -0.995241    1.331008
      4          6           0      -12.214006   -0.961288    0.829917
      5          6           0       12.991744   -1.287735    1.023369
      6          6           0      -13.581505   -0.209094    0.866599
      7          6           0       13.316062   -1.912615   -0.295148
      8          6           0      -13.504549    1.351555    0.909695
      9          6           0       11.001176   -0.288636    0.113580
     10          6           0      -11.342597   -0.134107   -0.124190
     11          6           0       12.916180   -0.840811   -1.247079
     12          6           0      -12.801661    1.761550   -0.470702
     13          6           0       11.679010   -0.206357   -1.088602
     14          6           0      -11.555529    0.952051   -0.669410
     15          6           0       11.452056   -0.051381    2.555312
     16          6           0       10.766512   -2.308723    1.605140
     17          6           0      -11.517699   -1.081489    2.218443
     18          6           0      -12.524954   -2.351709    0.332602
     19          6           0        9.646135    0.270662    0.274297
     20          6           0      -10.222903   -1.029973   -0.480605
     21          6           0       11.042485    0.253372   -2.419778
     22          6           0      -10.696991    1.646267   -1.753567
     23          6           0        9.273807    1.563109   -0.200641
     24          6           0       -8.925012   -0.618432   -0.394550
     25          6           0        8.050251    2.272658   -0.081067
     26          6           0       -7.677178   -1.224818   -0.567472
     27          6           0        8.191943    3.706304    0.351190
     28          6           0       -7.698592   -2.810809   -0.812919
     29          6           0        6.920712    1.624537   -0.087289
     30          6           0       -6.554485   -0.662639   -0.378978
     31          6           0        5.512171    2.035923    0.201250
     32          6           0       -5.139665   -1.118254   -0.599918
     33          6           0        4.503744    1.203083   -0.032690
     34          6           0       -4.085409   -0.365993   -0.394605
     35          6           0        2.993066    1.589756    0.178844
     36          6           0       -2.678953   -0.816253   -0.559608
     37          6           0        2.715377    3.007135    0.563968
     38          6           0       -2.386055   -2.271251   -0.895536
     39          6           0        2.182921    0.616757   -0.285991
     40          6           0       -1.664238    0.127197   -0.309161
     41          6           0        0.663077    0.773594   -0.168055
     42          6           0       -0.255763   -0.180435   -0.461921
     43          1           0       13.697694   -0.516414    1.267264
     44          1           0       13.102962   -2.032817    1.855829
     45          1           0      -14.199606   -0.494095    1.959323
     46          1           0      -14.357862   -0.308418    0.110191
     47          1           0       12.874466   -2.619785   -0.398337
     48          1           0      -12.937499    1.970180    1.792601
     49          1           0       13.838892   -0.161673   -0.988347
     50          1           0       13.061433   -0.953669   -2.262593
     51          1           0      -13.487159    1.540855   -1.386996
     52          1           0      -12.665165    2.717388   -0.345558
     53          1           0       11.920026   -0.577324    3.498221
     54          1           0       10.308422    0.045930    2.806811
     55          1           0       11.930442    0.887953    2.311194
     56          1           0       11.023415   -3.179282    0.826812
     57          1           0       11.019544   -2.697929    2.414607
     58          1           0        9.652556   -2.084481    1.605031
     59          1           0      -11.375073   -0.067673    2.809738
     60          1           0      -10.576726   -1.654890    2.250105
     61          1           0      -12.151795   -1.665225    3.028139
     62          1           0      -13.396686   -2.591613    1.157397
     63          1           0      -11.681702   -3.018642    0.412962
     64          1           0      -12.962444   -2.552366   -0.667971
     65          1           0        9.186971   -0.350594    0.785928
     66          1           0      -10.430015   -2.010602   -0.636553
     67          1           0        9.976910    0.581063   -2.062544
     68          1           0       11.621975    1.009264   -2.840355
     69          1           0       10.843985   -0.463689   -3.180658
     70          1           0      -11.230214    1.917949   -2.397068
     71          1           0       -9.770951    1.094355   -2.177645
     72          1           0      -10.463068    2.634405   -1.353902
     73          1           0       14.935038   -3.048721   -0.024812
     74          1           0      -15.223874    1.947448    1.588373
     75          1           0       10.011536    2.068124   -0.773397
     76          1           0       -8.715739    0.367994    0.051897
     77          1           0        8.804968    4.100202   -0.558297
     78          1           0        7.214047    4.262546    0.441839
     79          1           0        8.544888    3.993820    1.367400
     80          1           0       -7.753071   -3.256950    0.476930
     81          1           0       -8.627643   -2.952189   -1.546429
     82          1           0       -6.673283   -3.059098   -1.297396
     83          1           0        7.009853    0.435673   -0.405652
     84          1           0       -6.652441    0.261215    0.092895
     85          1           0        5.265767    2.985755    0.591154
     86          1           0       -4.912178   -2.122953   -0.782792
     87          1           0        4.884851    0.207530   -0.112496
     88          1           0       -4.286595    0.642108   -0.121626
     89          1           0        2.882884    3.110047    1.776520
     90          1           0        1.640132    3.373622    0.535319
     91          1           0        3.468624    3.690185   -0.112929
     92          1           0       -2.647757   -2.966746   -0.115597
     93          1           0       -3.194942   -2.387003   -1.747684
     94          1           0       -1.498188   -2.397076   -1.347459
     95          1           0        2.479562   -0.400512   -0.770690
     96          1           0       -1.873025    1.126110   -0.110025
     97          1           0        0.407107    1.730938    0.101965
     98          1           0       -0.045849   -1.026349   -0.866700
 ---------------------------------------------------------------------

 SCF Done:  E(RCAM-B3LYP) =  -1706.77315192     A.U. after   14 cycles

 Excitation energies and oscillator strengths:

 Excited State   1:      Singlet-A      3.2589 eV  380.44 nm  f=3.5473  <S**2>=0.000
     154 ->159         0.10142
     155 ->158        -0.22108
     156 ->157         0.65469
 This state for optimization and/or second-order correction.
 Total Energy, E(TD-HF/TD-DFT) =  -1706.65338856
 Copying the excited state density for this state as the 1-particle RhoCI density.

 The electronic state is 1-A.
 Alpha  occ. eigenvalues --  -19.21842 -19.21436 -10.31795 -10.29387 -10.28942
 Alpha  occ. eigenvalues --  -10.28474 -10.28453 -10.27855 -10.27804 -10.27412
 Alpha  occ. eigenvalues --  -10.27225 -10.27061 -10.26643 -10.26436 -10.26288
 Alpha  occ. eigenvalues --  -10.26193 -10.25954 -10.25908 -10.25863 -10.25796
 Alpha  occ. eigenvalues --  -10.25773 -10.25759 -10.25650 -10.25501 -10.25483
 Alpha  occ. eigenvalues --  -10.25328 -10.25318 -10.25288 -10.25134 -10.24966
 Alpha  occ. eigenvalues --  -10.24960 -10.24938 -10.24849 -10.24824 -10.24756
 Alpha  occ. eigenvalues --  -10.24401 -10.24183 -10.23894 -10.23873 -10.23837
 Alpha  occ. eigenvalues --  -10.23259 -10.22806  -1.09297  -1.07670  -0.94717
 Alpha  occ. eigenvalues --   -0.94200  -0.91791  -0.91332  -0.90548  -0.89580
 Alpha  occ. eigenvalues --   -0.87734  -0.87476  -0.87053  -0.85666  -0.84528
 Alpha  occ. eigenvalues --   -0.83337  -0.81724  -0.80048  -0.79870  -0.77690
 Alpha  occ. eigenvalues --   -0.77109  -0.76907  -0.75867  -0.75376  -0.75239
 Alpha  occ. eigenvalues --   -0.75104  -0.74929  -0.74274  -0.73801  -0.71357
 Alpha  occ. eigenvalues --   -0.70147  -0.68091  -0.67453  -0.65541  -0.64671
 Alpha  occ. eigenvalues --   -0.63876  -0.63107  -0.62700  -0.61311  -0.60994
 Alpha  occ. eigenvalues --   -0.60154  -0.58865  -0.57790  -0.57585  -0.56182
 Alpha  occ. eigenvalues --   -0.55521  -0.55115  -0.54968  -0.53920  -0.53213
 Alpha  occ. eigenvalues --   -0.52879  -0.52114  -0.51849  -0.51435  -0.51108
 Alpha  occ. eigenvalues --   -0.50265  -0.50032  -0.49873  -0.49369  -0.49172
 Alpha  occ. eigenvalues --   -0.48945  -0.48777  -0.48640  -0.48402  -0.47990
 Alpha  occ. eigenvalues --   -0.47747  -0.47614  -0.47120  -0.47025  -0.46104
 Alpha  occ. eigenvalues --   -0.45946  -0.45870  -0.45578  -0.45198  -0.44760
 Alpha  occ. eigenvalues --   -0.44194  -0.43976  -0.43771  -0.43499  -0.43173
 Alpha  occ. eigenvalues --   -0.42687  -0.42596  -0.42416  -0.42316  -0.42278
 Alpha  occ. eigenvalues --   -0.42012  -0.41874  -0.41851  -0.41113  -0.40688
 Alpha  occ. eigenvalues --   -0.40597  -0.40286  -0.39877  -0.39377  -0.39139
 Alpha  occ. eigenvalues --   -0.39087  -0.38749  -0.38338  -0.38228  -0.38025
 Alpha  occ. eigenvalues --   -0.37316  -0.36883  -0.36671  -0.35708  -0.35007
 Alpha  occ. eigenvalues --   -0.34794  -0.33267  -0.32878  -0.32756  -0.31994
 Alpha  occ. eigenvalues --   -0.31506  -0.30737  -0.28204  -0.26042  -0.23711
 Alpha  occ. eigenvalues --   -0.21838
 Alpha virt. eigenvalues --   -0.02650   0.00324   0.02944   0.06254   0.08866
 Alpha virt. eigenvalues --    0.10191   0.10588   0.11169   0.11677   0.11910
 Alpha virt. eigenvalues --    0.12584   0.12765   0.12861   0.13093   0.13817

 Mulliken charges:
               1
     1  O   -0.572133
     2  O   -0.545485
     3  C   -0.016417
     4  C   -0.009943
     5  C   -0.202129
     6  C   -0.174858
     7  C    0.244756
     8  C    0.122105
     9  C    0.023969
    10  C    0.086174
    11  C   -0.239149
    12  C   -0.203504
    13  C    0.074334
    14  C    0.028426
    15  C   -0.284963
    16  C   -0.297727
    17  C   -0.297922
    18  C   -0.295353
    19  C   -0.047700
    20  C   -0.147394
    21  C   -0.371783
    22  C   -0.316211
    23  C   -0.127472
    24  C   -0.094091
    25  C    0.094492
    26  C    0.127782
    27  C   -0.352223
    28  C   -0.329416
    29  C   -0.132749
    30  C   -0.142132
    31  C   -0.081389
    32  C   -0.089085
    33  C   -0.103800
    34  C   -0.075516
    35  C    0.095630
    36  C    0.051388
    37  C   -0.365265
    38  C   -0.360719
    39  C   -0.114194
    40  C   -0.113140
    41  C   -0.093715
    42  C   -0.042418
    43  H    0.109568
    44  H    0.062132
    45  H    0.028504
    46  H    0.126939
    47  H    0.045599
    48  H    0.064988
    49  H    0.106467
    50  H    0.097308
    51  H    0.110754
    52  H    0.110443
    53  H    0.081646
    54  H    0.095681
    55  H    0.119416
    56  H    0.079841
    57  H    0.117007
    58  H    0.101215
    59  H    0.095503
    60  H    0.119940
    61  H    0.085070
    62  H    0.085145
    63  H    0.108883
    64  H    0.111830
    65  H    0.042359
    66  H    0.080913
    67  H    0.106074
    68  H    0.117351
    69  H    0.115886
    70  H    0.111248
    71  H    0.109244
    72  H    0.098331
    73  H    0.304521
    74  H    0.301336
    75  H    0.092412
    76  H    0.072139
    77  H    0.104739
    78  H    0.100554
    79  H    0.126627
    80  H    0.080839
    81  H    0.102119
    82  H    0.107273
    83  H    0.058731
    84  H    0.067429
    85  H    0.078636
    86  H    0.073176
    87  H    0.087493
    88  H    0.078157
    89  H    0.108021
    90  H    0.119592
    91  H    0.122274
    92  H    0.136761
    93  H    0.102659
    94  H    0.123469
    95  H    0.091555
    96  H    0.078371
    97  H    0.068217
    98  H    0.058554
 Sum of Mulliken charges =  -0.00000

 Dipole moment (field-independent basis, Debye):
    X=             -0.4412    Y=             -1.2242    Z=              2.3523  Tot=              2.6883
 Quadrupole moment (field-independent basis, Debye-Ang):
   XX=           -282.6712   YY=           -242.4886   ZZ=           -257.6781
   XY=            -11.3233   XZ=             -2.1962   YZ=              3.6768

 Normal termination of Gaussian 16 at Tue Jul  2 16:04:34 2019.
