 Gaussian 16, Revision A.03,
 Gaussian 16:  ES64L-G16RevA.03 25-Dec-2016

 -------------------------------------
 # td=(NStates=1) CAM-B3LYP/6-31G(d,p)
 -------------------------------------

 --
 TD
 --
 Symbolic Z-matrix:
 Charge =  0 Multiplicity = 1

                         Standard orientation:
 ---------------------------------------------------------------------
 Center     Atomic      Atomic             Coordinates (Angstroms)
 Number     Number       Type             X           Y           Z
 ---------------------------------------------------------------------
      1          8           0       14.669439   -2.211050   -0.318453
      2          8           0      -14.630577    1.946825    1.063192
      3          6           0       11.387888   -1.034939    1.294063
      4          6           0      -12.136538   -0.976993    0.861594
      5          6           0       12.971075   -1.401437    1.174800
      6          6           0      -13.533107   -0.272277    0.859773
      7          6           0       13.249927   -1.892306   -0.249937
      8          6           0      -13.468136    1.307871    0.907133
      9          6           0       10.859310   -0.245999    0.014977
     10          6           0      -11.269781   -0.249929   -0.291101
     11          6           0       12.919610   -0.977851   -1.245143
     12          6           0      -12.813528    1.705560   -0.412205
     13          6           0       11.527124   -0.344881   -1.151365
     14          6           0      -11.559344    0.907034   -0.753887
     15          6           0       11.315128   -0.159109    2.460887
     16          6           0       10.650172   -2.337448    1.494984
     17          6           0      -11.531872   -1.040576    2.208261
     18          6           0      -12.398388   -2.383619    0.455424
     19          6           0        9.601449    0.473875    0.169744
     20          6           0       -9.999254   -0.957746   -0.510378
     21          6           0       11.043741    0.304447   -2.444172
     22          6           0      -10.816523    1.597373   -1.936836
     23          6           0        9.299708    1.672112   -0.193072
     24          6           0       -8.781499   -0.509291   -0.464957
     25          6           0        8.035193    2.383142   -0.046800
     26          6           0       -7.635524   -1.267038   -0.728571
     27          6           0        8.001441    3.762670    0.359075
     28          6           0       -7.708151   -2.633379   -1.385869
     29          6           0        6.922718    1.621940   -0.233380
     30          6           0       -6.419107   -0.667793   -0.285240
     31          6           0        5.550536    2.095725   -0.123142
     32          6           0       -5.002029   -1.240739   -0.329159
     33          6           0        4.468878    1.166822    0.010794
     34          6           0       -4.000448   -0.442915   -0.151051
     35          6           0        3.004343    1.648330    0.129402
     36          6           0       -2.596660   -0.821471   -0.367471
     37          6           0        2.713495    3.036559    0.433406
     38          6           0       -2.262389   -2.136104   -0.917767
     39          6           0        2.012737    0.717104   -0.047881
     40          6           0       -1.619333    0.057483   -0.000584
     41          6           0        0.644132    0.872076    0.070980
     42          6           0       -0.239467   -0.095098   -0.088080
     43          1           0       13.580394   -0.489413    1.310918
     44          1           0       13.425730   -2.081953    2.061126
     45          1           0      -14.156797   -0.565479    1.640784
     46          1           0      -14.083597   -0.664189   -0.164808
     47          1           0       12.598529   -2.770684   -0.186980
     48          1           0      -12.741391    1.597968    1.856338
     49          1           0       13.722876   -0.151898   -1.239581
     50          1           0       13.229005   -1.637800   -2.247864
     51          1           0      -13.551317    1.749513   -1.163798
     52          1           0      -12.474771    2.777930   -0.222975
     53          1           0       11.745039   -0.690700    3.266794
     54          1           0       10.257139   -0.061012    3.011218
     55          1           0       11.826727    0.709842    2.619272
     56          1           0       10.872686   -3.093513    0.553206
     57          1           0       11.002241   -2.975250    2.389753
     58          1           0        9.609440   -2.209073    1.602772
     59          1           0      -11.477454   -0.003966    2.602762
     60          1           0      -10.544232   -1.510719    2.066868
     61          1           0      -12.175099   -1.367707    3.065397
     62          1           0      -13.026209   -2.749054    1.106668
     63          1           0      -11.352380   -3.004547    0.655951
     64          1           0      -13.127189   -2.314376   -0.456556
     65          1           0        8.900150    0.046541    0.657011
     66          1           0      -10.021741   -1.914369   -1.086617
     67          1           0       10.003869    0.527811   -2.307193
     68          1           0       11.611044    1.118721   -2.929069
     69          1           0       10.778235   -0.455995   -3.104582
     70          1           0      -11.371950    1.702325   -2.825593
     71          1           0      -10.153313    0.800501   -2.392440
     72          1           0      -10.173496    2.580138   -1.707459
     73          1           0       14.581277   -3.075293    0.240900
     74          1           0      -15.170837    1.482391    1.826774
     75          1           0        9.868171    2.393814   -0.851114
     76          1           0       -8.696426    0.368959   -0.034419
     77          1           0        8.527397    4.474115   -0.358753
     78          1           0        6.927561    4.167862    0.278281
     79          1           0        8.518448    3.901656    1.110690
     80          1           0       -8.209406   -3.480549   -0.796885
     81          1           0       -8.443617   -2.502999   -2.230146
     82          1           0       -6.699180   -2.974746   -1.784239
     83          1           0        7.246553    0.732372   -0.531445
     84          1           0       -6.233958    0.473863    0.134475
     85          1           0        5.321508    3.227785   -0.118626
     86          1           0       -4.923363   -2.255685   -0.859247
     87          1           0        4.645682   -0.053293   -0.063577
     88          1           0       -4.189061    0.562938    0.256832
     89          1           0        3.074062    3.423076    1.339504
     90          1           0        1.666906    3.055065    0.500575
     91          1           0        3.270060    3.771331   -0.195987
     92          1           0       -2.841037   -2.984402   -0.497963
     93          1           0       -2.509818   -2.050541   -2.121049
     94          1           0       -1.207847   -2.388380   -0.842584
     95          1           0        2.263813   -0.303703   -0.467946
     96          1           0       -1.988779    1.034150    0.388275
     97          1           0       -0.065545    1.933085    0.278911
     98          1           0       -0.100789   -1.165771   -0.273984
 ---------------------------------------------------------------------

 SCF Done:  E(RCAM-B3LYP) =  -1706.89056175     A.U. after   14 cycles

 Excitation energies and oscillator strengths:

 Excited State   1:      Singlet-A      2.9287 eV  423.34 nm  f=3.5413  <S**2>=0.000
     155 ->158        -0.16996
     156 ->157         0.68114
 This state for optimization and/or second-order correction.
 Total Energy, E(TD-HF/TD-DFT) =  -1706.78293314
 Copying the excited state density for this state as the 1-particle RhoCI density.

 The electronic state is 1-A.
 Alpha  occ. eigenvalues --  -19.22378 -19.21685 -10.30943 -10.29343 -10.28812
 Alpha  occ. eigenvalues --  -10.28439 -10.28273 -10.28193 -10.27950 -10.27696
 Alpha  occ. eigenvalues --  -10.27494 -10.27222 -10.27177 -10.27069 -10.26840
 Alpha  occ. eigenvalues --  -10.26565 -10.26513 -10.26482 -10.26400 -10.26371
 Alpha  occ. eigenvalues --  -10.26256 -10.26216 -10.26039 -10.25999 -10.25993
 Alpha  occ. eigenvalues --  -10.25652 -10.25507 -10.25401 -10.25319 -10.25272
 Alpha  occ. eigenvalues --  -10.25249 -10.24635 -10.24562 -10.24559 -10.24528
 Alpha  occ. eigenvalues --  -10.24407 -10.24340 -10.24339 -10.24272 -10.23925
 Alpha  occ. eigenvalues --  -10.23737 -10.23381  -1.11417  -1.08185  -0.93976
 Alpha  occ. eigenvalues --   -0.93448  -0.92721  -0.92119  -0.91085  -0.90422
 Alpha  occ. eigenvalues --   -0.87842  -0.87433  -0.87196  -0.86440  -0.84584
 Alpha  occ. eigenvalues --   -0.83042  -0.82359  -0.81823  -0.79476  -0.78793
 Alpha  occ. eigenvalues --   -0.77601  -0.76906  -0.76265  -0.76048  -0.75900
 Alpha  occ. eigenvalues --   -0.75432  -0.75016  -0.74619  -0.73928  -0.70715
 Alpha  occ. eigenvalues --   -0.69002  -0.67044  -0.65089  -0.64537  -0.64327
 Alpha  occ. eigenvalues --   -0.63680  -0.62513  -0.60924  -0.60515  -0.60153
 Alpha  occ. eigenvalues --   -0.60074  -0.59431  -0.58460  -0.57237  -0.56429
 Alpha  occ. eigenvalues --   -0.56109  -0.55037  -0.54660  -0.54131  -0.53620
 Alpha  occ. eigenvalues --   -0.53580  -0.53160  -0.52508  -0.52284  -0.51229
 Alpha  occ. eigenvalues --   -0.50999  -0.50350  -0.50031  -0.49889  -0.49467
 Alpha  occ. eigenvalues --   -0.48934  -0.48596  -0.48523  -0.47980  -0.47801
 Alpha  occ. eigenvalues --   -0.47480  -0.47302  -0.47094  -0.46976  -0.46723
 Alpha  occ. eigenvalues --   -0.46248  -0.46152  -0.45564  -0.45478  -0.45007
 Alpha  occ. eigenvalues --   -0.44963  -0.44730  -0.43872  -0.43519  -0.43374
 Alpha  occ. eigenvalues --   -0.43147  -0.42728  -0.42503  -0.42270  -0.41957
 Alpha  occ. eigenvalues --   -0.41926  -0.41515  -0.41318  -0.40858  -0.40635
 Alpha  occ. eigenvalues --   -0.40313  -0.39745  -0.39489  -0.39229  -0.39056
 Alpha  occ. eigenvalues --   -0.38833  -0.38621  -0.38450  -0.38264  -0.37851
 Alpha  occ. eigenvalues --   -0.37333  -0.36899  -0.36848  -0.36082  -0.35568
 Alpha  occ. eigenvalues --   -0.34773  -0.34515  -0.33601  -0.32282  -0.30968
 Alpha  occ. eigenvalues --   -0.30747  -0.30263  -0.28895  -0.26862  -0.24461
 Alpha  occ. eigenvalues --   -0.21130
 Alpha virt. eigenvalues --   -0.03716   0.00346   0.03053   0.05912   0.08381
 Alpha virt. eigenvalues --    0.09640   0.10367   0.10606   0.10743   0.11235
 Alpha virt. eigenvalues --    0.11726   0.12501   0.12748   0.13024   0.13240

 Mulliken charges:
               1
     1  O   -0.556512
     2  O   -0.542638
     3  C   -0.007813
     4  C   -0.006415
     5  C   -0.192641
     6  C   -0.208900
     7  C    0.147939
     8  C    0.206251
     9  C    0.066868
    10  C    0.084546
    11  C   -0.199075
    12  C   -0.213502
    13  C    0.030351
    14  C    0.037263
    15  C   -0.306467
    16  C   -0.292777
    17  C   -0.300419
    18  C   -0.270495
    19  C   -0.099907
    20  C   -0.177326
    21  C   -0.365661
    22  C   -0.362328
    23  C   -0.087017
    24  C   -0.013289
    25  C    0.058665
    26  C    0.086143
    27  C   -0.346837
    28  C   -0.375416
    29  C   -0.073883
    30  C   -0.142366
    31  C   -0.115230
    32  C   -0.091794
    33  C   -0.115943
    34  C   -0.084063
    35  C    0.107141
    36  C    0.115620
    37  C   -0.376520
    38  C   -0.376623
    39  C   -0.143510
    40  C   -0.137146
    41  C   -0.084097
    42  C   -0.044174
    43  H    0.098678
    44  H    0.068297
    45  H    0.067479
    46  H    0.063912
    47  H    0.080536
    48  H    0.031188
    49  H    0.117384
    50  H    0.088523
    51  H    0.122980
    52  H    0.099487
    53  H    0.101687
    54  H    0.070505
    55  H    0.120618
    56  H    0.080932
    57  H    0.097402
    58  H    0.113068
    59  H    0.095632
    60  H    0.111123
    61  H    0.099532
    62  H    0.111827
    63  H    0.081039
    64  H    0.084085
    65  H    0.075374
    66  H    0.074706
    67  H    0.111671
    68  H    0.118827
    69  H    0.117251
    70  H    0.119738
    71  H    0.102644
    72  H    0.099964
    73  H    0.307740
    74  H    0.312133
    75  H    0.084798
    76  H    0.068865
    77  H    0.099028
    78  H    0.101103
    79  H    0.134892
    80  H    0.121306
    81  H    0.121334
    82  H    0.110770
    83  H    0.072251
    84  H    0.074354
    85  H    0.088074
    86  H    0.080137
    87  H    0.082531
    88  H    0.086240
    89  H    0.129708
    90  H    0.117655
    91  H    0.114282
    92  H    0.122190
    93  H    0.102639
    94  H    0.114964
    95  H    0.091281
    96  H    0.064806
    97  H    0.070897
    98  H    0.069928
 Sum of Mulliken charges =  -0.00000

 Dipole moment (field-independent basis, Debye):
    X=             -0.1618    Y=             -1.2749    Z=              1.3468  Tot=              1.8616
 Quadrupole moment (field-independent basis, Debye-Ang):
   XX=           -284.7526   YY=           -244.9730   ZZ=           -257.9962
   XY=             13.5761   XZ=              0.9398   YZ=              0.2229

 Normal termination of Gaussian 16 at Thu Jul 11 03:11:49 2019.
