 Gaussian 16, Revision A.03,
 Gaussian 16:  ES64L-G16RevA.03 25-Dec-2016

 -------------------------------------
 # td=(NStates=1) CAM-B3LYP/6-31G(d,p)
 -------------------------------------

 --
 TD
 --
 Symbolic Z-matrix:
 Charge =  0 Multiplicity = 1

                         Standard orientation:
 ---------------------------------------------------------------------
 Center     Atomic      Atomic             Coordinates (Angstroms)
 Number     Number       Type             X           Y           Z
 ---------------------------------------------------------------------
      1          8           0       14.564616   -2.333173   -0.385329
      2          8           0      -14.838432    1.796231    0.874044
      3          6           0       11.345657   -1.102057    1.255426
      4          6           0      -12.267866   -1.009311    0.675953
      5          6           0       12.794531   -1.561196    1.163874
      6          6           0      -13.597877   -0.299564    0.772444
      7          6           0       13.183850   -2.024501   -0.290617
      8          6           0      -13.553781    1.271823    0.823253
      9          6           0       10.942994   -0.372083   -0.019515
     10          6           0      -11.260778   -0.214478   -0.165232
     11          6           0       13.058808   -0.858271   -1.316365
     12          6           0      -12.758773    1.708237   -0.349906
     13          6           0       11.677337   -0.228252   -1.148662
     14          6           0      -11.483422    0.948980   -0.693310
     15          6           0       11.197970   -0.291524    2.506494
     16          6           0       10.518433   -2.372960    1.315363
     17          6           0      -11.671406   -1.299554    2.149179
     18          6           0      -12.679561   -2.500805    0.136068
     19          6           0        9.611657    0.280208    0.131070
     20          6           0      -10.046576   -0.990213   -0.433871
     21          6           0       11.223105    0.474593   -2.389776
     22          6           0      -10.727833    1.615768   -1.733888
     23          6           0        9.384329    1.596934   -0.005625
     24          6           0       -8.757738   -0.475843   -0.277241
     25          6           0        8.062948    2.257248    0.071327
     26          6           0       -7.552338   -1.228640   -0.536444
     27          6           0        8.169384    3.651206    0.514771
     28          6           0       -7.618590   -2.649675   -0.977801
     29          6           0        6.843722    1.564831   -0.084687
     30          6           0       -6.404235   -0.484531   -0.320832
     31          6           0        5.566790    2.118592    0.149101
     32          6           0       -4.966352   -0.966745   -0.466849
     33          6           0        4.543168    1.313239   -0.087564
     34          6           0       -3.923730   -0.298674   -0.172595
     35          6           0        3.052524    1.740984    0.076698
     36          6           0       -2.644565   -0.728423   -0.379864
     37          6           0        2.819698    3.107290    0.617897
     38          6           0       -2.209423   -2.148905   -0.892396
     39          6           0        2.127897    0.851277   -0.262383
     40          6           0       -1.573906    0.130920   -0.201049
     41          6           0        0.675207    1.014303   -0.047429
     42          6           0       -0.139964    0.000425   -0.328686
     43          1           0       13.425445   -0.562577    1.486435
     44          1           0       12.975883   -2.403242    1.922705
     45          1           0      -14.083307   -0.622061    1.633031
     46          1           0      -14.321235   -0.471221   -0.185095
     47          1           0       12.557704   -2.993904   -0.642178
     48          1           0      -12.809530    1.554836    1.797425
     49          1           0       13.854553   -0.213028   -1.043304
     50          1           0       13.322330   -1.281480   -2.269271
     51          1           0      -13.650191    1.650201   -1.270171
     52          1           0      -12.675006    2.664282   -0.564044
     53          1           0       11.366256   -0.807996    3.278500
     54          1           0       10.155846   -0.097053    2.708640
     55          1           0       11.841109    0.506935    2.363753
     56          1           0       10.597262   -2.719617    0.337608
     57          1           0       10.678385   -2.997420    2.174375
     58          1           0        9.473637   -2.215622    1.479961
     59          1           0      -11.481452   -0.331844    2.455258
     60          1           0      -10.783871   -1.777322    2.079289
     61          1           0      -12.406880   -1.883743    2.828818
     62          1           0      -13.554798   -2.805334    0.778718
     63          1           0      -11.837584   -3.034584    0.078975
     64          1           0      -13.140211   -2.277092   -0.814400
     65          1           0        8.652425   -0.307507    0.334787
     66          1           0      -10.037952   -1.901218   -0.838689
     67          1           0       10.127251    0.846772   -2.343891
     68          1           0       11.905884    1.413725   -2.455402
     69          1           0       11.337847   -0.101607   -3.397290
     70          1           0      -11.279277    1.937298   -2.685183
     71          1           0       -9.750614    0.922939   -2.012943
     72          1           0      -10.280745    2.648732   -1.446452
     73          1           0       14.678604   -3.114788    0.190077
     74          1           0      -15.497678    1.412887    1.510572
     75          1           0       10.261449    2.288816   -0.294565
     76          1           0       -8.550589    0.594287    0.159848
     77          1           0        8.855558    4.060108   -0.137167
     78          1           0        7.262510    4.110166    0.283927
     79          1           0        8.670790    3.702343    1.631013
     80          1           0       -8.365060   -3.039446   -0.235370
     81          1           0       -8.004711   -2.819569   -1.893980
     82          1           0       -6.596276   -3.072900   -0.929520
     83          1           0        6.859772    0.475706   -0.209344
     84          1           0       -6.532994    0.564562    0.076858
     85          1           0        5.428823    3.116338    0.475645
     86          1           0       -4.978663   -2.055217   -0.975255
     87          1           0        4.597881    0.431774   -0.543698
     88          1           0       -4.047118    0.666312    0.431724
     89          1           0        3.183107    3.352758    1.737753
     90          1           0        1.702035    3.145086    0.894044
     91          1           0        3.172415    3.882650   -0.249414
     92          1           0       -2.502043   -2.824297   -0.061538
     93          1           0       -2.921555   -2.243699   -1.886740
     94          1           0       -1.102792   -2.325430   -1.213014
     95          1           0        2.381679   -0.112028   -0.597806
     96          1           0       -2.023228    1.172561    0.081221
     97          1           0        0.208261    2.221778    0.044834
     98          1           0        0.103425   -0.879383   -0.627775
 ---------------------------------------------------------------------

 SCF Done:  E(RCAM-B3LYP) =  -1706.95343629     A.U. after   14 cycles

 Excitation energies and oscillator strengths:

 Excited State   1:      Singlet-A      3.0268 eV  409.62 nm  f=3.6904  <S**2>=0.000
     155 ->158         0.20467
     156 ->157         0.66795
 This state for optimization and/or second-order correction.
 Total Energy, E(TD-HF/TD-DFT) =  -1706.84220437
 Copying the excited state density for this state as the 1-particle RhoCI density.

 The electronic state is 1-A.
 Alpha  occ. eigenvalues --  -19.21858 -19.21137 -10.31745 -10.31540 -10.28148
 Alpha  occ. eigenvalues --  -10.27987 -10.27947 -10.27388 -10.27306 -10.27094
 Alpha  occ. eigenvalues --  -10.27049 -10.26925 -10.26902 -10.26857 -10.26843
 Alpha  occ. eigenvalues --  -10.26789 -10.26569 -10.26336 -10.26325 -10.26212
 Alpha  occ. eigenvalues --  -10.26135 -10.26100 -10.26081 -10.25941 -10.25932
 Alpha  occ. eigenvalues --  -10.25671 -10.25651 -10.25589 -10.25560 -10.25443
 Alpha  occ. eigenvalues --  -10.25238 -10.25195 -10.25178 -10.25092 -10.24996
 Alpha  occ. eigenvalues --  -10.24897 -10.24836 -10.24672 -10.24163 -10.23470
 Alpha  occ. eigenvalues --  -10.23063 -10.21668  -1.09688  -1.09443  -0.93851
 Alpha  occ. eigenvalues --   -0.93583  -0.92417  -0.91638  -0.90571  -0.89933
 Alpha  occ. eigenvalues --   -0.87845  -0.87320  -0.86694  -0.85317  -0.84428
 Alpha  occ. eigenvalues --   -0.83342  -0.81913  -0.79720  -0.79574  -0.78322
 Alpha  occ. eigenvalues --   -0.77712  -0.76635  -0.76174  -0.75891  -0.75683
 Alpha  occ. eigenvalues --   -0.75125  -0.74826  -0.74620  -0.73718  -0.70193
 Alpha  occ. eigenvalues --   -0.68160  -0.67019  -0.65886  -0.65009  -0.64336
 Alpha  occ. eigenvalues --   -0.63628  -0.62878  -0.61440  -0.60484  -0.59396
 Alpha  occ. eigenvalues --   -0.58845  -0.58053  -0.57916  -0.57373  -0.55987
 Alpha  occ. eigenvalues --   -0.55388  -0.54880  -0.54771  -0.54325  -0.53957
 Alpha  occ. eigenvalues --   -0.53308  -0.52807  -0.52457  -0.52327  -0.51988
 Alpha  occ. eigenvalues --   -0.50683  -0.50393  -0.49949  -0.49704  -0.49050
 Alpha  occ. eigenvalues --   -0.48926  -0.48565  -0.48513  -0.48420  -0.47990
 Alpha  occ. eigenvalues --   -0.47857  -0.47615  -0.47533  -0.46663  -0.46475
 Alpha  occ. eigenvalues --   -0.45967  -0.45830  -0.45259  -0.45247  -0.44766
 Alpha  occ. eigenvalues --   -0.44675  -0.44641  -0.44468  -0.44303  -0.43977
 Alpha  occ. eigenvalues --   -0.43370  -0.42949  -0.42499  -0.42144  -0.41945
 Alpha  occ. eigenvalues --   -0.41744  -0.41432  -0.40951  -0.40768  -0.40687
 Alpha  occ. eigenvalues --   -0.40249  -0.39964  -0.39794  -0.39762  -0.39100
 Alpha  occ. eigenvalues --   -0.38941  -0.38428  -0.38129  -0.37838  -0.37215
 Alpha  occ. eigenvalues --   -0.36725  -0.36518  -0.36021  -0.35855  -0.35830
 Alpha  occ. eigenvalues --   -0.35503  -0.34752  -0.33335  -0.31929  -0.31812
 Alpha  occ. eigenvalues --   -0.30854  -0.29573  -0.28438  -0.26586  -0.23854
 Alpha  occ. eigenvalues --   -0.21304
 Alpha virt. eigenvalues --   -0.03328  -0.00031   0.03053   0.06426   0.07593
 Alpha virt. eigenvalues --    0.09129   0.10649   0.11029   0.11831   0.12161
 Alpha virt. eigenvalues --    0.12507   0.12655   0.13298   0.13466   0.13700

 Mulliken charges:
               1
     1  O   -0.552526
     2  O   -0.564478
     3  C   -0.025309
     4  C   -0.045374
     5  C   -0.173747
     6  C   -0.186022
     7  C    0.150792
     8  C    0.202807
     9  C    0.033847
    10  C    0.059574
    11  C   -0.214246
    12  C   -0.194633
    13  C    0.062498
    14  C    0.135326
    15  C   -0.272995
    16  C   -0.304947
    17  C   -0.297145
    18  C   -0.292694
    19  C   -0.125206
    20  C   -0.173079
    21  C   -0.360549
    22  C   -0.386547
    23  C   -0.089194
    24  C   -0.092231
    25  C    0.041756
    26  C    0.114756
    27  C   -0.344986
    28  C   -0.364752
    29  C   -0.114790
    30  C   -0.146248
    31  C   -0.059396
    32  C   -0.107967
    33  C   -0.100015
    34  C   -0.087547
    35  C    0.109769
    36  C    0.111860
    37  C   -0.369844
    38  C   -0.356832
    39  C   -0.128228
    40  C   -0.151793
    41  C   -0.089468
    42  C   -0.026459
    43  H    0.074160
    44  H    0.074731
    45  H    0.080633
    46  H    0.075916
    47  H    0.064805
    48  H    0.029697
    49  H    0.131294
    50  H    0.117557
    51  H    0.057727
    52  H    0.109061
    53  H    0.102658
    54  H    0.097695
    55  H    0.103851
    56  H    0.111752
    57  H    0.097545
    58  H    0.096017
    59  H    0.109904
    60  H    0.113441
    61  H    0.084965
    62  H    0.101431
    63  H    0.104339
    64  H    0.106183
    65  H    0.087411
    66  H    0.084910
    67  H    0.114733
    68  H    0.102921
    69  H    0.102088
    70  H    0.114249
    71  H    0.101921
    72  H    0.101056
    73  H    0.301199
    74  H    0.320530
    75  H    0.078399
    76  H    0.086570
    77  H    0.123533
    78  H    0.108810
    79  H    0.112023
    80  H    0.117395
    81  H    0.139740
    82  H    0.109457
    83  H    0.079835
    84  H    0.077479
    85  H    0.093152
    86  H    0.071813
    87  H    0.069080
    88  H    0.095787
    89  H    0.111799
    90  H    0.101541
    91  H    0.112977
    92  H    0.126457
    93  H    0.097292
    94  H    0.110084
    95  H    0.084358
    96  H    0.049730
    97  H    0.083931
    98  H    0.058641
 Sum of Mulliken charges =  -0.00000

 Dipole moment (field-independent basis, Debye):
    X=              0.0223    Y=             -1.7796    Z=              1.3453  Tot=              2.2310
 Quadrupole moment (field-independent basis, Debye-Ang):
   XX=           -273.1235   YY=           -246.7372   ZZ=           -259.7243
   XY=              9.2786   XZ=              1.4264   YZ=             -0.1072

 Normal termination of Gaussian 16 at Sat Jul  6 00:57:30 2019.
