 Gaussian 16, Revision A.03,
 Gaussian 16:  ES64L-G16RevA.03 25-Dec-2016

 -------------------------------------
 # td=(NStates=1) CAM-B3LYP/6-31G(d,p)
 -------------------------------------

 --
 TD
 --
 Symbolic Z-matrix:
 Charge =  0 Multiplicity = 1

                         Standard orientation:
 ---------------------------------------------------------------------
 Center     Atomic      Atomic             Coordinates (Angstroms)
 Number     Number       Type             X           Y           Z
 ---------------------------------------------------------------------
      1          8           0       14.768781   -2.351930   -0.461966
      2          8           0      -14.841286    2.006293    0.794957
      3          6           0       11.538976   -0.918826    1.209453
      4          6           0      -12.499741   -1.008477    0.742249
      5          6           0       13.033387   -1.296343    1.119768
      6          6           0      -13.755565   -0.144366    0.795507
      7          6           0       13.310996   -1.985824   -0.207097
      8          6           0      -13.547376    1.313896    0.833444
      9          6           0       10.976994   -0.327897    0.008635
     10          6           0      -11.321233   -0.268258   -0.141536
     11          6           0       12.981719   -1.016615   -1.344647
     12          6           0      -12.760295    1.779263   -0.351783
     13          6           0       11.665231   -0.250487   -1.161986
     14          6           0      -11.543488    0.905027   -0.781649
     15          6           0       11.492102   -0.079955    2.439933
     16          6           0       10.746576   -2.208787    1.499167
     17          6           0      -11.830183   -1.184226    2.153003
     18          6           0      -12.752093   -2.423806    0.018233
     19          6           0        9.639079    0.344658    0.175823
     20          6           0      -10.131440   -1.013688   -0.370097
     21          6           0       11.179087    0.354901   -2.380003
     22          6           0      -10.582636    1.672209   -1.699380
     23          6           0        9.421891    1.656849   -0.085915
     24          6           0       -8.967204   -0.441679   -0.379280
     25          6           0        8.007398    2.384122   -0.005706
     26          6           0       -7.653173   -1.213146   -0.559432
     27          6           0        8.055216    3.807047    0.223073
     28          6           0       -7.672688   -2.687709   -0.941556
     29          6           0        6.978699    1.539933   -0.048856
     30          6           0       -6.478220   -0.541875   -0.441518
     31          6           0        5.616156    1.944337    0.116535
     32          6           0       -5.244618   -1.138265   -0.455269
     33          6           0        4.544927    1.156985    0.012624
     34          6           0       -4.039511   -0.397128   -0.276776
     35          6           0        3.083159    1.545538    0.094820
     36          6           0       -2.661441   -0.711261   -0.398929
     37          6           0        2.806068    3.006963    0.537195
     38          6           0       -2.433579   -2.173304   -0.768569
     39          6           0        2.174341    0.593300    0.014081
     40          6           0       -1.654373    0.113212   -0.255449
     41          6           0        0.731646    0.781375    0.048480
     42          6           0       -0.253161   -0.185297   -0.181727
     43          1           0       13.620649   -0.254496    1.240048
     44          1           0       13.444991   -1.951388    1.901599
     45          1           0      -14.460982   -0.693574    1.490045
     46          1           0      -14.298753   -0.300949   -0.013024
     47          1           0       12.639966   -2.812094   -0.446124
     48          1           0      -12.888118    1.657157    1.639092
     49          1           0       13.844087   -0.322243   -1.280045
     50          1           0       13.179957   -1.551497   -2.371559
     51          1           0      -13.368474    1.920649   -1.277777
     52          1           0      -12.519522    2.865616   -0.313979
     53          1           0       12.020956   -0.592353    3.355339
     54          1           0       10.430748    0.211877    2.646732
     55          1           0       12.094260    0.938421    2.356614
     56          1           0       10.764419   -2.872643    0.536018
     57          1           0       11.181564   -2.795695    2.366515
     58          1           0        9.849417   -2.163428    1.831057
     59          1           0      -11.823112   -0.100033    2.853208
     60          1           0      -10.788468   -1.530008    2.092934
     61          1           0      -12.401445   -2.028811    2.775399
     62          1           0      -13.631790   -2.848799    0.668140
     63          1           0      -11.893148   -3.199444    0.123346
     64          1           0      -12.826451   -2.313129   -0.950305
     65          1           0        8.826317   -0.429730    0.667450
     66          1           0      -10.396482   -2.082642   -0.437805
     67          1           0       10.158276    0.782861   -2.199226
     68          1           0       11.878314    1.135532   -2.578229
     69          1           0       11.222430   -0.188361   -3.234462
     70          1           0      -11.016223    2.348884   -2.468440
     71          1           0       -9.858570    0.962097   -2.282114
     72          1           0       -9.986598    2.408839   -1.047570
     73          1           0       15.026248   -3.049150    0.236214
     74          1           0      -15.174282    1.822598    1.663423
     75          1           0        9.994869    2.462551   -0.587159
     76          1           0       -8.977145    0.568983   -0.218738
     77          1           0        8.751573    3.927775   -0.754953
     78          1           0        7.095251    4.341857    0.027017
     79          1           0        8.430051    4.182947    1.210943
     80          1           0       -8.369059   -3.217363   -0.233810
     81          1           0       -8.139621   -3.098907   -2.028830
     82          1           0       -6.739116   -3.287767   -0.765344
     83          1           0        7.087405    0.464131   -0.385783
     84          1           0       -6.380143    0.488001   -0.270781
     85          1           0        5.328819    2.987784    0.298471
     86          1           0       -5.013534   -2.262534   -0.376996
     87          1           0        4.948701    0.109965    0.177888
     88          1           0       -4.272979    0.576327   -0.085067
     89          1           0        3.493531    3.148630    1.432058
     90          1           0        1.754876    3.370756    0.512192
     91          1           0        3.371950    3.676593   -0.160418
     92          1           0       -2.742788   -2.786248    0.241330
     93          1           0       -2.649358   -2.382742   -1.695475
     94          1           0       -1.314854   -2.479391   -0.797334
     95          1           0        2.478346   -0.449725   -0.227632
     96          1           0       -1.896056    1.223484   -0.197468
     97          1           0        0.211286    1.733480    0.209006
     98          1           0        0.068084   -1.201980   -0.358745
 ---------------------------------------------------------------------

 SCF Done:  E(RCAM-B3LYP) =  -1706.98032938     A.U. after   14 cycles

 Excitation energies and oscillator strengths:

 Excited State   1:      Singlet-A      2.7922 eV  444.03 nm  f=3.5644  <S**2>=0.000
     155 ->158        -0.15653
     156 ->157         0.68495
 This state for optimization and/or second-order correction.
 Total Energy, E(TD-HF/TD-DFT) =  -1706.87771667
 Copying the excited state density for this state as the 1-particle RhoCI density.

 The electronic state is 1-A.
 Alpha  occ. eigenvalues --  -19.21308 -19.21290 -10.30569 -10.30288 -10.29043
 Alpha  occ. eigenvalues --  -10.28383 -10.28123 -10.27876 -10.27704 -10.27475
 Alpha  occ. eigenvalues --  -10.27441 -10.27406 -10.27217 -10.27013 -10.26919
 Alpha  occ. eigenvalues --  -10.26845 -10.26672 -10.26578 -10.26555 -10.26445
 Alpha  occ. eigenvalues --  -10.26368 -10.26285 -10.26232 -10.26181 -10.26118
 Alpha  occ. eigenvalues --  -10.25991 -10.25964 -10.25911 -10.25780 -10.25553
 Alpha  occ. eigenvalues --  -10.25541 -10.25520 -10.25339 -10.25332 -10.25248
 Alpha  occ. eigenvalues --  -10.25217 -10.25204 -10.25157 -10.24647 -10.24431
 Alpha  occ. eigenvalues --  -10.24315 -10.23218  -1.09062  -1.05303  -0.94610
 Alpha  occ. eigenvalues --   -0.93167  -0.91982  -0.91604  -0.90443  -0.89773
 Alpha  occ. eigenvalues --   -0.87794  -0.87611  -0.86085  -0.85568  -0.84741
 Alpha  occ. eigenvalues --   -0.83453  -0.82053  -0.80827  -0.79835  -0.77904
 Alpha  occ. eigenvalues --   -0.76887  -0.76731  -0.76258  -0.75934  -0.75765
 Alpha  occ. eigenvalues --   -0.75677  -0.74819  -0.74371  -0.74089  -0.70100
 Alpha  occ. eigenvalues --   -0.68304  -0.67320  -0.65662  -0.64829  -0.64182
 Alpha  occ. eigenvalues --   -0.63682  -0.62410  -0.61516  -0.60870  -0.60212
 Alpha  occ. eigenvalues --   -0.59719  -0.58709  -0.58044  -0.57485  -0.55944
 Alpha  occ. eigenvalues --   -0.55534  -0.55189  -0.54681  -0.53838  -0.53569
 Alpha  occ. eigenvalues --   -0.52685  -0.52319  -0.51807  -0.51468  -0.50797
 Alpha  occ. eigenvalues --   -0.50595  -0.50286  -0.50106  -0.49828  -0.49480
 Alpha  occ. eigenvalues --   -0.49169  -0.48921  -0.48746  -0.48462  -0.48249
 Alpha  occ. eigenvalues --   -0.47768  -0.47399  -0.47183  -0.46792  -0.46326
 Alpha  occ. eigenvalues --   -0.45854  -0.45425  -0.45208  -0.45146  -0.44763
 Alpha  occ. eigenvalues --   -0.44388  -0.43861  -0.43638  -0.43275  -0.43162
 Alpha  occ. eigenvalues --   -0.42487  -0.42109  -0.42011  -0.41897  -0.41778
 Alpha  occ. eigenvalues --   -0.41459  -0.41279  -0.41250  -0.40805  -0.40623
 Alpha  occ. eigenvalues --   -0.40155  -0.40023  -0.39419  -0.39237  -0.39137
 Alpha  occ. eigenvalues --   -0.38841  -0.38565  -0.38476  -0.38293  -0.38017
 Alpha  occ. eigenvalues --   -0.37581  -0.37236  -0.37134  -0.35756  -0.35614
 Alpha  occ. eigenvalues --   -0.35313  -0.34379  -0.33714  -0.33178  -0.32831
 Alpha  occ. eigenvalues --   -0.32534  -0.29502  -0.27815  -0.26643  -0.24388
 Alpha  occ. eigenvalues --   -0.20705
 Alpha virt. eigenvalues --   -0.04042   0.00078   0.03350   0.06061   0.07804
 Alpha virt. eigenvalues --    0.09195   0.10848   0.11631   0.11799   0.12144
 Alpha virt. eigenvalues --    0.12636   0.12801   0.13241   0.13425   0.13630

 Mulliken charges:
               1
     1  O   -0.580626
     2  O   -0.552292
     3  C   -0.022403
     4  C   -0.005441
     5  C   -0.169716
     6  C   -0.174034
     7  C    0.141185
     8  C    0.144128
     9  C    0.072947
    10  C    0.005993
    11  C   -0.236256
    12  C   -0.239217
    13  C    0.067218
    14  C    0.066676
    15  C   -0.290514
    16  C   -0.291089
    17  C   -0.280622
    18  C   -0.312074
    19  C   -0.149036
    20  C   -0.086069
    21  C   -0.365032
    22  C   -0.377610
    23  C   -0.069112
    24  C   -0.090636
    25  C    0.052894
    26  C    0.082887
    27  C   -0.345157
    28  C   -0.364066
    29  C   -0.112780
    30  C   -0.098421
    31  C   -0.077817
    32  C   -0.072942
    33  C   -0.130333
    34  C   -0.140057
    35  C    0.111871
    36  C    0.131314
    37  C   -0.379597
    38  C   -0.365763
    39  C   -0.122638
    40  C   -0.142165
    41  C   -0.093042
    42  C   -0.077331
    43  H    0.087790
    44  H    0.086432
    45  H    0.078573
    46  H    0.121084
    47  H    0.097838
    48  H    0.089857
    49  H    0.121255
    50  H    0.099567
    51  H    0.109652
    52  H    0.106568
    53  H    0.090637
    54  H    0.099448
    55  H    0.087099
    56  H    0.090414
    57  H    0.085449
    58  H    0.111937
    59  H    0.068382
    60  H    0.119260
    61  H    0.075044
    62  H    0.093792
    63  H    0.097624
    64  H    0.132786
    65  H    0.098727
    66  H    0.074842
    67  H    0.109291
    68  H    0.116306
    69  H    0.120443
    70  H    0.107308
    71  H    0.117936
    72  H    0.112085
    73  H    0.302543
    74  H    0.305246
    75  H    0.086901
    76  H    0.090666
    77  H    0.101902
    78  H    0.118942
    79  H    0.136054
    80  H    0.108919
    81  H    0.097784
    82  H    0.116084
    83  H    0.087787
    84  H    0.086230
    85  H    0.057153
    86  H    0.083903
    87  H    0.075193
    88  H    0.058812
    89  H    0.129121
    90  H    0.121654
    91  H    0.118039
    92  H    0.105362
    93  H    0.141488
    94  H    0.084919
    95  H    0.088521
    96  H    0.074064
    97  H    0.074235
    98  H    0.077828
 Sum of Mulliken charges =  -0.00000

 Dipole moment (field-independent basis, Debye):
    X=             -0.0255    Y=             -0.8167    Z=              2.0154  Tot=              2.1748
 Quadrupole moment (field-independent basis, Debye-Ang):
   XX=           -284.1184   YY=           -242.2263   ZZ=           -260.5872
   XY=             14.1567   XZ=              2.6247   YZ=             -0.9775

 Normal termination of Gaussian 16 at Sat Jun 29 02:51:19 2019.
