 Gaussian 16, Revision A.03,
 Gaussian 16:  ES64L-G16RevA.03 25-Dec-2016

 -------------------------------------
 # td=(NStates=1) CAM-B3LYP/6-31G(d,p)
 -------------------------------------

 --
 TD
 --
 Symbolic Z-matrix:
 Charge =  0 Multiplicity = 1

                         Standard orientation:
 ---------------------------------------------------------------------
 Center     Atomic      Atomic             Coordinates (Angstroms)
 Number     Number       Type             X           Y           Z
 ---------------------------------------------------------------------
      1          8           0       14.591375   -2.420644   -0.436776
      2          8           0      -14.876605    1.869473    0.755593
      3          6           0       11.517481   -1.040432    1.345278
      4          6           0      -12.325768   -1.026529    0.764424
      5          6           0       12.997952   -1.375877    1.049510
      6          6           0      -13.751675   -0.375990    0.652732
      7          6           0       13.168910   -2.086724   -0.280832
      8          6           0      -13.565969    1.206556    0.711703
      9          6           0       10.931279   -0.350479    0.108200
     10          6           0      -11.339145   -0.293224   -0.054693
     11          6           0       12.826155   -0.976309   -1.424687
     12          6           0      -12.744442    1.746639   -0.415580
     13          6           0       11.480191   -0.423894   -1.153830
     14          6           0      -11.571971    0.809152   -0.743314
     15          6           0       11.571509    0.014443    2.427688
     16          6           0       10.731607   -2.308513    1.782538
     17          6           0      -11.877493   -0.917122    2.205331
     18          6           0      -12.404477   -2.523905    0.444386
     19          6           0        9.673069    0.354715    0.270221
     20          6           0      -10.108002   -1.098078   -0.351681
     21          6           0       10.912499    0.135185   -2.408850
     22          6           0      -10.686049    1.481428   -1.800673
     23          6           0        9.414512    1.636584   -0.157511
     24          6           0       -8.855950   -0.564802   -0.159090
     25          6           0        8.073174    2.321923   -0.077363
     26          6           0       -7.576118   -1.141740   -0.381257
     27          6           0        8.039602    3.699738    0.329321
     28          6           0       -7.634402   -2.646100   -0.799334
     29          6           0        6.903927    1.514123   -0.086729
     30          6           0       -6.377663   -0.501645   -0.306279
     31          6           0        5.611891    2.003497    0.281895
     32          6           0       -4.970080   -0.955893   -0.539089
     33          6           0        4.502637    1.282391   -0.134960
     34          6           0       -3.952967   -0.214950   -0.348903
     35          6           0        3.061022    1.796551    0.093626
     36          6           0       -2.602235   -0.724048   -0.525754
     37          6           0        2.793418    3.115494    0.682234
     38          6           0       -2.268327   -2.130745   -1.001198
     39          6           0        2.093714    0.804088   -0.343556
     40          6           0       -1.554880    0.073183   -0.237183
     41          6           0        0.654958    0.980824   -0.183230
     42          6           0       -0.081969   -0.042991   -0.439177
     43          1           0       13.798824   -0.378629    1.060090
     44          1           0       13.305375   -2.083247    1.883646
     45          1           0      -14.609167   -0.853481    1.210109
     46          1           0      -14.243529   -0.328250   -0.385057
     47          1           0       12.540908   -2.850890   -0.493347
     48          1           0      -13.033544    1.473153    1.603822
     49          1           0       13.442586   -0.294237   -1.548929
     50          1           0       12.608235   -1.506098   -2.299721
     51          1           0      -13.250797    1.825243   -1.422210
     52          1           0      -12.441191    2.510922   -0.075287
     53          1           0       12.288416   -0.229931    3.449992
     54          1           0       10.447164    0.092150    2.805377
     55          1           0       12.009332    1.005948    2.120689
     56          1           0       10.789955   -3.274541    1.099614
     57          1           0       10.988303   -2.665748    2.761517
     58          1           0        9.746731   -1.874524    1.631975
     59          1           0      -11.886059    0.041545    2.779332
     60          1           0      -10.939104   -1.140834    2.169925
     61          1           0      -12.456637   -1.643796    2.871833
     62          1           0      -13.366116   -3.013072    0.874683
     63          1           0      -11.451147   -2.982928    0.973794
     64          1           0      -12.610489   -2.754635   -0.569988
     65          1           0        8.976237   -0.276961    0.765274
     66          1           0      -10.095856   -2.271617   -0.414783
     67          1           0       10.011975    0.793776   -2.227429
     68          1           0       11.577918    1.052575   -2.777812
     69          1           0       10.871209   -0.329309   -3.227309
     70          1           0      -11.391256    1.965360   -2.688299
     71          1           0       -9.938101    0.786374   -2.190784
     72          1           0      -10.091344    2.442578   -1.624705
     73          1           0       14.784235   -2.934258    0.327497
     74          1           0      -15.022691    1.975735    1.820139
     75          1           0       10.330579    2.420802   -0.424708
     76          1           0       -8.755750    0.667720   -0.027875
     77          1           0        8.701147    4.279144   -0.313220
     78          1           0        7.043533    4.471562    0.099094
     79          1           0        8.355523    3.974852    1.351843
     80          1           0       -7.706022   -3.295568    0.195204
     81          1           0       -8.799239   -2.770403   -1.342131
     82          1           0       -6.688562   -3.009486   -1.580812
     83          1           0        6.822130    0.457338   -0.421595
     84          1           0       -6.574888    0.471571   -0.103844
     85          1           0        5.455875    3.043663    0.755278
     86          1           0       -4.802483   -2.073839   -0.682941
     87          1           0        4.591870    0.340133   -0.565712
     88          1           0       -4.038504    0.789111   -0.002194
     89          1           0        3.207039    2.918175    1.806333
     90          1           0        1.824441    3.492506    0.760082
     91          1           0        3.240454    3.892278    0.123769
     92          1           0       -2.613450   -2.786002   -0.207140
     93          1           0       -2.916960   -2.270978   -2.074494
     94          1           0       -1.342666   -2.404066   -1.263897
     95          1           0        2.573160   -0.099745   -0.819971
     96          1           0       -1.685397    1.161857   -0.008561
     97          1           0        0.084599    1.898090    0.086756
     98          1           0        0.355490   -0.976852   -0.919439
 ---------------------------------------------------------------------

 SCF Done:  E(RCAM-B3LYP) =  -1706.84064450     A.U. after   14 cycles

 Excitation energies and oscillator strengths:

 Excited State   1:      Singlet-A      2.9174 eV  424.98 nm  f=3.2834  <S**2>=0.000
     155 ->158        -0.19557
     156 ->157         0.66421
 This state for optimization and/or second-order correction.
 Total Energy, E(TD-HF/TD-DFT) =  -1706.73343134
 Copying the excited state density for this state as the 1-particle RhoCI density.

 The electronic state is 1-A.
 Alpha  occ. eigenvalues --  -19.21426 -19.20184 -10.29868 -10.29792 -10.29134
 Alpha  occ. eigenvalues --  -10.28684 -10.27990 -10.27878 -10.27652 -10.27624
 Alpha  occ. eigenvalues --  -10.27568 -10.27374 -10.27240 -10.27207 -10.27176
 Alpha  occ. eigenvalues --  -10.27142 -10.26794 -10.26786 -10.26770 -10.26690
 Alpha  occ. eigenvalues --  -10.26561 -10.26551 -10.26531 -10.26487 -10.26443
 Alpha  occ. eigenvalues --  -10.26437 -10.26407 -10.26328 -10.26227 -10.26188
 Alpha  occ. eigenvalues --  -10.26145 -10.25965 -10.25959 -10.25939 -10.25843
 Alpha  occ. eigenvalues --  -10.25741 -10.25660 -10.25357 -10.23950 -10.23555
 Alpha  occ. eigenvalues --  -10.23292 -10.22841  -1.07999  -1.05937  -0.94264
 Alpha  occ. eigenvalues --   -0.93797  -0.92429  -0.90981  -0.90208  -0.89400
 Alpha  occ. eigenvalues --   -0.87895  -0.87653  -0.87597  -0.85226  -0.84667
 Alpha  occ. eigenvalues --   -0.83076  -0.82453  -0.79911  -0.79096  -0.78020
 Alpha  occ. eigenvalues --   -0.76756  -0.76314  -0.76244  -0.76025  -0.75827
 Alpha  occ. eigenvalues --   -0.75064  -0.74781  -0.74042  -0.73204  -0.69556
 Alpha  occ. eigenvalues --   -0.68542  -0.66802  -0.65650  -0.64910  -0.64527
 Alpha  occ. eigenvalues --   -0.63596  -0.62247  -0.62072  -0.61199  -0.60620
 Alpha  occ. eigenvalues --   -0.58974  -0.58354  -0.57971  -0.56571  -0.56255
 Alpha  occ. eigenvalues --   -0.55166  -0.54777  -0.54361  -0.53911  -0.53881
 Alpha  occ. eigenvalues --   -0.53313  -0.52664  -0.52252  -0.51989  -0.51198
 Alpha  occ. eigenvalues --   -0.50427  -0.50295  -0.49845  -0.49407  -0.49322
 Alpha  occ. eigenvalues --   -0.49156  -0.48936  -0.48796  -0.48513  -0.48160
 Alpha  occ. eigenvalues --   -0.47700  -0.47474  -0.47174  -0.46320  -0.46280
 Alpha  occ. eigenvalues --   -0.45902  -0.45814  -0.45635  -0.45412  -0.44316
 Alpha  occ. eigenvalues --   -0.44239  -0.44010  -0.43910  -0.43086  -0.42846
 Alpha  occ. eigenvalues --   -0.42820  -0.42507  -0.42252  -0.41572  -0.41566
 Alpha  occ. eigenvalues --   -0.41427  -0.41280  -0.41237  -0.40729  -0.40045
 Alpha  occ. eigenvalues --   -0.39981  -0.39889  -0.39658  -0.39443  -0.38984
 Alpha  occ. eigenvalues --   -0.38761  -0.38740  -0.38361  -0.38099  -0.37785
 Alpha  occ. eigenvalues --   -0.37357  -0.37295  -0.36156  -0.36075  -0.35784
 Alpha  occ. eigenvalues --   -0.35010  -0.34977  -0.33050  -0.32081  -0.31893
 Alpha  occ. eigenvalues --   -0.30822  -0.29796  -0.28204  -0.26496  -0.24141
 Alpha  occ. eigenvalues --   -0.21259
 Alpha virt. eigenvalues --   -0.03600  -0.00912   0.02596   0.05759   0.07543
 Alpha virt. eigenvalues --    0.08922   0.10023   0.10406   0.11445   0.11608
 Alpha virt. eigenvalues --    0.12293   0.12379   0.12855   0.13436   0.13810

 Mulliken charges:
               1
     1  O   -0.564260
     2  O   -0.566590
     3  C   -0.013096
     4  C   -0.020241
     5  C   -0.176163
     6  C   -0.185177
     7  C    0.159049
     8  C    0.106850
     9  C    0.039031
    10  C    0.079973
    11  C   -0.189467
    12  C   -0.144606
    13  C    0.042023
    14  C    0.034917
    15  C   -0.273394
    16  C   -0.299743
    17  C   -0.290576
    18  C   -0.301065
    19  C   -0.101287
    20  C   -0.179000
    21  C   -0.359115
    22  C   -0.358620
    23  C   -0.124940
    24  C   -0.082164
    25  C    0.079048
    26  C    0.122490
    27  C   -0.373152
    28  C   -0.351829
    29  C   -0.111248
    30  C   -0.120519
    31  C   -0.086661
    32  C   -0.097393
    33  C   -0.108326
    34  C   -0.049770
    35  C    0.088158
    36  C    0.090681
    37  C   -0.365211
    38  C   -0.349243
    39  C   -0.154978
    40  C   -0.160816
    41  C   -0.078069
    42  C   -0.046045
    43  H    0.077650
    44  H    0.066523
    45  H    0.088238
    46  H    0.089375
    47  H    0.093163
    48  H    0.076944
    49  H    0.122815
    50  H    0.104763
    51  H    0.110551
    52  H    0.108876
    53  H    0.060671
    54  H    0.084324
    55  H    0.117592
    56  H    0.092770
    57  H    0.119217
    58  H    0.105540
    59  H    0.094455
    60  H    0.116259
    61  H    0.088670
    62  H    0.090318
    63  H    0.093148
    64  H    0.118839
    65  H    0.094284
    66  H    0.101059
    67  H    0.117804
    68  H    0.084031
    69  H    0.121229
    70  H    0.077760
    71  H    0.125061
    72  H    0.109893
    73  H    0.296331
    74  H    0.304623
    75  H    0.077221
    76  H    0.069022
    77  H    0.117852
    78  H    0.076646
    79  H    0.131300
    80  H    0.110841
    81  H    0.083509
    82  H    0.092154
    83  H    0.088134
    84  H    0.061306
    85  H    0.091220
    86  H    0.089404
    87  H    0.083054
    88  H    0.090543
    89  H    0.113381
    90  H    0.120288
    91  H    0.133162
    92  H    0.126373
    93  H    0.082798
    94  H    0.121936
    95  H    0.090856
    96  H    0.059778
    97  H    0.096811
    98  H    0.080180
 Sum of Mulliken charges =  -0.00000

 Dipole moment (field-independent basis, Debye):
    X=              0.5900    Y=             -0.0468    Z=              2.3251  Tot=              2.3992
 Quadrupole moment (field-independent basis, Debye-Ang):
   XX=           -323.5343   YY=           -243.1883   ZZ=           -259.5786
   XY=              6.8802   XZ=             -5.6227   YZ=              1.1425

 Normal termination of Gaussian 16 at Thu Jun 27 12:53:45 2019.
