 Gaussian 16, Revision A.03,
 Gaussian 16:  ES64L-G16RevA.03 25-Dec-2016

 -------------------------------------
 # td=(NStates=1) CAM-B3LYP/6-31G(d,p)
 -------------------------------------

 --
 TD
 --
 Symbolic Z-matrix:
 Charge =  0 Multiplicity = 1

                         Standard orientation:
 ---------------------------------------------------------------------
 Center     Atomic      Atomic             Coordinates (Angstroms)
 Number     Number       Type             X           Y           Z
 ---------------------------------------------------------------------
      1          8           0       14.855859   -2.055937   -0.368584
      2          8           0      -15.001880    1.880350    0.497596
      3          6           0       11.559533   -1.165832    1.169712
      4          6           0      -12.363712   -0.971512    0.700786
      5          6           0       13.036079   -1.427538    1.073061
      6          6           0      -13.738388   -0.250803    0.669247
      7          6           0       13.479794   -1.797627   -0.363232
      8          6           0      -13.664194    1.293422    0.730083
      9          6           0       10.959654   -0.284144    0.035058
     10          6           0      -11.350039   -0.235335   -0.170195
     11          6           0       13.031037   -0.798980   -1.372147
     12          6           0      -12.773785    1.840320   -0.231394
     13          6           0       11.684400   -0.146780   -1.089131
     14          6           0      -11.546976    1.008948   -0.682510
     15          6           0       11.274927   -0.441547    2.484819
     16          6           0       10.650684   -2.496761    1.313256
     17          6           0      -11.888399   -1.088558    2.178586
     18          6           0      -12.619224   -2.319579    0.221864
     19          6           0        9.741758    0.459006    0.191860
     20          6           0      -10.119985   -0.948356   -0.536082
     21          6           0       11.303049    0.569099   -2.399442
     22          6           0      -10.585974    1.822365   -1.522493
     23          6           0        9.380675    1.708376   -0.183219
     24          6           0       -8.821537   -0.549930   -0.233678
     25          6           0        8.087317    2.282668   -0.034226
     26          6           0       -7.578021   -1.209584   -0.565493
     27          6           0        8.143504    3.758124    0.385942
     28          6           0       -7.708995   -2.666690   -1.010342
     29          6           0        6.936792    1.520475   -0.024412
     30          6           0       -6.438825   -0.646271   -0.295202
     31          6           0        5.545221    1.890672    0.214794
     32          6           0       -5.072882   -1.110409   -0.533951
     33          6           0        4.384175    1.202807    0.071733
     34          6           0       -4.021769   -0.394381   -0.198301
     35          6           0        3.025427    1.610466    0.327231
     36          6           0       -2.693359   -0.843843   -0.504188
     37          6           0        2.792838    3.001619    0.678573
     38          6           0       -2.412662   -2.277309   -0.830665
     39          6           0        2.102058    0.605716   -0.147187
     40          6           0       -1.676587    0.062886   -0.284850
     41          6           0        0.690303    0.771266    0.037038
     42          6           0       -0.205659   -0.143241   -0.319520
     43          1           0       13.601232   -0.483048    1.339885
     44          1           0       13.384554   -2.140323    1.882917
     45          1           0      -14.366422   -0.909288    1.395281
     46          1           0      -14.248314   -0.586448   -0.119621
     47          1           0       13.086212   -2.773558   -0.529616
     48          1           0      -13.189675    1.711318    1.723912
     49          1           0       13.804385   -0.050716   -1.603512
     50          1           0       13.296981   -1.212790   -2.360884
     51          1           0      -13.403542    2.091182   -1.279373
     52          1           0      -12.249223    2.957348   -0.008756
     53          1           0       11.984823   -1.082873    3.213086
     54          1           0       10.308370   -0.355067    2.761960
     55          1           0       11.722812    0.518077    2.338679
     56          1           0       10.691860   -3.189875    0.408387
     57          1           0       10.786625   -3.150052    2.154937
     58          1           0        9.679898   -2.337126    1.207760
     59          1           0      -11.817097   -0.050260    2.532890
     60          1           0      -10.939389   -1.467118    2.277936
     61          1           0      -12.828741   -1.839121    2.448283
     62          1           0      -13.491346   -2.676240    0.900922
     63          1           0      -11.715045   -3.061784    0.357323
     64          1           0      -12.895634   -2.444140   -0.691340
     65          1           0        8.849902   -0.002643    0.697934
     66          1           0      -10.318203   -1.941820   -1.115153
     67          1           0       10.174418    0.927235   -2.386240
     68          1           0       11.857151    1.456925   -2.590482
     69          1           0       11.420213    0.031557   -3.244334
     70          1           0      -11.115234    2.519005   -2.283217
     71          1           0       -9.981188    1.160880   -2.185586
     72          1           0       -9.879586    2.498811   -0.820013
     73          1           0       14.907836   -2.793455    0.238853
     74          1           0      -15.421858    1.487109    1.184052
     75          1           0       10.439207    2.378694   -0.580583
     76          1           0       -8.732254    0.253300    0.512186
     77          1           0        8.918525    4.430419   -0.282876
     78          1           0        7.243861    4.117809    0.532383
     79          1           0        8.723687    3.549935    1.353473
     80          1           0       -8.471518   -3.268654   -0.340241
     81          1           0       -8.208303   -2.868293   -1.980524
     82          1           0       -6.651474   -3.106647   -1.075748
     83          1           0        6.978081    0.491198   -0.252224
     84          1           0       -6.577216    0.335744    0.066595
     85          1           0        5.452302    2.949404    0.701938
     86          1           0       -4.971610   -2.280670   -0.849709
     87          1           0        4.412579    0.223603   -0.293677
     88          1           0       -4.144398    0.729406    0.039797
     89          1           0        3.424098    3.289047    1.609502
     90          1           0        1.803456    3.400090    1.134841
     91          1           0        3.242759    3.571327    0.051878
     92          1           0       -3.061621   -2.868311    0.038946
     93          1           0       -3.028193   -2.610889   -1.665547
     94          1           0       -1.470141   -2.641646   -0.957073
     95          1           0        2.476968   -0.354535   -0.414201
     96          1           0       -1.872978    0.892202    0.521330
     97          1           0        0.301576    1.863380    0.478467
     98          1           0        0.074498   -1.042275   -0.938588
 ---------------------------------------------------------------------

 SCF Done:  E(RCAM-B3LYP) =  -1706.93045263     A.U. after   14 cycles

 Excitation energies and oscillator strengths:

 Excited State   1:      Singlet-A      2.7381 eV  452.81 nm  f=3.5541  <S**2>=0.000
     155 ->158        -0.17117
     156 ->157         0.68012
 This state for optimization and/or second-order correction.
 Total Energy, E(TD-HF/TD-DFT) =  -1706.82982807
 Copying the excited state density for this state as the 1-particle RhoCI density.

 The electronic state is 1-A.
 Alpha  occ. eigenvalues --  -19.20888 -19.20704 -10.31802 -10.29685 -10.28376
 Alpha  occ. eigenvalues --  -10.28073 -10.27931 -10.27771 -10.27728 -10.27650
 Alpha  occ. eigenvalues --  -10.27424 -10.27413 -10.27344 -10.27065 -10.27060
 Alpha  occ. eigenvalues --  -10.27055 -10.27030 -10.26950 -10.26758 -10.26687
 Alpha  occ. eigenvalues --  -10.26642 -10.26601 -10.26538 -10.26534 -10.26533
 Alpha  occ. eigenvalues --  -10.26517 -10.26462 -10.26447 -10.26424 -10.26132
 Alpha  occ. eigenvalues --  -10.25835 -10.25807 -10.25763 -10.25647 -10.25624
 Alpha  occ. eigenvalues --  -10.25528 -10.25312 -10.25212 -10.24655 -10.24381
 Alpha  occ. eigenvalues --  -10.23968 -10.23885  -1.10638  -1.10196  -0.94285
 Alpha  occ. eigenvalues --   -0.93725  -0.92453  -0.91948  -0.90782  -0.90397
 Alpha  occ. eigenvalues --   -0.87827  -0.87349  -0.87076  -0.85567  -0.85153
 Alpha  occ. eigenvalues --   -0.83256  -0.82421  -0.80169  -0.79765  -0.78921
 Alpha  occ. eigenvalues --   -0.77117  -0.76934  -0.76873  -0.76705  -0.76302
 Alpha  occ. eigenvalues --   -0.75884  -0.75808  -0.75477  -0.74152  -0.70510
 Alpha  occ. eigenvalues --   -0.68935  -0.67345  -0.65958  -0.64866  -0.64117
 Alpha  occ. eigenvalues --   -0.63506  -0.62259  -0.60979  -0.60026  -0.59810
 Alpha  occ. eigenvalues --   -0.59419  -0.58717  -0.58053  -0.57984  -0.57067
 Alpha  occ. eigenvalues --   -0.56255  -0.56054  -0.55580  -0.54588  -0.54436
 Alpha  occ. eigenvalues --   -0.53385  -0.52847  -0.52657  -0.52025  -0.51240
 Alpha  occ. eigenvalues --   -0.50986  -0.50639  -0.50394  -0.49978  -0.49602
 Alpha  occ. eigenvalues --   -0.49237  -0.48486  -0.48288  -0.47815  -0.47467
 Alpha  occ. eigenvalues --   -0.47337  -0.47237  -0.46826  -0.46681  -0.46295
 Alpha  occ. eigenvalues --   -0.46006  -0.45877  -0.45546  -0.45434  -0.45319
 Alpha  occ. eigenvalues --   -0.45257  -0.44938  -0.44365  -0.44003  -0.43201
 Alpha  occ. eigenvalues --   -0.43131  -0.42935  -0.42569  -0.42506  -0.42161
 Alpha  occ. eigenvalues --   -0.41677  -0.41185  -0.40966  -0.40845  -0.40641
 Alpha  occ. eigenvalues --   -0.40403  -0.40166  -0.39882  -0.39696  -0.38860
 Alpha  occ. eigenvalues --   -0.38796  -0.38693  -0.38505  -0.38336  -0.38022
 Alpha  occ. eigenvalues --   -0.37835  -0.37366  -0.37096  -0.36905  -0.36432
 Alpha  occ. eigenvalues --   -0.36305  -0.34636  -0.34055  -0.32524  -0.31815
 Alpha  occ. eigenvalues --   -0.31146  -0.29822  -0.28249  -0.26606  -0.24449
 Alpha  occ. eigenvalues --   -0.20987
 Alpha virt. eigenvalues --   -0.04398  -0.00584   0.02356   0.05430   0.07668
 Alpha virt. eigenvalues --    0.08715   0.09723   0.11074   0.11456   0.11644
 Alpha virt. eigenvalues --    0.12052   0.12302   0.12682   0.13108   0.13267

 Mulliken charges:
               1
     1  O   -0.556053
     2  O   -0.537371
     3  C   -0.009548
     4  C   -0.052734
     5  C   -0.211039
     6  C   -0.190437
     7  C    0.172325
     8  C    0.153419
     9  C    0.076387
    10  C    0.045956
    11  C   -0.247289
    12  C   -0.210753
    13  C    0.054933
    14  C    0.077371
    15  C   -0.274301
    16  C   -0.320386
    17  C   -0.247548
    18  C   -0.286395
    19  C   -0.117096
    20  C   -0.157009
    21  C   -0.373460
    22  C   -0.352505
    23  C   -0.110000
    24  C   -0.112562
    25  C    0.066681
    26  C    0.152201
    27  C   -0.332318
    28  C   -0.369408
    29  C   -0.114694
    30  C   -0.130651
    31  C   -0.106625
    32  C   -0.087012
    33  C   -0.105322
    34  C   -0.103124
    35  C    0.130023
    36  C    0.134190
    37  C   -0.384508
    38  C   -0.368494
    39  C   -0.134701
    40  C   -0.162886
    41  C   -0.067378
    42  C   -0.095169
    43  H    0.100663
    44  H    0.078451
    45  H    0.067722
    46  H    0.121222
    47  H    0.083400
    48  H    0.081184
    49  H    0.123490
    50  H    0.115887
    51  H    0.096541
    52  H    0.086723
    53  H    0.070987
    54  H    0.111917
    55  H    0.104704
    56  H    0.080096
    57  H    0.103453
    58  H    0.115975
    59  H    0.096254
    60  H    0.116451
    61  H    0.073384
    62  H    0.075203
    63  H    0.088601
    64  H    0.117991
    65  H    0.085527
    66  H    0.082254
    67  H    0.105251
    68  H    0.118533
    69  H    0.122530
    70  H    0.100662
    71  H    0.122697
    72  H    0.102179
    73  H    0.304289
    74  H    0.298110
    75  H    0.066950
    76  H    0.085839
    77  H    0.103457
    78  H    0.116400
    79  H    0.125609
    80  H    0.106329
    81  H    0.118017
    82  H    0.093040
    83  H    0.080162
    84  H    0.073837
    85  H    0.054041
    86  H    0.075793
    87  H    0.073726
    88  H    0.096272
    89  H    0.107869
    90  H    0.111811
    91  H    0.149476
    92  H    0.104531
    93  H    0.122500
    94  H    0.121072
    95  H    0.096074
    96  H    0.074635
    97  H    0.076944
    98  H    0.078567
 Sum of Mulliken charges =  -0.00000

 Dipole moment (field-independent basis, Debye):
    X=              0.3258    Y=             -1.8706    Z=              1.3022  Tot=              2.3024
 Quadrupole moment (field-independent basis, Debye-Ang):
   XX=           -291.4051   YY=           -246.6046   ZZ=           -262.2869
   XY=             15.4353   XZ=             -4.7519   YZ=              4.6604

 Normal termination of Gaussian 16 at Mon Jul  8 08:41:21 2019.
