 Gaussian 16, Revision A.03,
 Gaussian 16:  ES64L-G16RevA.03 25-Dec-2016

 -------------------------------------
 # td=(NStates=1) CAM-B3LYP/6-31G(d,p)
 -------------------------------------

 --
 TD
 --
 Symbolic Z-matrix:
 Charge =  0 Multiplicity = 1

                         Standard orientation:
 ---------------------------------------------------------------------
 Center     Atomic      Atomic             Coordinates (Angstroms)
 Number     Number       Type             X           Y           Z
 ---------------------------------------------------------------------
      1          8           0       14.650401   -2.302837   -0.116178
      2          8           0      -14.610279    2.077151    0.698375
      3          6           0       11.334075   -1.158982    1.240091
      4          6           0      -12.262179   -0.962214    0.750714
      5          6           0       12.779904   -1.400884    1.201624
      6          6           0      -13.572463   -0.147499    0.866519
      7          6           0       13.280542   -2.006172   -0.139539
      8          6           0      -13.451872    1.337700    0.809227
      9          6           0       11.003297   -0.305787   -0.024295
     10          6           0      -11.295916   -0.325573   -0.188779
     11          6           0       13.075942   -0.918741   -1.210130
     12          6           0      -12.556044    1.754226   -0.406171
     13          6           0       11.733052   -0.212330   -1.122043
     14          6           0      -11.450416    0.881997   -0.764986
     15          6           0       11.114653   -0.431035    2.400680
     16          6           0       10.507382   -2.445541    1.235144
     17          6           0      -11.793305   -0.978347    2.187725
     18          6           0      -12.558802   -2.484290    0.419680
     19          6           0        9.612560    0.328205    0.109868
     20          6           0      -10.126190   -1.081061   -0.367979
     21          6           0       11.309413    0.545139   -2.348372
     22          6           0      -10.544138    1.368608   -1.780092
     23          6           0        9.335274    1.601567   -0.246392
     24          6           0       -8.800548   -0.631971   -0.299246
     25          6           0        8.032601    2.307733    0.142416
     26          6           0       -7.542231   -1.468264   -0.485668
     27          6           0        8.019845    3.742586    0.637586
     28          6           0       -7.606705   -2.920740   -0.811818
     29          6           0        6.893933    1.555425   -0.125521
     30          6           0       -6.408701   -0.775618   -0.346632
     31          6           0        5.517759    1.998297    0.127409
     32          6           0       -5.062765   -1.117725   -0.514707
     33          6           0        4.436744    1.427143   -0.317826
     34          6           0       -4.053986   -0.330925   -0.239338
     35          6           0        3.047287    1.795980    0.030069
     36          6           0       -2.662490   -0.783976   -0.387012
     37          6           0        2.721158    3.126490    0.716552
     38          6           0       -2.295837   -2.075771   -1.163498
     39          6           0        2.022793    0.915103   -0.357287
     40          6           0       -1.725984    0.096688   -0.205601
     41          6           0        0.621765    1.118902   -0.038482
     42          6           0       -0.284497    0.174176   -0.422085
     43          1           0       13.531085   -0.656946    1.415434
     44          1           0       13.145880   -2.048800    2.064111
     45          1           0      -14.055541   -0.577014    1.809759
     46          1           0      -14.389562   -0.451191    0.012530
     47          1           0       12.746051   -2.876928   -0.591462
     48          1           0      -12.923937    1.843168    1.579904
     49          1           0       13.863153   -0.304235   -1.214566
     50          1           0       13.156090   -1.612598   -2.070416
     51          1           0      -13.258252    2.039772   -1.217917
     52          1           0      -12.225621    3.002974   -0.221126
     53          1           0       11.650659   -0.840988    3.198467
     54          1           0        9.923114   -0.362817    2.636753
     55          1           0       11.628017    0.695620    2.363311
     56          1           0       10.709457   -3.089329    0.305019
     57          1           0       10.937687   -2.945552    1.987797
     58          1           0        9.481094   -2.411745    1.404487
     59          1           0      -11.771134    0.045024    2.415568
     60          1           0      -10.840884   -1.528967    2.481686
     61          1           0      -12.498001   -1.454112    2.779293
     62          1           0      -13.278710   -2.766534    1.034696
     63          1           0      -11.660630   -3.154454    0.679606
     64          1           0      -12.827607   -2.511916   -0.660888
     65          1           0        8.988687   -0.156481    0.777293
     66          1           0      -10.470108   -2.086690   -0.522505
     67          1           0       10.370191    0.858971   -2.289665
     68          1           0       11.907188    1.458875   -2.578736
     69          1           0       11.602706   -0.087036   -3.171467
     70          1           0      -11.179139    1.765303   -2.568032
     71          1           0       -9.942003    0.630368   -2.310432
     72          1           0       -9.898399    2.251692   -1.507475
     73          1           0       14.743070   -3.030784    0.451806
     74          1           0      -15.277844    1.911021    1.366244
     75          1           0       10.141015    2.177398   -0.691083
     76          1           0       -8.578907    0.548440   -0.183195
     77          1           0        8.764853    4.179559   -0.091928
     78          1           0        7.111978    4.072629    0.725238
     79          1           0        8.572317    3.819235    1.560641
     80          1           0       -8.087989   -3.300677    0.045177
     81          1           0       -8.158915   -3.166756   -1.774392
     82          1           0       -6.666749   -3.170137   -0.793393
     83          1           0        7.019404    0.748773   -0.859548
     84          1           0       -6.481402    0.183251   -0.114254
     85          1           0        5.097142    2.899792    0.801841
     86          1           0       -5.083297   -2.170409   -0.888925
     87          1           0        4.598582    0.547605   -0.884165
     88          1           0       -4.341555    0.701915    0.095133
     89          1           0        3.250117    3.197194    1.684997
     90          1           0        1.653000    3.368660    0.907837
     91          1           0        3.208016    3.674125    0.018795
     92          1           0       -2.709310   -2.840252   -0.425548
     93          1           0       -2.719011   -2.173461   -2.180097
     94          1           0       -1.145645   -2.185469   -1.376211
     95          1           0        2.394551    0.086502   -1.129554
     96          1           0       -2.174842    1.057164    0.172100
     97          1           0        0.113498    2.033950    0.638362
     98          1           0       -0.054030   -0.706336   -1.125304
 ---------------------------------------------------------------------

 SCF Done:  E(RCAM-B3LYP) =  -1706.98108558     A.U. after   14 cycles

 Excitation energies and oscillator strengths:

 Excited State   1:      Singlet-A      3.0601 eV  405.16 nm  f=3.6671  <S**2>=0.000
     155 ->158        -0.19969
     156 ->157         0.66766
 This state for optimization and/or second-order correction.
 Total Energy, E(TD-HF/TD-DFT) =  -1706.86862902
 Copying the excited state density for this state as the 1-particle RhoCI density.

 The electronic state is 1-A.
 Alpha  occ. eigenvalues --  -19.21122 -19.20861 -10.30160 -10.29987 -10.28311
 Alpha  occ. eigenvalues --  -10.28090 -10.27793 -10.27459 -10.27205 -10.26988
 Alpha  occ. eigenvalues --  -10.26752 -10.26728 -10.26600 -10.26529 -10.26504
 Alpha  occ. eigenvalues --  -10.26355 -10.26279 -10.26277 -10.26252 -10.26148
 Alpha  occ. eigenvalues --  -10.26091 -10.25811 -10.25623 -10.25504 -10.25428
 Alpha  occ. eigenvalues --  -10.25377 -10.25369 -10.25165 -10.24982 -10.24978
 Alpha  occ. eigenvalues --  -10.24930 -10.24927 -10.24896 -10.24725 -10.24239
 Alpha  occ. eigenvalues --  -10.24214 -10.24026 -10.23807 -10.23720 -10.23537
 Alpha  occ. eigenvalues --  -10.23312 -10.23233  -1.11093  -1.10517  -0.95076
 Alpha  occ. eigenvalues --   -0.94325  -0.92288  -0.91260  -0.90219  -0.89494
 Alpha  occ. eigenvalues --   -0.88378  -0.87944  -0.86617  -0.85340  -0.84627
 Alpha  occ. eigenvalues --   -0.83720  -0.82104  -0.80840  -0.80156  -0.77944
 Alpha  occ. eigenvalues --   -0.77882  -0.77122  -0.76950  -0.76657  -0.76005
 Alpha  occ. eigenvalues --   -0.75614  -0.75471  -0.74626  -0.73973  -0.70401
 Alpha  occ. eigenvalues --   -0.68955  -0.67603  -0.65690  -0.64915  -0.64770
 Alpha  occ. eigenvalues --   -0.64322  -0.62122  -0.61295  -0.60178  -0.59692
 Alpha  occ. eigenvalues --   -0.59468  -0.58520  -0.58437  -0.57344  -0.56062
 Alpha  occ. eigenvalues --   -0.55760  -0.55127  -0.54957  -0.54346  -0.53593
 Alpha  occ. eigenvalues --   -0.53344  -0.52928  -0.52370  -0.51869  -0.51609
 Alpha  occ. eigenvalues --   -0.50827  -0.50482  -0.50221  -0.50142  -0.49767
 Alpha  occ. eigenvalues --   -0.49535  -0.49214  -0.48994  -0.48548  -0.48247
 Alpha  occ. eigenvalues --   -0.47860  -0.47737  -0.47347  -0.47067  -0.47003
 Alpha  occ. eigenvalues --   -0.46653  -0.46115  -0.45933  -0.45278  -0.45183
 Alpha  occ. eigenvalues --   -0.45067  -0.44876  -0.44458  -0.44043  -0.43788
 Alpha  occ. eigenvalues --   -0.43380  -0.42997  -0.42602  -0.42414  -0.42176
 Alpha  occ. eigenvalues --   -0.41705  -0.41522  -0.40991  -0.40568  -0.40318
 Alpha  occ. eigenvalues --   -0.40263  -0.40044  -0.39916  -0.39828  -0.39453
 Alpha  occ. eigenvalues --   -0.38581  -0.38358  -0.38322  -0.38086  -0.37893
 Alpha  occ. eigenvalues --   -0.37118  -0.36477  -0.36192  -0.35978  -0.35389
 Alpha  occ. eigenvalues --   -0.35187  -0.34235  -0.33328  -0.32217  -0.32085
 Alpha  occ. eigenvalues --   -0.31960  -0.29659  -0.27955  -0.26310  -0.23673
 Alpha  occ. eigenvalues --   -0.21123
 Alpha virt. eigenvalues --   -0.02949   0.00368   0.03216   0.06197   0.08150
 Alpha virt. eigenvalues --    0.10537   0.11087   0.11695   0.12553   0.12673
 Alpha virt. eigenvalues --    0.13039   0.13481   0.13828   0.13852   0.14314

 Mulliken charges:
               1
     1  O   -0.548588
     2  O   -0.566369
     3  C    0.011817
     4  C   -0.042662
     5  C   -0.213325
     6  C   -0.206459
     7  C    0.136202
     8  C    0.213986
     9  C    0.060026
    10  C    0.067987
    11  C   -0.211447
    12  C   -0.260561
    13  C    0.038468
    14  C    0.123223
    15  C   -0.280872
    16  C   -0.294723
    17  C   -0.282897
    18  C   -0.304249
    19  C   -0.096038
    20  C   -0.150363
    21  C   -0.353758
    22  C   -0.379566
    23  C   -0.129757
    24  C   -0.104600
    25  C    0.051590
    26  C    0.070672
    27  C   -0.337217
    28  C   -0.340347
    29  C   -0.144460
    30  C   -0.099556
    31  C   -0.077998
    32  C   -0.053294
    33  C   -0.093016
    34  C   -0.132514
    35  C    0.070266
    36  C    0.099223
    37  C   -0.367437
    38  C   -0.356709
    39  C   -0.131259
    40  C   -0.126933
    41  C   -0.094921
    42  C   -0.067922
    43  H    0.117977
    44  H    0.057319
    45  H    0.076287
    46  H    0.076715
    47  H    0.075239
    48  H    0.089137
    49  H    0.124502
    50  H    0.098555
    51  H    0.121072
    52  H    0.059981
    53  H    0.106406
    54  H    0.074253
    55  H    0.082429
    56  H    0.096508
    57  H    0.111395
    58  H    0.115019
    59  H    0.105309
    60  H    0.094024
    61  H    0.101058
    62  H    0.107241
    63  H    0.099127
    64  H    0.105384
    65  H    0.087929
    66  H    0.084322
    67  H    0.121585
    68  H    0.103000
    69  H    0.108335
    70  H    0.102704
    71  H    0.124445
    72  H    0.106014
    73  H    0.301164
    74  H    0.305173
    75  H    0.093395
    76  H    0.085673
    77  H    0.116983
    78  H    0.124880
    79  H    0.126549
    80  H    0.129323
    81  H    0.118583
    82  H    0.108317
    83  H    0.099135
    84  H    0.049557
    85  H    0.059489
    86  H    0.071077
    87  H    0.070734
    88  H    0.095626
    89  H    0.120322
    90  H    0.114523
    91  H    0.143442
    92  H    0.114751
    93  H    0.125939
    94  H    0.099109
    95  H    0.088276
    96  H    0.055269
    97  H    0.089531
    98  H    0.066264
 Sum of Mulliken charges =  -0.00000

 Dipole moment (field-independent basis, Debye):
    X=              0.2349    Y=             -1.3192    Z=              1.8335  Tot=              2.2709
 Quadrupole moment (field-independent basis, Debye-Ang):
   XX=           -245.2920   YY=           -245.2162   ZZ=           -256.9845
   XY=              8.7376   XZ=             -4.2225   YZ=              2.7805

 Normal termination of Gaussian 16 at Sun Jun 30 09:06:04 2019.
