 Gaussian 16, Revision A.03,
 Gaussian 16:  ES64L-G16RevA.03 25-Dec-2016

 -------------------------------------
 # td=(NStates=1) CAM-B3LYP/6-31G(d,p)
 -------------------------------------

 --
 TD
 --
 Symbolic Z-matrix:
 Charge =  0 Multiplicity = 1

                         Standard orientation:
 ---------------------------------------------------------------------
 Center     Atomic      Atomic             Coordinates (Angstroms)
 Number     Number       Type             X           Y           Z
 ---------------------------------------------------------------------
      1          8           0       14.923939   -2.071125   -0.524303
      2          8           0      -14.765849    1.945361    0.904087
      3          6           0       11.525531   -1.190794    1.172425
      4          6           0      -12.496118   -1.068575    0.611910
      5          6           0       13.089409   -1.343346    1.014969
      6          6           0      -13.722058   -0.234979    0.733430
      7          6           0       13.483327   -1.814199   -0.360965
      8          6           0      -13.595524    1.247932    0.776298
      9          6           0       11.050747   -0.401154   -0.086047
     10          6           0      -11.342586   -0.389938   -0.305608
     11          6           0       13.018649   -0.779147   -1.422574
     12          6           0      -12.850306    1.655301   -0.520652
     13          6           0       11.620074   -0.217756   -1.247109
     14          6           0      -11.538198    0.909372   -0.790878
     15          6           0       11.388326   -0.327814    2.526939
     16          6           0       10.771772   -2.584865    1.313187
     17          6           0      -11.862752   -1.136160    2.055898
     18          6           0      -12.584471   -2.578254    0.057787
     19          6           0        9.725469    0.177886    0.238156
     20          6           0      -10.175684   -1.066277   -0.582609
     21          6           0       11.150373    0.455176   -2.465610
     22          6           0      -10.743041    1.526312   -1.937903
     23          6           0        9.326848    1.506516   -0.104247
     24          6           0       -8.921624   -0.524556   -0.246325
     25          6           0        8.050368    2.157775    0.096987
     26          6           0       -7.624859   -1.103930   -0.358294
     27          6           0        8.147751    3.608532    0.418283
     28          6           0       -7.738845   -2.535042   -0.948228
     29          6           0        6.891962    1.535115   -0.060254
     30          6           0       -6.450187   -0.531111   -0.225977
     31          6           0        5.594507    1.964418    0.160146
     32          6           0       -5.177880   -1.082915   -0.389456
     33          6           0        4.474732    1.327988   -0.105820
     34          6           0       -4.137636   -0.263330   -0.091712
     35          6           0        3.134112    1.599136    0.189816
     36          6           0       -2.702450   -0.568608   -0.217788
     37          6           0        2.822837    3.078537    0.740798
     38          6           0       -2.358818   -2.116215   -0.534449
     39          6           0        2.110783    0.820402   -0.085726
     40          6           0       -1.684644    0.368401   -0.073614
     41          6           0        0.736929    1.005878    0.009921
     42          6           0       -0.240974    0.176947   -0.153802
     43          1           0       13.801682   -0.494177    1.345593
     44          1           0       13.460688   -2.262877    1.583888
     45          1           0      -14.185450   -0.619336    1.602739
     46          1           0      -14.268663   -0.536173   -0.194969
     47          1           0       12.778348   -2.746321   -0.482049
     48          1           0      -12.985321    1.508996    1.731824
     49          1           0       13.863016    0.126141   -1.480820
     50          1           0       13.317230   -1.410493   -2.396385
     51          1           0      -13.417897    1.673757   -1.392647
     52          1           0      -12.703127    2.792549   -0.325203
     53          1           0       11.623024   -1.091034    3.401853
     54          1           0       10.288659   -0.137832    2.693383
     55          1           0       11.865227    0.583364    2.683470
     56          1           0       10.991118   -3.254175    0.427400
     57          1           0       11.115098   -3.035122    2.071873
     58          1           0        9.660455   -2.377905    1.511313
     59          1           0      -11.747362   -0.095542    2.282844
     60          1           0      -10.895313   -1.552556    2.044744
     61          1           0      -12.422012   -1.586429    2.586086
     62          1           0      -13.359267   -3.002829    0.704334
     63          1           0      -11.683972   -3.276716    0.076365
     64          1           0      -12.925096   -2.225606   -0.951215
     65          1           0        8.951029   -0.329404    1.051187
     66          1           0      -10.111799   -2.276334   -0.906573
     67          1           0       10.162147    0.520166   -2.421991
     68          1           0       11.656395    1.282180   -2.502784
     69          1           0       11.161816   -0.228745   -3.152411
     70          1           0      -11.469471    1.700604   -2.656327
     71          1           0      -10.142777    0.839171   -2.376032
     72          1           0      -10.432890    2.386437   -1.410305
     73          1           0       15.013120   -2.849227   -0.136574
     74          1           0      -15.227675    1.277675    1.590263
     75          1           0       10.099719    2.106570   -0.845861
     76          1           0       -8.654653    0.484696    0.259818
     77          1           0        8.816757    4.125029   -0.310282
     78          1           0        7.177332    4.062021    0.426777
     79          1           0        8.486869    3.721524    1.407709
     80          1           0       -8.225973   -3.305919   -0.270930
     81          1           0       -8.209157   -2.669808   -1.909253
     82          1           0       -6.641804   -2.888057   -1.128894
     83          1           0        7.028116    0.417854   -0.164555
     84          1           0       -6.467495    0.698732   -0.086994
     85          1           0        5.641908    3.049213    0.508384
     86          1           0       -5.070753   -2.118173   -0.718847
     87          1           0        4.613807    0.410799   -0.426099
     88          1           0       -4.383158    0.748411    0.120711
     89          1           0        3.434377    3.167693    1.549929
     90          1           0        1.616732    3.226734    0.910034
     91          1           0        2.909193    3.903294    0.009516
     92          1           0       -2.680985   -2.669565    0.342897
     93          1           0       -2.959140   -2.389511   -1.286476
     94          1           0       -1.244592   -2.395983   -0.528623
     95          1           0        2.559566   -0.110830   -0.416305
     96          1           0       -2.027327    1.384303    0.239771
     97          1           0        0.536728    2.047293    0.406305
     98          1           0       -0.346874   -0.878373   -0.537680
 ---------------------------------------------------------------------

 SCF Done:  E(RCAM-B3LYP) =  -1706.85965900     A.U. after   14 cycles

 Excitation energies and oscillator strengths:

 Excited State   1:      Singlet-A      2.7601 eV  449.20 nm  f=3.9553  <S**2>=0.000
     155 ->158         0.20271
     156 ->157         0.66937
 This state for optimization and/or second-order correction.
 Total Energy, E(TD-HF/TD-DFT) =  -1706.75822700
 Copying the excited state density for this state as the 1-particle RhoCI density.

 The electronic state is 1-A.
 Alpha  occ. eigenvalues --  -19.22762 -19.21130 -10.31132 -10.31113 -10.29374
 Alpha  occ. eigenvalues --  -10.28696 -10.28105 -10.27978 -10.27653 -10.27556
 Alpha  occ. eigenvalues --  -10.26916 -10.26902 -10.26849 -10.26782 -10.26780
 Alpha  occ. eigenvalues --  -10.26704 -10.26684 -10.26645 -10.26631 -10.26409
 Alpha  occ. eigenvalues --  -10.26404 -10.26244 -10.26152 -10.26097 -10.26070
 Alpha  occ. eigenvalues --  -10.25952 -10.25884 -10.25881 -10.25685 -10.25671
 Alpha  occ. eigenvalues --  -10.25669 -10.25586 -10.25505 -10.25423 -10.25283
 Alpha  occ. eigenvalues --  -10.24999 -10.24983 -10.24717 -10.24398 -10.23028
 Alpha  occ. eigenvalues --  -10.21499 -10.21105  -1.11144  -1.10651  -0.93624
 Alpha  occ. eigenvalues --   -0.93329  -0.92889  -0.92193  -0.91193  -0.89745
 Alpha  occ. eigenvalues --   -0.88022  -0.87724  -0.87203  -0.85659  -0.84480
 Alpha  occ. eigenvalues --   -0.83727  -0.82340  -0.81033  -0.80115  -0.78167
 Alpha  occ. eigenvalues --   -0.77571  -0.77138  -0.76799  -0.76782  -0.76346
 Alpha  occ. eigenvalues --   -0.76094  -0.75252  -0.74719  -0.74274  -0.71250
 Alpha  occ. eigenvalues --   -0.69471  -0.67682  -0.65976  -0.65193  -0.64285
 Alpha  occ. eigenvalues --   -0.63323  -0.62652  -0.61847  -0.60566  -0.60180
 Alpha  occ. eigenvalues --   -0.58680  -0.58499  -0.57653  -0.57016  -0.56347
 Alpha  occ. eigenvalues --   -0.56091  -0.55239  -0.55201  -0.54610  -0.54145
 Alpha  occ. eigenvalues --   -0.53696  -0.53124  -0.52812  -0.52545  -0.52249
 Alpha  occ. eigenvalues --   -0.50899  -0.50529  -0.50465  -0.50301  -0.50015
 Alpha  occ. eigenvalues --   -0.49839  -0.49700  -0.49260  -0.48852  -0.48354
 Alpha  occ. eigenvalues --   -0.48126  -0.47868  -0.47729  -0.47536  -0.47247
 Alpha  occ. eigenvalues --   -0.46924  -0.46302  -0.46131  -0.45653  -0.45099
 Alpha  occ. eigenvalues --   -0.44766  -0.44534  -0.44412  -0.43872  -0.43762
 Alpha  occ. eigenvalues --   -0.43672  -0.43219  -0.43125  -0.42880  -0.42729
 Alpha  occ. eigenvalues --   -0.42072  -0.42011  -0.41610  -0.40850  -0.40452
 Alpha  occ. eigenvalues --   -0.40133  -0.40009  -0.39775  -0.39555  -0.39350
 Alpha  occ. eigenvalues --   -0.39261  -0.38702  -0.38589  -0.37880  -0.37177
 Alpha  occ. eigenvalues --   -0.36557  -0.36399  -0.36103  -0.35534  -0.35347
 Alpha  occ. eigenvalues --   -0.35232  -0.34428  -0.33524  -0.32832  -0.32186
 Alpha  occ. eigenvalues --   -0.32067  -0.30508  -0.28408  -0.26389  -0.23708
 Alpha  occ. eigenvalues --   -0.21169
 Alpha virt. eigenvalues --   -0.04512  -0.00941   0.02586   0.05368   0.08057
 Alpha virt. eigenvalues --    0.10113   0.10398   0.10834   0.11445   0.12100
 Alpha virt. eigenvalues --    0.12263   0.12561   0.12762   0.13644   0.13828

 Mulliken charges:
               1
     1  O   -0.532998
     2  O   -0.542493
     3  C   -0.033738
     4  C   -0.038416
     5  C   -0.163661
     6  C   -0.209241
     7  C    0.123465
     8  C    0.201669
     9  C    0.099103
    10  C    0.071893
    11  C   -0.209206
    12  C   -0.235305
    13  C    0.013387
    14  C   -0.002581
    15  C   -0.298327
    16  C   -0.296931
    17  C   -0.276203
    18  C   -0.305688
    19  C   -0.142266
    20  C   -0.176141
    21  C   -0.310410
    22  C   -0.318952
    23  C   -0.121178
    24  C   -0.076311
    25  C    0.071042
    26  C    0.110727
    27  C   -0.365834
    28  C   -0.378701
    29  C   -0.096747
    30  C   -0.126399
    31  C   -0.074217
    32  C   -0.060539
    33  C   -0.088694
    34  C   -0.105778
    35  C    0.101006
    36  C    0.069402
    37  C   -0.361098
    38  C   -0.381224
    39  C   -0.103177
    40  C   -0.145160
    41  C   -0.097554
    42  C   -0.030198
    43  H    0.102513
    44  H    0.058341
    45  H    0.081647
    46  H    0.096036
    47  H    0.064805
    48  H    0.064574
    49  H    0.086494
    50  H    0.090967
    51  H    0.125458
    52  H    0.094419
    53  H    0.083216
    54  H    0.090739
    55  H    0.125474
    56  H    0.104017
    57  H    0.123474
    58  H    0.102103
    59  H    0.097609
    60  H    0.103762
    61  H    0.090596
    62  H    0.097564
    63  H    0.113267
    64  H    0.107027
    65  H    0.083256
    66  H    0.083285
    67  H    0.119544
    68  H    0.129626
    69  H    0.119866
    70  H    0.110950
    71  H    0.120689
    72  H    0.125783
    73  H    0.295192
    74  H    0.308543
    75  H    0.074318
    76  H    0.069246
    77  H    0.113514
    78  H    0.108484
    79  H    0.132750
    80  H    0.108100
    81  H    0.131200
    82  H    0.073748
    83  H    0.067844
    84  H    0.070085
    85  H    0.067838
    86  H    0.100106
    87  H    0.062557
    88  H    0.087666
    89  H    0.127575
    90  H    0.076629
    91  H    0.120927
    92  H    0.129162
    93  H    0.133328
    94  H    0.117625
    95  H    0.064588
    96  H    0.066678
    97  H    0.074758
    98  H    0.064108
 Sum of Mulliken charges =  -0.00000

 Dipole moment (field-independent basis, Debye):
    X=             -0.8447    Y=             -2.6272    Z=              1.1535  Tot=              2.9910
 Quadrupole moment (field-independent basis, Debye-Ang):
   XX=           -271.8380   YY=           -245.9751   ZZ=           -260.2948
   XY=             13.4575   XZ=              4.2131   YZ=             -0.3848

 Normal termination of Gaussian 16 at Mon Jul  8 11:24:35 2019.
