 Gaussian 16, Revision A.03,
 Gaussian 16:  ES64L-G16RevA.03 25-Dec-2016

 -------------------------------------
 # td=(NStates=1) CAM-B3LYP/6-31G(d,p)
 -------------------------------------

 --
 TD
 --
 Symbolic Z-matrix:
 Charge =  0 Multiplicity = 1

                         Standard orientation:
 ---------------------------------------------------------------------
 Center     Atomic      Atomic             Coordinates (Angstroms)
 Number     Number       Type             X           Y           Z
 ---------------------------------------------------------------------
      1          8           0       14.750381   -2.360509   -0.326903
      2          8           0      -14.867354    1.868039    0.805687
      3          6           0       11.532796   -1.157785    1.211292
      4          6           0      -12.388431   -0.997683    0.757236
      5          6           0       12.982742   -1.495063    1.071247
      6          6           0      -13.707383   -0.293189    0.886208
      7          6           0       13.338908   -1.928415   -0.353875
      8          6           0      -13.667698    1.166413    0.797298
      9          6           0       11.055609   -0.296087    0.039174
     10          6           0      -11.380603   -0.443930   -0.207713
     11          6           0       13.171943   -0.668716   -1.290330
     12          6           0      -12.936763    1.584682   -0.454886
     13          6           0       11.735136   -0.230036   -1.148398
     14          6           0      -11.606449    0.835750   -0.708957
     15          6           0       11.262832   -0.347437    2.573541
     16          6           0       10.758647   -2.476005    1.141175
     17          6           0      -11.723297   -1.069318    2.305587
     18          6           0      -12.558598   -2.457018    0.353874
     19          6           0        9.709236    0.382392    0.185760
     20          6           0      -10.106086   -1.031218   -0.558913
     21          6           0       11.236939    0.524946   -2.353418
     22          6           0      -10.801444    1.594344   -1.820149
     23          6           0        9.410763    1.545815   -0.130700
     24          6           0       -8.803703   -0.426145   -0.400898
     25          6           0        8.064929    2.200749    0.033218
     26          6           0       -7.596739   -1.148963   -0.563226
     27          6           0        8.094114    3.654273    0.433905
     28          6           0       -7.612586   -2.605151   -1.131245
     29          6           0        6.888677    1.481536   -0.229028
     30          6           0       -6.453262   -0.431308   -0.254024
     31          6           0        5.592824    1.962677    0.079737
     32          6           0       -5.110413   -1.024848   -0.450458
     33          6           0        4.439064    1.260545   -0.119592
     34          6           0       -4.046523   -0.180436   -0.168484
     35          6           0        3.035642    1.688717    0.088530
     36          6           0       -2.682279   -0.628888   -0.435593
     37          6           0        2.908725    3.036013    0.590118
     38          6           0       -2.471710   -2.021500   -1.035599
     39          6           0        2.078322    0.703790   -0.057670
     40          6           0       -1.655104    0.171724   -0.048401
     41          6           0        0.653302    0.908425    0.292720
     42          6           0       -0.206380    0.049061   -0.193163
     43          1           0       13.786726   -0.781701    1.390060
     44          1           0       13.012061   -2.361822    1.749347
     45          1           0      -14.266697   -0.890353    1.632409
     46          1           0      -14.341035   -0.503331   -0.085221
     47          1           0       12.700662   -2.775786   -0.628181
     48          1           0      -12.946863    1.292935    1.615649
     49          1           0       13.728127    0.142599   -0.667257
     50          1           0       13.376481   -0.996457   -2.296534
     51          1           0      -13.756805    1.556310   -1.151138
     52          1           0      -12.705752    2.553158   -0.458589
     53          1           0       11.743041   -0.582048    3.274881
     54          1           0       10.284491   -0.067983    2.928129
     55          1           0       11.992524    0.536329    2.504651
     56          1           0       10.936900   -2.919429    0.274666
     57          1           0       10.911337   -2.885787    2.090741
     58          1           0        9.507396   -2.394415    1.211576
     59          1           0      -11.518994   -0.206961    2.530342
     60          1           0      -10.738686   -1.364154    2.186452
     61          1           0      -12.468962   -1.598071    2.950475
     62          1           0      -13.204358   -2.969341    1.119370
     63          1           0      -11.368941   -2.712822    0.307068
     64          1           0      -12.899942   -2.502924   -0.778654
     65          1           0        8.882547   -0.368780    0.703062
     66          1           0      -10.085717   -2.078362   -1.037940
     67          1           0       10.255437    0.899123   -2.341228
     68          1           0       11.902341    1.489786   -2.662305
     69          1           0       11.406241   -0.142065   -3.127936
     70          1           0      -11.393652    2.008652   -2.662534
     71          1           0       -9.920012    1.023789   -2.184586
     72          1           0      -10.246749    2.465902   -1.424578
     73          1           0       15.005247   -2.815756    0.465396
     74          1           0      -15.411555    1.548892    1.500182
     75          1           0       10.424612    2.319106   -0.448556
     76          1           0       -8.827272    0.626487   -0.156339
     77          1           0        8.713373    4.356737   -0.072127
     78          1           0        7.074025    4.056454    0.377358
     79          1           0        8.218463    3.525542    1.667666
     80          1           0       -7.853266   -3.264648   -0.395021
     81          1           0       -8.272212   -2.638322   -1.926417
     82          1           0       -6.613055   -2.876223   -1.603617
     83          1           0        7.113677    0.430710   -0.469688
     84          1           0       -6.582888    0.579154    0.302020
     85          1           0        5.470145    2.886799    0.584150
     86          1           0       -5.134555   -2.125877   -0.649568
     87          1           0        4.655920    0.349900   -0.555434
     88          1           0       -4.362578    0.806143    0.154063
     89          1           0        3.250557    3.095172    1.576182
     90          1           0        1.819095    3.347709    0.427022
     91          1           0        3.547530    3.951182    0.214365
     92          1           0       -3.006504   -2.746413   -0.601925
     93          1           0       -2.938134   -2.069364   -2.115461
     94          1           0       -1.423507   -2.372519   -1.204365
     95          1           0        2.365392   -0.347739   -0.388985
     96          1           0       -2.006133    1.066779    0.376306
     97          1           0        0.322003    1.905394    0.621140
     98          1           0        0.210088   -0.877807   -0.826233
 ---------------------------------------------------------------------

 SCF Done:  E(RCAM-B3LYP) =  -1706.90610521     A.U. after   14 cycles

 Excitation energies and oscillator strengths:

 Excited State   1:      Singlet-A      2.8271 eV  438.56 nm  f=3.6830  <S**2>=0.000
     155 ->158        -0.20464
     156 ->157         0.66958
 This state for optimization and/or second-order correction.
 Total Energy, E(TD-HF/TD-DFT) =  -1706.80221296
 Copying the excited state density for this state as the 1-particle RhoCI density.

 The electronic state is 1-A.
 Alpha  occ. eigenvalues --  -19.21775 -19.20018 -10.30966 -10.29379 -10.27909
 Alpha  occ. eigenvalues --  -10.27746 -10.27670 -10.27495 -10.27404 -10.27364
 Alpha  occ. eigenvalues --  -10.27314 -10.27295 -10.27145 -10.27133 -10.27129
 Alpha  occ. eigenvalues --  -10.27091 -10.26898 -10.26824 -10.26452 -10.26426
 Alpha  occ. eigenvalues --  -10.26380 -10.26335 -10.26279 -10.26227 -10.26214
 Alpha  occ. eigenvalues --  -10.26151 -10.25810 -10.25783 -10.25697 -10.25654
 Alpha  occ. eigenvalues --  -10.25605 -10.25603 -10.25554 -10.25273 -10.25141
 Alpha  occ. eigenvalues --  -10.24994 -10.24881 -10.24796 -10.24359 -10.23238
 Alpha  occ. eigenvalues --  -10.23138 -10.22801  -1.11340  -1.07282  -0.93899
 Alpha  occ. eigenvalues --   -0.93565  -0.91849  -0.91256  -0.90302  -0.89647
 Alpha  occ. eigenvalues --   -0.87613  -0.87106  -0.85971  -0.85626  -0.85086
 Alpha  occ. eigenvalues --   -0.82901  -0.82060  -0.80412  -0.79373  -0.78878
 Alpha  occ. eigenvalues --   -0.78352  -0.77737  -0.76900  -0.76095  -0.75962
 Alpha  occ. eigenvalues --   -0.75687  -0.75427  -0.74772  -0.73793  -0.70102
 Alpha  occ. eigenvalues --   -0.68483  -0.67284  -0.65912  -0.64614  -0.63929
 Alpha  occ. eigenvalues --   -0.63084  -0.62062  -0.61450  -0.61156  -0.60241
 Alpha  occ. eigenvalues --   -0.59958  -0.58992  -0.58296  -0.57304  -0.56651
 Alpha  occ. eigenvalues --   -0.56406  -0.56048  -0.54911  -0.53980  -0.53480
 Alpha  occ. eigenvalues --   -0.52927  -0.52831  -0.52557  -0.51945  -0.51306
 Alpha  occ. eigenvalues --   -0.51005  -0.50708  -0.50597  -0.49633  -0.49163
 Alpha  occ. eigenvalues --   -0.48950  -0.48527  -0.48329  -0.47777  -0.47457
 Alpha  occ. eigenvalues --   -0.47274  -0.47094  -0.46926  -0.46643  -0.46422
 Alpha  occ. eigenvalues --   -0.46022  -0.45650  -0.45577  -0.45185  -0.44886
 Alpha  occ. eigenvalues --   -0.44771  -0.44631  -0.44249  -0.43934  -0.43580
 Alpha  occ. eigenvalues --   -0.43431  -0.43124  -0.42631  -0.42056  -0.41892
 Alpha  occ. eigenvalues --   -0.41641  -0.41493  -0.41249  -0.41104  -0.40843
 Alpha  occ. eigenvalues --   -0.40280  -0.40024  -0.39958  -0.39752  -0.39567
 Alpha  occ. eigenvalues --   -0.39377  -0.38969  -0.38510  -0.38176  -0.37796
 Alpha  occ. eigenvalues --   -0.37593  -0.37241  -0.37076  -0.35929  -0.35362
 Alpha  occ. eigenvalues --   -0.35080  -0.34464  -0.33910  -0.32202  -0.31829
 Alpha  occ. eigenvalues --   -0.31173  -0.29084  -0.27505  -0.26464  -0.23238
 Alpha  occ. eigenvalues --   -0.20838
 Alpha virt. eigenvalues --   -0.03824  -0.00444   0.03077   0.05699   0.06994
 Alpha virt. eigenvalues --    0.08503   0.10928   0.11391   0.11797   0.12727
 Alpha virt. eigenvalues --    0.12773   0.13090   0.13368   0.13974   0.14099

 Mulliken charges:
               1
     1  O   -0.589170
     2  O   -0.548259
     3  C   -0.022087
     4  C   -0.039737
     5  C   -0.223077
     6  C   -0.177360
     7  C    0.176774
     8  C    0.171258
     9  C    0.046650
    10  C    0.087978
    11  C   -0.204282
    12  C   -0.206290
    13  C    0.029328
    14  C    0.019051
    15  C   -0.295261
    16  C   -0.282579
    17  C   -0.291543
    18  C   -0.270862
    19  C   -0.074460
    20  C   -0.189582
    21  C   -0.346434
    22  C   -0.373479
    23  C   -0.103902
    24  C   -0.095873
    25  C    0.053480
    26  C    0.091690
    27  C   -0.354522
    28  C   -0.369628
    29  C   -0.108745
    30  C   -0.138605
    31  C   -0.079607
    32  C   -0.089997
    33  C   -0.117292
    34  C   -0.121733
    35  C    0.125645
    36  C    0.117509
    37  C   -0.389700
    38  C   -0.372405
    39  C   -0.134272
    40  C   -0.140024
    41  C   -0.083933
    42  C   -0.061664
    43  H    0.104994
    44  H    0.083456
    45  H    0.081297
    46  H    0.065334
    47  H    0.090357
    48  H    0.063278
    49  H    0.126884
    50  H    0.116052
    51  H    0.117274
    52  H    0.112955
    53  H    0.098216
    54  H    0.115335
    55  H    0.078939
    56  H    0.118735
    57  H    0.113966
    58  H    0.065978
    59  H    0.109599
    60  H    0.106694
    61  H    0.096084
    62  H    0.091361
    63  H    0.083937
    64  H    0.091962
    65  H    0.073369
    66  H    0.092217
    67  H    0.129556
    68  H    0.083657
    69  H    0.110379
    70  H    0.115438
    71  H    0.114546
    72  H    0.108960
    73  H    0.302356
    74  H    0.304823
    75  H    0.067145
    76  H    0.093153
    77  H    0.127036
    78  H    0.111068
    79  H    0.098960
    80  H    0.142216
    81  H    0.132471
    82  H    0.103023
    83  H    0.083935
    84  H    0.088410
    85  H    0.068367
    86  H    0.097979
    87  H    0.066245
    88  H    0.096663
    89  H    0.143104
    90  H    0.100617
    91  H    0.109900
    92  H    0.132696
    93  H    0.100035
    94  H    0.109867
    95  H    0.093964
    96  H    0.072926
    97  H    0.092547
    98  H    0.076685
 Sum of Mulliken charges =  -0.00000

 Dipole moment (field-independent basis, Debye):
    X=             -0.2759    Y=             -0.9944    Z=              2.4327  Tot=              2.6425
 Quadrupole moment (field-independent basis, Debye-Ang):
   XX=           -279.8516   YY=           -248.7024   ZZ=           -257.8157
   XY=             12.4805   XZ=              8.1223   YZ=              1.9198

 Normal termination of Gaussian 16 at Fri Jul  5 23:24:22 2019.
