 Gaussian 16, Revision A.03,
 Gaussian 16:  ES64L-G16RevA.03 25-Dec-2016

 -------------------------------------
 # td=(NStates=1) CAM-B3LYP/6-31G(d,p)
 -------------------------------------

 --
 TD
 --
 Symbolic Z-matrix:
 Charge =  0 Multiplicity = 1

                         Standard orientation:
 ---------------------------------------------------------------------
 Center     Atomic      Atomic             Coordinates (Angstroms)
 Number     Number       Type             X           Y           Z
 ---------------------------------------------------------------------
      1          8           0       14.618466   -2.298857   -0.217492
      2          8           0      -14.721553    2.036922    0.705816
      3          6           0       11.346927   -1.166278    1.122994
      4          6           0      -12.220200   -0.842542    0.948710
      5          6           0       12.842188   -1.530704    1.117139
      6          6           0      -13.584973   -0.060246    0.828768
      7          6           0       13.235477   -1.936532   -0.253839
      8          6           0      -13.394786    1.489694    0.736237
      9          6           0       10.935368   -0.094015   -0.063502
     10          6           0      -11.247824   -0.302784   -0.232771
     11          6           0       13.133114   -0.724773   -1.199318
     12          6           0      -12.702332    1.797633   -0.561916
     13          6           0       11.726271   -0.019330   -1.153287
     14          6           0      -11.558799    0.876291   -0.859498
     15          6           0       11.097451   -0.510042    2.452739
     16          6           0       10.496273   -2.301070    1.106081
     17          6           0      -11.641923   -0.655535    2.262983
     18          6           0      -12.546614   -2.337438    0.843840
     19          6           0        9.611654    0.459329    0.123619
     20          6           0       -9.967603   -1.046243   -0.509519
     21          6           0       11.483974    0.900704   -2.351026
     22          6           0      -10.656942    1.423642   -1.868088
     23          6           0        9.356907    1.803615   -0.063169
     24          6           0       -8.765769   -0.539709   -0.393078
     25          6           0        7.948914    2.330226    0.214496
     26          6           0       -7.584883   -1.314610   -0.680507
     27          6           0        8.005135    3.752760    0.595729
     28          6           0       -7.728774   -2.662108   -1.155065
     29          6           0        6.838273    1.627273   -0.051645
     30          6           0       -6.357861   -0.786562   -0.421270
     31          6           0        5.416672    2.016256    0.057594
     32          6           0       -5.068047   -1.309774   -0.589630
     33          6           0        4.380819    1.155833    0.019675
     34          6           0       -3.982215   -0.574743   -0.348075
     35          6           0        2.985206    1.521486    0.177396
     36          6           0       -2.549857   -0.947253   -0.497673
     37          6           0        2.753166    2.883629    0.678676
     38          6           0       -2.278162   -2.419433   -0.820389
     39          6           0        2.070138    0.646050   -0.102844
     40          6           0       -1.638720   -0.004620   -0.220188
     41          6           0        0.632395    0.813879    0.025254
     42          6           0       -0.243905   -0.174364   -0.426544
     43          1           0       13.509372   -0.759291    1.381945
     44          1           0       12.924686   -2.311479    1.690295
     45          1           0      -14.170270   -0.359692    1.684068
     46          1           0      -14.043723   -0.289567   -0.052247
     47          1           0       12.801509   -2.813554   -0.545691
     48          1           0      -12.809143    1.618871    1.562668
     49          1           0       13.883857   -0.094405   -1.062455
     50          1           0       13.414674   -1.208904   -2.167159
     51          1           0      -13.467933    1.729288   -1.299786
     52          1           0      -12.401963    2.985041   -0.655486
     53          1           0       11.293824   -1.349372    3.229497
     54          1           0       10.102817   -0.196959    2.602026
     55          1           0       11.737005    0.487874    2.517723
     56          1           0       10.549700   -2.818291    0.133596
     57          1           0       10.740282   -3.110139    1.997333
     58          1           0        9.371030   -2.225303    1.238267
     59          1           0      -11.355133    0.196016    2.679725
     60          1           0      -10.669780   -1.003462    2.319777
     61          1           0      -12.295797   -1.239498    3.017355
     62          1           0      -13.531573   -2.658984    1.426300
     63          1           0      -11.483633   -2.910807    1.121347
     64          1           0      -12.766379   -2.616512   -0.125849
     65          1           0        8.971143   -0.029661    0.364578
     66          1           0      -10.184801   -2.055337   -1.048437
     67          1           0       10.296494    1.151108   -2.434631
     68          1           0       12.034568    1.795420   -2.388990
     69          1           0       11.771476    0.401736   -3.284018
     70          1           0      -11.230293    1.827601   -2.620531
     71          1           0       -9.957148    0.744572   -2.171839
     72          1           0      -10.298130    2.378242   -1.488273
     73          1           0       14.494195   -3.327249    0.121670
     74          1           0      -15.184167    1.660450    1.447738
     75          1           0       10.088982    2.615008   -0.368330
     76          1           0       -8.543055    0.405610   -0.014554
     77          1           0        8.157794    4.475442   -0.368548
     78          1           0        6.945144    4.192016    1.161485
     79          1           0        8.864069    4.006373    1.445151
     80          1           0       -8.415889   -3.117455   -0.242424
     81          1           0       -8.382475   -2.734861   -2.134424
     82          1           0       -6.795134   -3.150797   -1.170486
     83          1           0        6.889463    0.565456   -0.390482
     84          1           0       -6.349412   -0.004898   -0.010360
     85          1           0        5.116948    3.011093    0.271975
     86          1           0       -4.957449   -2.406556   -0.895570
     87          1           0        4.636606    0.160275   -0.331964
     88          1           0       -4.255234    0.427628   -0.021615
     89          1           0        3.296658    3.127497    1.579752
     90          1           0        1.685810    2.839804    0.814479
     91          1           0        3.251603    3.665821    0.019297
     92          1           0       -3.056051   -3.080289    0.004964
     93          1           0       -2.531159   -2.688255   -2.014817
     94          1           0       -1.300622   -2.621359   -0.693451
     95          1           0        2.430358   -0.288678   -0.209244
     96          1           0       -2.044700    0.959909   -0.047060
     97          1           0        0.312625    1.704777    0.295347
     98          1           0        0.276268   -0.991377   -0.710759
 ---------------------------------------------------------------------

 SCF Done:  E(RCAM-B3LYP) =  -1706.87346274     A.U. after   14 cycles

 Excitation energies and oscillator strengths:

 Excited State   1:      Singlet-A      3.0111 eV  411.76 nm  f=3.6647  <S**2>=0.000
     155 ->158        -0.18041
     156 ->157         0.67686
 This state for optimization and/or second-order correction.
 Total Energy, E(TD-HF/TD-DFT) =  -1706.76280866
 Copying the excited state density for this state as the 1-particle RhoCI density.

 The electronic state is 1-A.
 Alpha  occ. eigenvalues --  -19.21355 -19.20866 -10.29422 -10.29188 -10.28601
 Alpha  occ. eigenvalues --  -10.28421 -10.27555 -10.27498 -10.27467 -10.27210
 Alpha  occ. eigenvalues --  -10.27063 -10.26515 -10.26467 -10.26463 -10.26258
 Alpha  occ. eigenvalues --  -10.26216 -10.26184 -10.26168 -10.26123 -10.26083
 Alpha  occ. eigenvalues --  -10.26054 -10.26010 -10.25975 -10.25938 -10.25910
 Alpha  occ. eigenvalues --  -10.25899 -10.25874 -10.25860 -10.25850 -10.25606
 Alpha  occ. eigenvalues --  -10.25421 -10.25383 -10.25205 -10.24611 -10.24554
 Alpha  occ. eigenvalues --  -10.24551 -10.24374 -10.23488 -10.23296 -10.22523
 Alpha  occ. eigenvalues --  -10.22408 -10.22386  -1.09167  -1.07829  -0.93634
 Alpha  occ. eigenvalues --   -0.93516  -0.93214  -0.92446  -0.91179  -0.90400
 Alpha  occ. eigenvalues --   -0.88241  -0.87799  -0.87219  -0.86017  -0.85013
 Alpha  occ. eigenvalues --   -0.83695  -0.82521  -0.80932  -0.80487  -0.78731
 Alpha  occ. eigenvalues --   -0.77098  -0.76663  -0.76473  -0.76243  -0.75686
 Alpha  occ. eigenvalues --   -0.75296  -0.75029  -0.74874  -0.74454  -0.70480
 Alpha  occ. eigenvalues --   -0.68912  -0.68015  -0.66104  -0.66019  -0.64388
 Alpha  occ. eigenvalues --   -0.63602  -0.63057  -0.62670  -0.61500  -0.60405
 Alpha  occ. eigenvalues --   -0.60232  -0.59762  -0.59423  -0.58638  -0.57236
 Alpha  occ. eigenvalues --   -0.56580  -0.56196  -0.55267  -0.54911  -0.54411
 Alpha  occ. eigenvalues --   -0.53176  -0.52842  -0.52505  -0.52041  -0.51651
 Alpha  occ. eigenvalues --   -0.51278  -0.50330  -0.49902  -0.49491  -0.49073
 Alpha  occ. eigenvalues --   -0.48804  -0.48655  -0.48244  -0.48132  -0.47934
 Alpha  occ. eigenvalues --   -0.47813  -0.47645  -0.47131  -0.46833  -0.46600
 Alpha  occ. eigenvalues --   -0.46303  -0.46216  -0.46013  -0.45549  -0.45447
 Alpha  occ. eigenvalues --   -0.44863  -0.44488  -0.44380  -0.44175  -0.43757
 Alpha  occ. eigenvalues --   -0.43525  -0.43222  -0.42789  -0.42401  -0.41685
 Alpha  occ. eigenvalues --   -0.41634  -0.41509  -0.41416  -0.41103  -0.40995
 Alpha  occ. eigenvalues --   -0.40571  -0.40307  -0.40174  -0.40064  -0.39418
 Alpha  occ. eigenvalues --   -0.39335  -0.39277  -0.38773  -0.38411  -0.38289
 Alpha  occ. eigenvalues --   -0.37766  -0.37691  -0.37227  -0.36802  -0.35952
 Alpha  occ. eigenvalues --   -0.35710  -0.34396  -0.33372  -0.32348  -0.31054
 Alpha  occ. eigenvalues --   -0.30959  -0.29818  -0.28183  -0.26936  -0.24616
 Alpha  occ. eigenvalues --   -0.21597
 Alpha virt. eigenvalues --   -0.03756   0.00043   0.02820   0.05965   0.07632
 Alpha virt. eigenvalues --    0.09237   0.09634   0.10566   0.11876   0.12189
 Alpha virt. eigenvalues --    0.12373   0.12673   0.12832   0.13267   0.13654

 Mulliken charges:
               1
     1  O   -0.565825
     2  O   -0.562906
     3  C   -0.029260
     4  C   -0.009691
     5  C   -0.116542
     6  C   -0.202507
     7  C    0.124437
     8  C    0.172422
     9  C    0.043576
    10  C    0.000273
    11  C   -0.209443
    12  C   -0.230652
    13  C    0.035035
    14  C    0.082735
    15  C   -0.274687
    16  C   -0.301744
    17  C   -0.283166
    18  C   -0.294237
    19  C   -0.008770
    20  C   -0.185034
    21  C   -0.365440
    22  C   -0.356606
    23  C   -0.115219
    24  C   -0.037185
    25  C    0.095113
    26  C    0.121683
    27  C   -0.359215
    28  C   -0.362577
    29  C   -0.117347
    30  C   -0.074747
    31  C   -0.076892
    32  C   -0.072006
    33  C   -0.112246
    34  C   -0.127703
    35  C    0.135865
    36  C    0.111176
    37  C   -0.378810
    38  C   -0.332441
    39  C   -0.126781
    40  C   -0.115358
    41  C   -0.082216
    42  C   -0.079354
    43  H    0.109355
    44  H    0.072083
    45  H    0.071161
    46  H    0.104978
    47  H    0.082135
    48  H    0.092754
    49  H    0.130209
    50  H    0.098545
    51  H    0.133783
    52  H    0.083728
    53  H    0.079446
    54  H    0.103805
    55  H    0.082497
    56  H    0.099985
    57  H    0.071714
    58  H    0.106028
    59  H    0.101487
    60  H    0.104352
    61  H    0.083483
    62  H    0.088028
    63  H    0.077526
    64  H    0.111108
    65  H    0.025682
    66  H    0.099060
    67  H    0.097364
    68  H    0.124428
    69  H    0.106515
    70  H    0.110226
    71  H    0.118717
    72  H    0.108151
    73  H    0.296468
    74  H    0.303855
    75  H    0.103875
    76  H    0.088324
    77  H    0.111497
    78  H    0.079608
    79  H    0.102456
    80  H    0.097102
    81  H    0.108065
    82  H    0.108377
    83  H    0.080172
    84  H    0.018977
    85  H    0.062746
    86  H    0.075612
    87  H    0.069150
    88  H    0.075915
    89  H    0.132265
    90  H    0.102221
    91  H    0.118841
    92  H    0.088881
    93  H    0.099261
    94  H    0.120554
    95  H    0.074449
    96  H    0.091138
    97  H    0.074603
    98  H    0.081547
 Sum of Mulliken charges =  -0.00000

 Dipole moment (field-independent basis, Debye):
    X=              0.1041    Y=             -1.3529    Z=              0.9259  Tot=              1.6427
 Quadrupole moment (field-independent basis, Debye-Ang):
   XX=           -303.8195   YY=           -245.5202   ZZ=           -260.9036
   XY=              5.7060   XZ=            -10.5590   YZ=              2.0962

 Normal termination of Gaussian 16 at Mon Jul  1 22:01:45 2019.
