 Gaussian 16, Revision A.03,
 Gaussian 16:  ES64L-G16RevA.03 25-Dec-2016

 -------------------------------------
 # td=(NStates=1) CAM-B3LYP/6-31G(d,p)
 -------------------------------------

 --
 TD
 --
 Symbolic Z-matrix:
 Charge =  0 Multiplicity = 1

                         Standard orientation:
 ---------------------------------------------------------------------
 Center     Atomic      Atomic             Coordinates (Angstroms)
 Number     Number       Type             X           Y           Z
 ---------------------------------------------------------------------
      1          8           0       14.762970   -2.271043   -0.353413
      2          8           0      -14.856353    2.010101    0.887301
      3          6           0       11.602756   -0.918782    1.333113
      4          6           0      -12.378163   -0.959876    0.861868
      5          6           0       13.112571   -1.194195    1.115120
      6          6           0      -13.760273   -0.212059    0.807833
      7          6           0       13.455210   -1.926185   -0.115039
      8          6           0      -13.559032    1.352789    0.881298
      9          6           0       10.928703   -0.251034    0.105490
     10          6           0      -11.341835   -0.195711   -0.023181
     11          6           0       12.966218   -0.939016   -1.240697
     12          6           0      -12.841503    1.784682   -0.392269
     13          6           0       11.580755   -0.442475   -1.080655
     14          6           0      -11.608156    0.990501   -0.667345
     15          6           0       11.422326    0.049791    2.544899
     16          6           0       10.819630   -2.255435    1.693299
     17          6           0      -11.702405   -0.953738    2.175321
     18          6           0      -12.589327   -2.445732    0.327915
     19          6           0        9.575972    0.379005    0.254494
     20          6           0      -10.143063   -0.898909   -0.409627
     21          6           0       11.160372    0.158348   -2.317469
     22          6           0      -10.620249    1.495470   -1.671108
     23          6           0        9.362812    1.603093   -0.237172
     24          6           0       -8.858239   -0.522610   -0.310785
     25          6           0        8.079137    2.270872   -0.236565
     26          6           0       -7.579135   -1.275489   -0.611801
     27          6           0        8.063725    3.803255    0.210009
     28          6           0       -7.740275   -2.710029   -1.082062
     29          6           0        6.860969    1.494458   -0.240538
     30          6           0       -6.409809   -0.624491   -0.271205
     31          6           0        5.560218    2.031799    0.053338
     32          6           0       -5.100785   -1.145073   -0.591216
     33          6           0        4.506147    1.211843   -0.141774
     34          6           0       -3.966173   -0.404778   -0.380152
     35          6           0        2.976825    1.542413    0.099414
     36          6           0       -2.627252   -0.834695   -0.527029
     37          6           0        2.807921    2.950584    0.549318
     38          6           0       -2.463762   -2.287997   -0.753533
     39          6           0        2.064666    0.741472   -0.228235
     40          6           0       -1.685758    0.082946   -0.303187
     41          6           0        0.643797    0.890966   -0.116913
     42          6           0       -0.193037   -0.070997   -0.447463
     43          1           0       13.735115   -0.411059    1.333533
     44          1           0       13.475261   -1.898767    1.844353
     45          1           0      -14.348652   -0.686110    1.632745
     46          1           0      -14.135910   -0.535212   -0.249899
     47          1           0       13.005435   -2.905302   -0.229103
     48          1           0      -12.969067    1.490984    1.673953
     49          1           0       13.830986   -0.183639   -1.394809
     50          1           0       13.093991   -1.582797   -2.222177
     51          1           0      -13.663028    1.830797   -1.253107
     52          1           0      -12.410453    2.757490   -0.444547
     53          1           0       12.000579   -0.371941    3.325077
     54          1           0       10.405890   -0.027973    2.826920
     55          1           0       12.031252    1.065915    2.311478
     56          1           0       11.097909   -3.110342    0.902168
     57          1           0       11.078159   -2.833308    2.629845
     58          1           0        9.692824   -2.007878    1.544968
     59          1           0      -11.743666    0.039752    2.568485
     60          1           0      -10.713857   -1.531888    2.202373
     61          1           0      -12.225052   -1.546117    2.716931
     62          1           0      -13.473896   -2.933806    0.983142
     63          1           0      -11.706114   -3.099581    0.489551
     64          1           0      -12.884029   -2.574897   -0.736410
     65          1           0        8.594426   -0.143972    0.822396
     66          1           0      -10.509904   -2.001823   -0.703275
     67          1           0       10.075335    0.756896   -2.297582
     68          1           0       11.704854    1.207447   -2.628230
     69          1           0       11.276513   -0.425947   -3.193018
     70          1           0      -11.285072    1.695978   -2.414154
     71          1           0      -10.111115    0.520643   -1.912861
     72          1           0      -10.025789    2.170740   -1.293864
     73          1           0       15.019047   -2.935683    0.364967
     74          1           0      -15.413881    1.809077    1.634680
     75          1           0       10.287610    2.187272   -0.696760
     76          1           0       -8.796980    0.412707    0.136101
     77          1           0        8.773970    4.176960   -0.477199
     78          1           0        7.131468    4.324395    0.256772
     79          1           0        8.499510    3.892201    1.080900
     80          1           0       -8.609310   -3.318706   -0.501005
     81          1           0       -7.959536   -2.604336   -2.158470
     82          1           0       -6.680774   -3.261276   -1.036696
     83          1           0        6.764391    0.402425   -0.479218
     84          1           0       -6.607863    0.461539   -0.008311
     85          1           0        5.350153    3.019711    0.533724
     86          1           0       -4.995493   -2.167780   -0.922792
     87          1           0        4.821479    0.216942   -0.625325
     88          1           0       -4.003269    0.680534   -0.201967
     89          1           0        3.452488    3.195353    1.611841
     90          1           0        1.714498    3.127552    0.697036
     91          1           0        3.141361    3.678680   -0.393577
     92          1           0       -2.873369   -2.813708   -0.013233
     93          1           0       -3.096390   -2.596555   -1.526164
     94          1           0       -1.287163   -2.282513   -0.877474
     95          1           0        2.125824   -0.279654   -0.647563
     96          1           0       -1.907845    0.978716    0.040670
     97          1           0        0.357486    1.892627    0.034819
     98          1           0        0.351752   -1.023113   -0.625980
 ---------------------------------------------------------------------

 SCF Done:  E(RCAM-B3LYP) =  -1706.93580714     A.U. after   14 cycles

 Excitation energies and oscillator strengths:

 Excited State   1:      Singlet-A      3.1384 eV  395.06 nm  f=3.6888  <S**2>=0.000
     155 ->158        -0.23504
     156 ->157         0.65401
 This state for optimization and/or second-order correction.
 Total Energy, E(TD-HF/TD-DFT) =  -1706.82047360
 Copying the excited state density for this state as the 1-particle RhoCI density.

 The electronic state is 1-A.
 Alpha  occ. eigenvalues --  -19.21434 -19.20819 -10.30631 -10.29183 -10.28743
 Alpha  occ. eigenvalues --  -10.28112 -10.27987 -10.27943 -10.27781 -10.27648
 Alpha  occ. eigenvalues --  -10.27421 -10.27167 -10.26918 -10.26910 -10.26805
 Alpha  occ. eigenvalues --  -10.26785 -10.26678 -10.26624 -10.26593 -10.26544
 Alpha  occ. eigenvalues --  -10.26542 -10.26310 -10.26305 -10.26278 -10.26022
 Alpha  occ. eigenvalues --  -10.25984 -10.25848 -10.25650 -10.25585 -10.25570
 Alpha  occ. eigenvalues --  -10.25543 -10.25459 -10.25435 -10.25314 -10.25041
 Alpha  occ. eigenvalues --  -10.24751 -10.24595 -10.24543 -10.24267 -10.23550
 Alpha  occ. eigenvalues --  -10.22888 -10.21816  -1.10429  -1.08127  -0.93555
 Alpha  occ. eigenvalues --   -0.93133  -0.93007  -0.91918  -0.89938  -0.89622
 Alpha  occ. eigenvalues --   -0.87749  -0.87394  -0.86532  -0.85695  -0.84865
 Alpha  occ. eigenvalues --   -0.83247  -0.82399  -0.80378  -0.80069  -0.79234
 Alpha  occ. eigenvalues --   -0.76869  -0.76269  -0.75889  -0.75739  -0.75026
 Alpha  occ. eigenvalues --   -0.74785  -0.74561  -0.74414  -0.73625  -0.70141
 Alpha  occ. eigenvalues --   -0.68750  -0.67775  -0.65594  -0.64543  -0.63577
 Alpha  occ. eigenvalues --   -0.63075  -0.62999  -0.61945  -0.60616  -0.59628
 Alpha  occ. eigenvalues --   -0.59484  -0.59069  -0.58776  -0.58370  -0.56568
 Alpha  occ. eigenvalues --   -0.55524  -0.54590  -0.54286  -0.53915  -0.53376
 Alpha  occ. eigenvalues --   -0.53047  -0.52081  -0.52007  -0.51561  -0.51508
 Alpha  occ. eigenvalues --   -0.51312  -0.50384  -0.50040  -0.49326  -0.49199
 Alpha  occ. eigenvalues --   -0.49160  -0.48483  -0.48333  -0.48074  -0.47929
 Alpha  occ. eigenvalues --   -0.47612  -0.47434  -0.47185  -0.46894  -0.46549
 Alpha  occ. eigenvalues --   -0.46060  -0.45742  -0.45399  -0.45095  -0.44820
 Alpha  occ. eigenvalues --   -0.44753  -0.44648  -0.44170  -0.44063  -0.43536
 Alpha  occ. eigenvalues --   -0.43019  -0.42639  -0.42335  -0.42260  -0.42078
 Alpha  occ. eigenvalues --   -0.41837  -0.41669  -0.41467  -0.40868  -0.40655
 Alpha  occ. eigenvalues --   -0.40511  -0.40300  -0.40064  -0.39232  -0.39148
 Alpha  occ. eigenvalues --   -0.38723  -0.38246  -0.37965  -0.37806  -0.37341
 Alpha  occ. eigenvalues --   -0.37153  -0.37005  -0.36569  -0.36465  -0.35538
 Alpha  occ. eigenvalues --   -0.34847  -0.34313  -0.32664  -0.32245  -0.32001
 Alpha  occ. eigenvalues --   -0.31470  -0.29311  -0.27862  -0.26521  -0.23816
 Alpha  occ. eigenvalues --   -0.21750
 Alpha virt. eigenvalues --   -0.03206  -0.00529   0.03124   0.05612   0.07613
 Alpha virt. eigenvalues --    0.09620   0.10715   0.11078   0.11367   0.11792
 Alpha virt. eigenvalues --    0.12452   0.12503   0.13244   0.13459   0.13503

 Mulliken charges:
               1
     1  O   -0.564551
     2  O   -0.576779
     3  C   -0.013926
     4  C   -0.024883
     5  C   -0.182109
     6  C   -0.199234
     7  C    0.180432
     8  C    0.193783
     9  C    0.045600
    10  C    0.065314
    11  C   -0.237728
    12  C   -0.212526
    13  C    0.110932
    14  C    0.007236
    15  C   -0.291023
    16  C   -0.308503
    17  C   -0.275594
    18  C   -0.323767
    19  C   -0.098927
    20  C   -0.181230
    21  C   -0.367333
    22  C   -0.341684
    23  C   -0.103497
    24  C   -0.081953
    25  C    0.018126
    26  C    0.109678
    27  C   -0.351055
    28  C   -0.356274
    29  C   -0.129161
    30  C   -0.121525
    31  C   -0.048368
    32  C   -0.112291
    33  C   -0.129427
    34  C   -0.101784
    35  C    0.097973
    36  C    0.135145
    37  C   -0.359520
    38  C   -0.359512
    39  C   -0.096581
    40  C   -0.135455
    41  C   -0.062317
    42  C   -0.113210
    43  H    0.105808
    44  H    0.063207
    45  H    0.081876
    46  H    0.099772
    47  H    0.073928
    48  H    0.093442
    49  H    0.116553
    50  H    0.087140
    51  H    0.106508
    52  H    0.110911
    53  H    0.100683
    54  H    0.111214
    55  H    0.087476
    56  H    0.083787
    57  H    0.102147
    58  H    0.097513
    59  H    0.102243
    60  H    0.104639
    61  H    0.099120
    62  H    0.079055
    63  H    0.104395
    64  H    0.113319
    65  H    0.092224
    66  H    0.067554
    67  H    0.093965
    68  H    0.086165
    69  H    0.115454
    70  H    0.110191
    71  H    0.124890
    72  H    0.120412
    73  H    0.304477
    74  H    0.303383
    75  H    0.091954
    76  H    0.079586
    77  H    0.117062
    78  H    0.114839
    79  H    0.138908
    80  H    0.111139
    81  H    0.134604
    82  H    0.093174
    83  H    0.091316
    84  H    0.087696
    85  H    0.084930
    86  H    0.076702
    87  H    0.073203
    88  H    0.073975
    89  H    0.099473
    90  H    0.105496
    91  H    0.110767
    92  H    0.140291
    93  H    0.122267
    94  H    0.096691
    95  H    0.074329
    96  H    0.077532
    97  H    0.074696
    98  H    0.083425
 Sum of Mulliken charges =  -0.00000

 Dipole moment (field-independent basis, Debye):
    X=             -0.8977    Y=             -1.2434    Z=              2.5829  Tot=              3.0039
 Quadrupole moment (field-independent basis, Debye-Ang):
   XX=           -265.3304   YY=           -246.0942   ZZ=           -261.1277
   XY=             12.0911   XZ=              2.4609   YZ=              1.1016

 Normal termination of Gaussian 16 at Tue Jul  2 23:16:42 2019.
