 Gaussian 16, Revision A.03,
 Gaussian 16:  ES64L-G16RevA.03 25-Dec-2016

 -------------------------------------
 # td=(NStates=1) CAM-B3LYP/6-31G(d,p)
 -------------------------------------

 --
 TD
 --
 Symbolic Z-matrix:
 Charge =  0 Multiplicity = 1

                         Standard orientation:
 ---------------------------------------------------------------------
 Center     Atomic      Atomic             Coordinates (Angstroms)
 Number     Number       Type             X           Y           Z
 ---------------------------------------------------------------------
      1          8           0       14.647537   -2.208679   -0.397733
      2          8           0      -14.802495    1.853032    0.651919
      3          6           0       11.414694   -1.140937    1.151680
      4          6           0      -12.444602   -1.024299    0.615374
      5          6           0       12.905664   -1.359562    0.987963
      6          6           0      -13.786711   -0.365763    0.704545
      7          6           0       13.232084   -1.912597   -0.316218
      8          6           0      -13.653837    1.222451    0.764226
      9          6           0       10.835992   -0.327473   -0.078741
     10          6           0      -11.329182   -0.296766   -0.201332
     11          6           0       12.940216   -0.856035   -1.359587
     12          6           0      -12.774178    1.774105   -0.420671
     13          6           0       11.591511   -0.239820   -1.120526
     14          6           0      -11.543738    0.915280   -0.757036
     15          6           0       11.191636   -0.264481    2.447289
     16          6           0       10.616904   -2.445871    1.376116
     17          6           0      -11.797091   -1.012189    2.118499
     18          6           0      -12.540351   -2.443317    0.228794
     19          6           0        9.642315    0.280250    0.109623
     20          6           0      -10.052512   -1.039846   -0.374171
     21          6           0       11.212628    0.405843   -2.370986
     22          6           0      -10.604241    1.531277   -1.802075
     23          6           0        9.372257    1.546341   -0.138473
     24          6           0       -8.830660   -0.396747   -0.244458
     25          6           0        8.029598    2.243549    0.108254
     26          6           0       -7.545797   -1.162239   -0.302743
     27          6           0        8.211181    3.744426    0.450817
     28          6           0       -7.603002   -2.559525   -0.749939
     29          6           0        6.878545    1.609313   -0.001040
     30          6           0       -6.353469   -0.518130   -0.269784
     31          6           0        5.503314    1.922424    0.183845
     32          6           0       -5.037922   -0.999034   -0.436094
     33          6           0        4.486099    1.155493    0.066011
     34          6           0       -3.872252   -0.193491   -0.283247
     35          6           0        3.105568    1.633440    0.207849
     36          6           0       -2.603493   -0.762013   -0.496780
     37          6           0        2.904526    3.064798    0.536721
     38          6           0       -2.478203   -2.174701   -1.078548
     39          6           0        2.077186    0.729668    0.029845
     40          6           0       -1.536089    0.075713   -0.121238
     41          6           0        0.728614    0.824025    0.055417
     42          6           0       -0.111881   -0.171516   -0.169217
     43          1           0       13.387647   -0.503919    1.187191
     44          1           0       13.234804   -1.967200    2.010395
     45          1           0      -14.490589   -0.653495    1.465975
     46          1           0      -14.179630   -0.389304   -0.290745
     47          1           0       12.693008   -2.901181   -0.515921
     48          1           0      -13.104806    1.394442    1.782889
     49          1           0       13.715860   -0.085642   -1.127724
     50          1           0       13.111869   -1.231991   -2.235200
     51          1           0      -13.517297    1.913824   -1.365258
     52          1           0      -12.336419    2.881581   -0.169628
     53          1           0       11.717965   -0.833631    3.243956
     54          1           0       10.360260   -0.016547    2.705277
     55          1           0       11.710549    0.603002    2.298947
     56          1           0       10.681556   -3.027067    0.480684
     57          1           0       10.983032   -2.932841    2.175415
     58          1           0        9.604094   -2.155207    1.479006
     59          1           0      -11.661908    0.040421    2.510776
     60          1           0      -10.869261   -1.683458    1.990320
     61          1           0      -12.394419   -1.620759    2.748908
     62          1           0      -13.352350   -2.824885    0.794177
     63          1           0      -11.854673   -3.239668    0.494388
     64          1           0      -12.722107   -2.369858   -0.876879
     65          1           0        8.915431   -0.337702    0.441582
     66          1           0      -10.223306   -2.205288   -0.658971
     67          1           0       10.104581    0.850587   -2.461697
     68          1           0       11.859898    1.319749   -2.525596
     69          1           0       11.360038   -0.132038   -3.282744
     70          1           0      -11.166973    1.788647   -2.521763
     71          1           0       -9.659195    1.082268   -2.144128
     72          1           0      -10.259419    2.557524   -1.381915
     73          1           0       14.967365   -2.771791    0.264848
     74          1           0      -15.297133    1.971219    1.528999
     75          1           0       10.078705    2.281278   -0.639277
     76          1           0       -8.829385    0.560512   -0.005527
     77          1           0        8.703327    4.389244   -0.477558
     78          1           0        7.259143    4.229107    0.786447
     79          1           0        8.906570    3.774183    1.294583
     80          1           0       -8.053505   -3.334140    0.018395
     81          1           0       -8.103918   -2.517344   -1.783881
     82          1           0       -6.625185   -2.760701   -1.143000
     83          1           0        6.949035    0.582815   -0.321717
     84          1           0       -6.285430    0.593074   -0.269526
     85          1           0        5.208601    3.077540    0.326217
     86          1           0       -4.788648   -1.912057   -0.745522
     87          1           0        4.739927    0.205379   -0.249009
     88          1           0       -4.049186    0.802054    0.251045
     89          1           0        3.262907    3.265737    1.567540
     90          1           0        1.926004    3.391713    0.538875
     91          1           0        3.419095    3.783181    0.019715
     92          1           0       -2.915278   -2.855684   -0.330491
     93          1           0       -3.175916   -2.120415   -2.045440
     94          1           0       -1.383452   -2.504282   -1.176382
     95          1           0        2.590968   -0.284818   -0.239121
     96          1           0       -1.729082    1.090606    0.351298
     97          1           0        0.376079    1.861525    0.102988
     98          1           0        0.151899   -1.345390   -0.209467
 ---------------------------------------------------------------------

 SCF Done:  E(RCAM-B3LYP) =  -1706.97789414     A.U. after   14 cycles

 Excitation energies and oscillator strengths:

 Excited State   1:      Singlet-A      2.6206 eV  473.11 nm  f=3.6295  <S**2>=0.000
     155 ->158         0.14707
     156 ->157         0.68870
 This state for optimization and/or second-order correction.
 Total Energy, E(TD-HF/TD-DFT) =  -1706.88158855
 Copying the excited state density for this state as the 1-particle RhoCI density.

 The electronic state is 1-A.
 Alpha  occ. eigenvalues --  -19.22425 -19.19644 -10.31204 -10.30287 -10.27865
 Alpha  occ. eigenvalues --  -10.27617 -10.27510 -10.27372 -10.27318 -10.27150
 Alpha  occ. eigenvalues --  -10.27122 -10.26908 -10.26884 -10.26735 -10.26703
 Alpha  occ. eigenvalues --  -10.26565 -10.26534 -10.26412 -10.26068 -10.25831
 Alpha  occ. eigenvalues --  -10.25688 -10.25679 -10.25636 -10.25345 -10.25287
 Alpha  occ. eigenvalues --  -10.25209 -10.25088 -10.24978 -10.24930 -10.24827
 Alpha  occ. eigenvalues --  -10.24639 -10.24637 -10.24242 -10.24229 -10.24215
 Alpha  occ. eigenvalues --  -10.24101 -10.24087 -10.23946 -10.23801 -10.23514
 Alpha  occ. eigenvalues --  -10.22954 -10.21684  -1.12760  -1.08515  -0.95081
 Alpha  occ. eigenvalues --   -0.92622  -0.92529  -0.91549  -0.90514  -0.89680
 Alpha  occ. eigenvalues --   -0.88417  -0.87745  -0.86642  -0.86324  -0.84189
 Alpha  occ. eigenvalues --   -0.83332  -0.81646  -0.80999  -0.79491  -0.78736
 Alpha  occ. eigenvalues --   -0.77848  -0.76905  -0.76587  -0.76056  -0.75668
 Alpha  occ. eigenvalues --   -0.75564  -0.75217  -0.74311  -0.73674  -0.70571
 Alpha  occ. eigenvalues --   -0.69107  -0.67654  -0.66673  -0.65045  -0.63732
 Alpha  occ. eigenvalues --   -0.63498  -0.62432  -0.61225  -0.60956  -0.60331
 Alpha  occ. eigenvalues --   -0.59809  -0.59519  -0.59370  -0.57632  -0.56736
 Alpha  occ. eigenvalues --   -0.55987  -0.55570  -0.54963  -0.54468  -0.53558
 Alpha  occ. eigenvalues --   -0.53199  -0.52770  -0.52384  -0.51289  -0.51121
 Alpha  occ. eigenvalues --   -0.50759  -0.50442  -0.49878  -0.49547  -0.49077
 Alpha  occ. eigenvalues --   -0.48855  -0.48758  -0.48534  -0.48274  -0.48215
 Alpha  occ. eigenvalues --   -0.47948  -0.47921  -0.47334  -0.47098  -0.46663
 Alpha  occ. eigenvalues --   -0.46290  -0.46145  -0.45908  -0.45190  -0.45110
 Alpha  occ. eigenvalues --   -0.44982  -0.44414  -0.44268  -0.44133  -0.43940
 Alpha  occ. eigenvalues --   -0.43687  -0.42873  -0.42670  -0.42506  -0.42067
 Alpha  occ. eigenvalues --   -0.41707  -0.41493  -0.41135  -0.41007  -0.40640
 Alpha  occ. eigenvalues --   -0.40625  -0.39835  -0.39769  -0.39619  -0.39206
 Alpha  occ. eigenvalues --   -0.38959  -0.38788  -0.38627  -0.37822  -0.37492
 Alpha  occ. eigenvalues --   -0.37239  -0.37068  -0.36579  -0.35727  -0.35652
 Alpha  occ. eigenvalues --   -0.34725  -0.34199  -0.33537  -0.32280  -0.31974
 Alpha  occ. eigenvalues --   -0.30695  -0.30104  -0.27896  -0.26295  -0.24107
 Alpha  occ. eigenvalues --   -0.20133
 Alpha virt. eigenvalues --   -0.04438   0.00330   0.03332   0.06242   0.08614
 Alpha virt. eigenvalues --    0.10360   0.10579   0.11677   0.11856   0.12812
 Alpha virt. eigenvalues --    0.13079   0.13211   0.13546   0.14106   0.14340

 Mulliken charges:
               1
     1  O   -0.581381
     2  O   -0.525310
     3  C   -0.059489
     4  C   -0.011480
     5  C   -0.169812
     6  C   -0.177351
     7  C    0.168308
     8  C    0.169895
     9  C    0.099419
    10  C    0.055390
    11  C   -0.196279
    12  C   -0.223390
    13  C    0.044471
    14  C    0.033135
    15  C   -0.282523
    16  C   -0.287885
    17  C   -0.306950
    18  C   -0.311767
    19  C   -0.096588
    20  C   -0.131777
    21  C   -0.382211
    22  C   -0.342026
    23  C   -0.109800
    24  C   -0.076986
    25  C    0.063251
    26  C    0.095035
    27  C   -0.360617
    28  C   -0.368664
    29  C   -0.122528
    30  C   -0.124110
    31  C   -0.055337
    32  C   -0.089027
    33  C   -0.094382
    34  C   -0.112511
    35  C    0.108497
    36  C    0.099969
    37  C   -0.394925
    38  C   -0.368469
    39  C   -0.125652
    40  C   -0.142793
    41  C   -0.079264
    42  C   -0.071360
    43  H    0.110958
    44  H    0.046760
    45  H    0.087760
    46  H    0.098918
    47  H    0.075031
    48  H    0.048422
    49  H    0.123185
    50  H    0.116075
    51  H    0.098794
    52  H    0.088681
    53  H    0.081444
    54  H    0.102626
    55  H    0.103417
    56  H    0.100118
    57  H    0.107284
    58  H    0.102032
    59  H    0.100210
    60  H    0.096185
    61  H    0.089701
    62  H    0.101114
    63  H    0.103957
    64  H    0.101394
    65  H    0.088325
    66  H    0.093948
    67  H    0.095154
    68  H    0.103449
    69  H    0.114395
    70  H    0.120931
    71  H    0.121839
    72  H    0.081731
    73  H    0.296146
    74  H    0.317265
    75  H    0.091351
    76  H    0.087260
    77  H    0.095671
    78  H    0.112340
    79  H    0.126047
    80  H    0.109563
    81  H    0.116398
    82  H    0.110319
    83  H    0.069009
    84  H    0.074609
    85  H    0.053173
    86  H    0.066181
    87  H    0.075851
    88  H    0.087451
    89  H    0.122893
    90  H    0.110035
    91  H    0.134312
    92  H    0.136094
    93  H    0.121683
    94  H    0.108394
    95  H    0.065227
    96  H    0.082434
    97  H    0.089181
    98  H    0.082549
 Sum of Mulliken charges =  -0.00000

 Dipole moment (field-independent basis, Debye):
    X=             -0.7622    Y=             -0.2434    Z=              1.9270  Tot=              2.0865
 Quadrupole moment (field-independent basis, Debye-Ang):
   XX=           -253.9299   YY=           -243.0084   ZZ=           -259.2797
   XY=              1.1798   XZ=             -7.3417   YZ=              2.1202

 Normal termination of Gaussian 16 at Thu Jul 11 07:12:09 2019.
