 Gaussian 16, Revision A.03,
 Gaussian 16:  ES64L-G16RevA.03 25-Dec-2016

 -------------------------------------
 # td=(NStates=1) CAM-B3LYP/6-31G(d,p)
 -------------------------------------

 --
 TD
 --
 Symbolic Z-matrix:
 Charge =  0 Multiplicity = 1

                         Standard orientation:
 ---------------------------------------------------------------------
 Center     Atomic      Atomic             Coordinates (Angstroms)
 Number     Number       Type             X           Y           Z
 ---------------------------------------------------------------------
      1          8           0       14.774301   -1.962851   -0.611721
      2          8           0      -14.909677    1.857984    0.486679
      3          6           0       11.648063   -1.154143    1.118841
      4          6           0      -12.394639   -0.996555    0.650869
      5          6           0       13.120969   -1.441951    1.017104
      6          6           0      -13.734660   -0.269259    0.611157
      7          6           0       13.396517   -1.895801   -0.461982
      8          6           0      -13.640250    1.253288    0.596240
      9          6           0       11.019873   -0.322123    0.058842
     10          6           0      -11.358021   -0.387117   -0.297165
     11          6           0       12.969932   -0.880539   -1.423494
     12          6           0      -12.858479    1.674000   -0.661119
     13          6           0       11.626690   -0.212818   -1.133396
     14          6           0      -11.626711    0.820723   -0.811698
     15          6           0       11.286858   -0.323529    2.489425
     16          6           0       10.715041   -2.458460    1.241909
     17          6           0      -11.863479   -0.812789    2.157465
     18          6           0      -12.620246   -2.463132    0.340652
     19          6           0        9.689124    0.172774    0.229330
     20          6           0      -10.093031   -1.046091   -0.430500
     21          6           0       11.182737    0.526802   -2.516392
     22          6           0      -10.623256    1.398016   -1.769691
     23          6           0        9.274467    1.514389   -0.153299
     24          6           0       -8.886229   -0.535456   -0.364471
     25          6           0        8.074270    2.158790   -0.034921
     26          6           0       -7.577809   -1.272761   -0.419439
     27          6           0        8.097255    3.639790    0.344518
     28          6           0       -7.565014   -2.654776   -0.886388
     29          6           0        6.913666    1.456865   -0.021070
     30          6           0       -6.406797   -0.545076   -0.134340
     31          6           0        5.549472    2.025921    0.129587
     32          6           0       -5.055588   -1.012447   -0.402441
     33          6           0        4.399995    1.246793    0.169787
     34          6           0       -3.952502   -0.271201   -0.053134
     35          6           0        3.070252    1.628857    0.235237
     36          6           0       -2.661405   -0.728866   -0.200949
     37          6           0        2.891243    3.136705    0.569227
     38          6           0       -2.397580   -2.069776   -0.776250
     39          6           0        2.077792    0.834962    0.103229
     40          6           0       -1.624763    0.132811    0.158134
     41          6           0        0.626215    0.984900    0.308603
     42          6           0       -0.277664    0.003331   -0.047175
     43          1           0       13.893729   -0.675466    1.342566
     44          1           0       13.364085   -2.396437    1.686438
     45          1           0      -14.545701   -0.624869    1.271592
     46          1           0      -14.189530   -0.444149   -0.504611
     47          1           0       12.915539   -2.867792   -0.529548
     48          1           0      -12.998113    1.890038    1.527833
     49          1           0       13.868790   -0.113074   -1.514781
     50          1           0       12.850595   -1.201077   -2.395404
     51          1           0      -13.502182    1.590404   -1.646958
     52          1           0      -12.533296    2.729107   -0.571576
     53          1           0       11.714674   -0.642523    3.378759
     54          1           0       10.218175   -0.138271    2.501388
     55          1           0       12.003090    0.615135    2.348256
     56          1           0       10.677585   -3.130877    0.292555
     57          1           0       11.137762   -2.961030    2.107291
     58          1           0        9.700975   -2.149693    1.552593
     59          1           0      -11.891219    0.412821    2.412634
     60          1           0      -10.781732   -1.358282    2.362835
     61          1           0      -12.443722   -1.262364    2.935122
     62          1           0      -13.431415   -2.898944    0.851323
     63          1           0      -11.682460   -2.919686    0.752137
     64          1           0      -12.818219   -2.791907   -0.637205
     65          1           0        8.784137   -0.538472    0.544214
     66          1           0      -10.397815   -2.073053   -0.843752
     67          1           0        9.998112    0.604529   -2.385910
     68          1           0       11.680392    1.534534   -2.500677
     69          1           0       11.589291    0.011570   -3.527658
     70          1           0      -11.178238    1.946105   -2.490236
     71          1           0      -10.014245    0.727778   -2.219152
     72          1           0       -9.999838    2.290450   -1.593316
     73          1           0       15.086275   -2.744026   -0.000825
     74          1           0      -15.173872    1.782721    1.451519
     75          1           0       10.197051    2.077269   -0.230382
     76          1           0       -8.692966    0.535180    0.029383
     77          1           0        8.810108    4.260219   -0.225324
     78          1           0        6.988808    4.095754    0.045679
     79          1           0        8.232117    3.824566    1.557248
     80          1           0       -8.018908   -3.445395   -0.177635
     81          1           0       -8.124410   -2.635465   -1.925512
     82          1           0       -6.506600   -2.958836   -1.120223
     83          1           0        6.903351    0.394312   -0.324898
     84          1           0       -6.562769    0.560758    0.314249
     85          1           0        5.428162    3.138339    0.386307
     86          1           0       -4.780736   -2.031451   -0.810816
     87          1           0        4.708284    0.201938   -0.161517
     88          1           0       -4.063339    0.747552    0.414376
     89          1           0        3.529188    3.174150    1.423458
     90          1           0        1.735984    3.504026    1.004523
     91          1           0        3.173700    3.849444   -0.244868
     92          1           0       -3.069135   -2.941571   -0.213622
     93          1           0       -2.741748   -2.287720   -1.756179
     94          1           0       -1.320165   -2.415409   -0.777164
     95          1           0        2.520762   -0.296997    0.294274
     96          1           0       -2.009658    1.163786    0.431632
     97          1           0        0.190899    1.886648    0.610230
     98          1           0        0.179562   -0.895676   -0.685375
 ---------------------------------------------------------------------

 SCF Done:  E(RCAM-B3LYP) =  -1706.96974541     A.U. after   15 cycles

 Excitation energies and oscillator strengths:

 Excited State   1:      Singlet-A      2.4577 eV  504.48 nm  f=3.7390  <S**2>=0.000
     155 ->158        -0.18841
     156 ->157         0.67724
 This state for optimization and/or second-order correction.
 Total Energy, E(TD-HF/TD-DFT) =  -1706.87942801
 Copying the excited state density for this state as the 1-particle RhoCI density.

 The electronic state is 1-A.
 Alpha  occ. eigenvalues --  -19.21920 -19.21644 -10.32136 -10.29796 -10.28134
 Alpha  occ. eigenvalues --  -10.27970 -10.27933 -10.27847 -10.27824 -10.27664
 Alpha  occ. eigenvalues --  -10.27571 -10.27342 -10.27230 -10.27122 -10.27092
 Alpha  occ. eigenvalues --  -10.27009 -10.26996 -10.26979 -10.26887 -10.26817
 Alpha  occ. eigenvalues --  -10.26768 -10.26647 -10.26604 -10.26488 -10.26466
 Alpha  occ. eigenvalues --  -10.26420 -10.26360 -10.26352 -10.26334 -10.26309
 Alpha  occ. eigenvalues --  -10.26021 -10.25995 -10.25946 -10.25842 -10.25766
 Alpha  occ. eigenvalues --  -10.25737 -10.25663 -10.24918 -10.24742 -10.24526
 Alpha  occ. eigenvalues --  -10.23853 -10.22511  -1.10030  -1.09805  -0.93709
 Alpha  occ. eigenvalues --   -0.93663  -0.92718  -0.92109  -0.90671  -0.89932
 Alpha  occ. eigenvalues --   -0.87469  -0.86676  -0.85577  -0.85197  -0.84689
 Alpha  occ. eigenvalues --   -0.82914  -0.81522  -0.79767  -0.78318  -0.77563
 Alpha  occ. eigenvalues --   -0.76300  -0.76028  -0.75826  -0.75571  -0.75040
 Alpha  occ. eigenvalues --   -0.74991  -0.74747  -0.74193  -0.73816  -0.70740
 Alpha  occ. eigenvalues --   -0.69172  -0.67141  -0.65253  -0.64402  -0.64362
 Alpha  occ. eigenvalues --   -0.63846  -0.62682  -0.60894  -0.59949  -0.59473
 Alpha  occ. eigenvalues --   -0.59219  -0.59049  -0.57315  -0.57137  -0.55516
 Alpha  occ. eigenvalues --   -0.55291  -0.54847  -0.54417  -0.53940  -0.53155
 Alpha  occ. eigenvalues --   -0.53054  -0.52648  -0.51819  -0.51313  -0.50418
 Alpha  occ. eigenvalues --   -0.49981  -0.49726  -0.49344  -0.49109  -0.48842
 Alpha  occ. eigenvalues --   -0.48281  -0.48072  -0.47975  -0.47599  -0.47413
 Alpha  occ. eigenvalues --   -0.47392  -0.47078  -0.46905  -0.46364  -0.46196
 Alpha  occ. eigenvalues --   -0.45930  -0.45776  -0.45196  -0.44946  -0.44742
 Alpha  occ. eigenvalues --   -0.44074  -0.43575  -0.43397  -0.43199  -0.42989
 Alpha  occ. eigenvalues --   -0.42755  -0.42623  -0.42271  -0.41754  -0.41695
 Alpha  occ. eigenvalues --   -0.41411  -0.41341  -0.41226  -0.40823  -0.40735
 Alpha  occ. eigenvalues --   -0.40498  -0.40260  -0.39909  -0.39801  -0.39306
 Alpha  occ. eigenvalues --   -0.39047  -0.38601  -0.38535  -0.38407  -0.38157
 Alpha  occ. eigenvalues --   -0.37528  -0.36830  -0.36566  -0.36265  -0.35920
 Alpha  occ. eigenvalues --   -0.35106  -0.34482  -0.33955  -0.32144  -0.31748
 Alpha  occ. eigenvalues --   -0.30851  -0.29762  -0.28348  -0.26567  -0.23391
 Alpha  occ. eigenvalues --   -0.20310
 Alpha virt. eigenvalues --   -0.05250  -0.01457   0.02691   0.05874   0.07993
 Alpha virt. eigenvalues --    0.08776   0.10387   0.10674   0.10935   0.11433
 Alpha virt. eigenvalues --    0.11994   0.12629   0.12841   0.13170   0.13486

 Mulliken charges:
               1
     1  O   -0.555336
     2  O   -0.540853
     3  C   -0.047202
     4  C    0.001465
     5  C   -0.199556
     6  C   -0.186137
     7  C    0.171339
     8  C    0.163091
     9  C    0.128726
    10  C    0.061619
    11  C   -0.202840
    12  C   -0.222409
    13  C    0.016364
    14  C    0.064830
    15  C   -0.307974
    16  C   -0.299413
    17  C   -0.292239
    18  C   -0.320810
    19  C   -0.143794
    20  C   -0.125866
    21  C   -0.347398
    22  C   -0.373950
    23  C   -0.135987
    24  C   -0.098156
    25  C    0.121420
    26  C    0.116120
    27  C   -0.349245
    28  C   -0.366167
    29  C   -0.123794
    30  C   -0.133056
    31  C   -0.093052
    32  C   -0.105957
    33  C   -0.137451
    34  C   -0.105964
    35  C    0.170666
    36  C    0.166615
    37  C   -0.362511
    38  C   -0.396241
    39  C   -0.165215
    40  C   -0.148081
    41  C   -0.095815
    42  C   -0.062558
    43  H    0.107733
    44  H    0.060727
    45  H    0.088945
    46  H    0.087825
    47  H    0.084116
    48  H    0.038535
    49  H    0.112324
    50  H    0.113287
    51  H    0.111448
    52  H    0.111859
    53  H    0.103978
    54  H    0.117452
    55  H    0.080367
    56  H    0.094583
    57  H    0.103240
    58  H    0.106018
    59  H    0.079213
    60  H    0.084321
    61  H    0.107049
    62  H    0.103061
    63  H    0.099811
    64  H    0.112180
    65  H    0.085680
    66  H    0.097021
    67  H    0.115752
    68  H    0.122769
    69  H    0.095109
    70  H    0.094336
    71  H    0.125460
    72  H    0.099331
    73  H    0.300775
    74  H    0.309494
    75  H    0.086835
    76  H    0.089595
    77  H    0.120164
    78  H    0.088250
    79  H    0.109968
    80  H    0.119450
    81  H    0.107883
    82  H    0.104526
    83  H    0.086018
    84  H    0.081950
    85  H    0.082170
    86  H    0.086900
    87  H    0.075007
    88  H    0.082017
    89  H    0.133953
    90  H    0.070946
    91  H    0.123901
    92  H    0.089660
    93  H    0.138352
    94  H    0.111579
    95  H    0.066430
    96  H    0.080062
    97  H    0.086128
    98  H    0.087228
 Sum of Mulliken charges =  -0.00000

 Dipole moment (field-independent basis, Debye):
    X=              0.5072    Y=             -1.7024    Z=              1.5708  Tot=              2.3712
 Quadrupole moment (field-independent basis, Debye-Ang):
   XX=           -263.5034   YY=           -245.1675   ZZ=           -261.4376
   XY=              0.5482   XZ=             -3.6682   YZ=              3.3104

 Normal termination of Gaussian 16 at Fri Jul  5 06:57:36 2019.
