 Gaussian 16, Revision A.03,
 Gaussian 16:  ES64L-G16RevA.03 25-Dec-2016

 -------------------------------------
 # td=(NStates=1) CAM-B3LYP/6-31G(d,p)
 -------------------------------------

 --
 TD
 --
 Symbolic Z-matrix:
 Charge =  0 Multiplicity = 1

                         Standard orientation:
 ---------------------------------------------------------------------
 Center     Atomic      Atomic             Coordinates (Angstroms)
 Number     Number       Type             X           Y           Z
 ---------------------------------------------------------------------
      1          8           0       14.730932   -2.094866   -0.292163
      2          8           0      -14.792356    1.732848    1.091462
      3          6           0       11.360147   -1.346299    1.127140
      4          6           0      -12.278044   -1.050551    0.843661
      5          6           0       12.868577   -1.622407    1.122772
      6          6           0      -13.638468   -0.330221    0.891826
      7          6           0       13.309162   -1.964860   -0.314835
      8          6           0      -13.495732    1.117972    0.891245
      9          6           0       10.875999   -0.506193   -0.085362
     10          6           0      -11.313494   -0.318296   -0.228585
     11          6           0       13.094454   -0.914163   -1.259731
     12          6           0      -12.874689    1.543037   -0.429675
     13          6           0       11.634940   -0.372953   -1.087027
     14          6           0      -11.675196    0.774243   -0.854638
     15          6           0       11.065376   -0.601699    2.481694
     16          6           0       10.589576   -2.648562    1.279245
     17          6           0      -11.596546   -0.957128    2.253079
     18          6           0      -12.474337   -2.478165    0.393124
     19          6           0        9.595973    0.303472    0.281180
     20          6           0      -10.010607   -1.087765   -0.429651
     21          6           0       11.284587    0.560649   -2.273229
     22          6           0      -10.841298    1.478574   -1.904197
     23          6           0        9.361732    1.616308   -0.048910
     24          6           0       -8.793271   -0.546447   -0.341978
     25          6           0        8.126024    2.289338    0.071510
     26          6           0       -7.561873   -1.217294   -0.594582
     27          6           0        8.167886    3.733317    0.672805
     28          6           0       -7.643343   -2.670332   -0.923506
     29          6           0        6.920447    1.611010   -0.034843
     30          6           0       -6.414031   -0.434561   -0.432481
     31          6           0        5.539857    2.051454    0.109707
     32          6           0       -5.073064   -0.913023   -0.797159
     33          6           0        4.447920    1.323160   -0.111786
     34          6           0       -3.982596   -0.214820   -0.448296
     35          6           0        3.033295    1.780357    0.175667
     36          6           0       -2.554827   -0.618973   -0.558887
     37          6           0        2.845380    3.163963    0.715193
     38          6           0       -2.231795   -2.049615   -1.013927
     39          6           0        2.096333    1.028729   -0.088580
     40          6           0       -1.594986    0.349321   -0.345709
     41          6           0        0.566267    1.290735   -0.064448
     42          6           0       -0.204941    0.183412   -0.403417
     43          1           0       13.414865   -0.618845    1.362275
     44          1           0       13.116436   -2.497484    1.827782
     45          1           0      -14.084084   -0.666772    1.876216
     46          1           0      -14.320574   -0.725185    0.026334
     47          1           0       12.744201   -2.945915   -0.648556
     48          1           0      -12.762211    1.434417    1.491204
     49          1           0       13.721691   -0.161844   -1.104929
     50          1           0       13.270164   -1.176203   -2.217171
     51          1           0      -13.552958    1.353921   -1.308006
     52          1           0      -12.828704    2.664291   -0.366321
     53          1           0       11.421603   -1.191175    3.298993
     54          1           0        9.973056   -0.447088    2.600175
     55          1           0       11.509907    0.404829    2.366884
     56          1           0       10.572955   -3.234616    0.259387
     57          1           0       10.970791   -3.214961    2.223144
     58          1           0        9.421278   -2.437475    1.192458
     59          1           0      -11.550948    0.107426    2.769130
     60          1           0      -10.582811   -1.411471    1.929221
     61          1           0      -12.149142   -1.646762    2.903697
     62          1           0      -13.365718   -3.012114    1.121370
     63          1           0      -11.523599   -3.007136    0.545946
     64          1           0      -12.975549   -2.547203   -0.706372
     65          1           0        8.736342   -0.312405    0.743039
     66          1           0       -9.955549   -2.019984   -0.654840
     67          1           0       10.380473    0.980300   -2.429102
     68          1           0       12.043903    1.460285   -2.456630
     69          1           0       11.488887    0.018911   -3.074978
     70          1           0      -11.698810    1.941452   -2.733658
     71          1           0      -10.147082    0.794118   -2.602681
     72          1           0      -10.194073    2.449614   -1.337782
     73          1           0       14.827228   -2.451498    0.564383
     74          1           0      -15.007210    1.475175    2.045583
     75          1           0       10.032139    2.266481   -0.598214
     76          1           0       -8.854057    0.591071   -0.192709
     77          1           0        9.163862    4.195996    0.101468
     78          1           0        7.188896    4.387423    0.146820
     79          1           0        8.299399    4.024562    1.707236
     80          1           0       -8.198532   -2.971310   -0.291723
     81          1           0       -8.130078   -2.855519   -1.863518
     82          1           0       -6.646717   -3.103588   -0.953300
     83          1           0        6.800600    0.456780   -0.327830
     84          1           0       -6.388529    0.472722    0.217666
     85          1           0        5.489072    3.095214    0.748086
     86          1           0       -4.943702   -1.943853   -1.288019
     87          1           0        4.587311    0.372720   -0.723306
     88          1           0       -4.125910    0.751391   -0.043485
     89          1           0        2.993508    3.214458    1.781045
     90          1           0        1.684880    3.403229    0.713717
     91          1           0        3.447079    3.894070   -0.020025
     92          1           0       -2.656262   -2.716548   -0.166455
     93          1           0       -2.961901   -2.357605   -1.933932
     94          1           0       -1.246641   -2.071069   -1.347747
     95          1           0        2.228073   -0.145415   -0.490397
     96          1           0       -1.937290    1.277834   -0.012938
     97          1           0        0.364116    2.106320    0.129721
     98          1           0        0.202552   -0.816168   -0.599208
 ---------------------------------------------------------------------

 SCF Done:  E(RCAM-B3LYP) =  -1706.85141639     A.U. after   14 cycles

 Excitation energies and oscillator strengths:

 Excited State   1:      Singlet-A      3.0731 eV  403.45 nm  f=3.5396  <S**2>=0.000
     155 ->158        -0.19820
     156 ->157         0.66903
 This state for optimization and/or second-order correction.
 Total Energy, E(TD-HF/TD-DFT) =  -1706.73848123
 Copying the excited state density for this state as the 1-particle RhoCI density.

 The electronic state is 1-A.
 Alpha  occ. eigenvalues --  -19.21481 -19.20384 -10.30110 -10.29366 -10.28891
 Alpha  occ. eigenvalues --  -10.28727 -10.27911 -10.27798 -10.27731 -10.27534
 Alpha  occ. eigenvalues --  -10.27499 -10.27490 -10.27473 -10.27413 -10.27383
 Alpha  occ. eigenvalues --  -10.27340 -10.27194 -10.27140 -10.26962 -10.26914
 Alpha  occ. eigenvalues --  -10.26838 -10.26777 -10.26662 -10.26300 -10.26294
 Alpha  occ. eigenvalues --  -10.26154 -10.26153 -10.26086 -10.26051 -10.26003
 Alpha  occ. eigenvalues --  -10.25980 -10.25772 -10.25747 -10.25633 -10.25633
 Alpha  occ. eigenvalues --  -10.25261 -10.25092 -10.24460 -10.24024 -10.24006
 Alpha  occ. eigenvalues --  -10.23590 -10.23174  -1.10458  -1.08072  -0.93703
 Alpha  occ. eigenvalues --   -0.93700  -0.92508  -0.91950  -0.90958  -0.90077
 Alpha  occ. eigenvalues --   -0.87555  -0.87235  -0.86895  -0.85605  -0.84812
 Alpha  occ. eigenvalues --   -0.83714  -0.82665  -0.80800  -0.79314  -0.77937
 Alpha  occ. eigenvalues --   -0.77456  -0.76738  -0.76396  -0.75609  -0.74876
 Alpha  occ. eigenvalues --   -0.74761  -0.74625  -0.74158  -0.73593  -0.71024
 Alpha  occ. eigenvalues --   -0.69022  -0.67720  -0.65980  -0.65722  -0.63954
 Alpha  occ. eigenvalues --   -0.63292  -0.62524  -0.61643  -0.60687  -0.59859
 Alpha  occ. eigenvalues --   -0.59018  -0.58350  -0.58004  -0.57149  -0.56979
 Alpha  occ. eigenvalues --   -0.56259  -0.55152  -0.54980  -0.54535  -0.53777
 Alpha  occ. eigenvalues --   -0.53090  -0.52410  -0.52267  -0.51658  -0.51145
 Alpha  occ. eigenvalues --   -0.51002  -0.50189  -0.49844  -0.49740  -0.49464
 Alpha  occ. eigenvalues --   -0.49167  -0.48594  -0.48370  -0.48300  -0.47712
 Alpha  occ. eigenvalues --   -0.47523  -0.47337  -0.46868  -0.46517  -0.46314
 Alpha  occ. eigenvalues --   -0.46112  -0.45698  -0.45485  -0.45076  -0.44982
 Alpha  occ. eigenvalues --   -0.44938  -0.44677  -0.44030  -0.43991  -0.43606
 Alpha  occ. eigenvalues --   -0.42888  -0.42630  -0.42397  -0.42109  -0.42001
 Alpha  occ. eigenvalues --   -0.41765  -0.41520  -0.41287  -0.40813  -0.40627
 Alpha  occ. eigenvalues --   -0.40526  -0.40098  -0.40016  -0.39360  -0.39164
 Alpha  occ. eigenvalues --   -0.39123  -0.38945  -0.38611  -0.38201  -0.37733
 Alpha  occ. eigenvalues --   -0.37620  -0.36434  -0.36159  -0.36086  -0.35602
 Alpha  occ. eigenvalues --   -0.35370  -0.34175  -0.33605  -0.32771  -0.32609
 Alpha  occ. eigenvalues --   -0.31557  -0.30195  -0.29388  -0.27150  -0.24651
 Alpha  occ. eigenvalues --   -0.21857
 Alpha virt. eigenvalues --   -0.03678  -0.00745   0.02677   0.06501   0.07901
 Alpha virt. eigenvalues --    0.10236   0.11090   0.11244   0.11529   0.11767
 Alpha virt. eigenvalues --    0.11833   0.12226   0.12600   0.12977   0.13302

 Mulliken charges:
               1
     1  O   -0.549435
     2  O   -0.566791
     3  C   -0.029439
     4  C   -0.020384
     5  C   -0.210438
     6  C   -0.168495
     7  C    0.153771
     8  C    0.175607
     9  C    0.085092
    10  C    0.049101
    11  C   -0.165613
    12  C   -0.237382
    13  C   -0.015274
    14  C    0.077461
    15  C   -0.286119
    16  C   -0.285919
    17  C   -0.291874
    18  C   -0.280522
    19  C   -0.126878
    20  C   -0.149340
    21  C   -0.353869
    22  C   -0.323176
    23  C   -0.084685
    24  C   -0.064686
    25  C    0.044935
    26  C    0.067013
    27  C   -0.337423
    28  C   -0.341448
    29  C   -0.096727
    30  C   -0.136489
    31  C   -0.081566
    32  C   -0.085058
    33  C   -0.116936
    34  C   -0.105227
    35  C    0.132153
    36  C    0.085594
    37  C   -0.368171
    38  C   -0.357981
    39  C   -0.140505
    40  C   -0.113131
    41  C    0.003738
    42  C   -0.083916
    43  H    0.097856
    44  H    0.081697
    45  H    0.063672
    46  H    0.089276
    47  H    0.067210
    48  H    0.093248
    49  H    0.131532
    50  H    0.117256
    51  H    0.108347
    52  H    0.109111
    53  H    0.094488
    54  H    0.099485
    55  H    0.101065
    56  H    0.088764
    57  H    0.095684
    58  H    0.085062
    59  H    0.096203
    60  H    0.100688
    61  H    0.101350
    62  H    0.065302
    63  H    0.103706
    64  H    0.100617
    65  H    0.098947
    66  H    0.063351
    67  H    0.121459
    68  H    0.081523
    69  H    0.116430
    70  H    0.071115
    71  H    0.114338
    72  H    0.087575
    73  H    0.296690
    74  H    0.306570
    75  H    0.098072
    76  H    0.077235
    77  H    0.075779
    78  H    0.081166
    79  H    0.142369
    80  H    0.133905
    81  H    0.123246
    82  H    0.108164
    83  H    0.070063
    84  H    0.096590
    85  H    0.072769
    86  H    0.074995
    87  H    0.087849
    88  H    0.077154
    89  H    0.137579
    90  H    0.087003
    91  H    0.116372
    92  H    0.126005
    93  H    0.099378
    94  H    0.118596
    95  H    0.052272
    96  H    0.080938
    97  H    0.017913
    98  H    0.095404
 Sum of Mulliken charges =  -0.00000

 Dipole moment (field-independent basis, Debye):
    X=             -0.3636    Y=             -1.1179    Z=              2.0235  Tot=              2.3402
 Quadrupole moment (field-independent basis, Debye-Ang):
   XX=           -316.4567   YY=           -251.4570   ZZ=           -256.8382
   XY=             19.7897   XZ=             -1.3732   YZ=              3.3894

 Normal termination of Gaussian 16 at Tue Jul  2 12:56:01 2019.
