 Gaussian 16, Revision A.03,
 Gaussian 16:  ES64L-G16RevA.03 25-Dec-2016

 -------------------------------------
 # td=(NStates=1) CAM-B3LYP/6-31G(d,p)
 -------------------------------------

 --
 TD
 --
 Symbolic Z-matrix:
 Charge =  0 Multiplicity = 1

                         Standard orientation:
 ---------------------------------------------------------------------
 Center     Atomic      Atomic             Coordinates (Angstroms)
 Number     Number       Type             X           Y           Z
 ---------------------------------------------------------------------
      1          8           0       14.722969   -2.218348   -0.680863
      2          8           0      -14.813460    1.975024    0.662450
      3          6           0       11.525291   -1.026374    1.254203
      4          6           0      -12.358601   -0.889482    0.693111
      5          6           0       12.984036   -1.496285    0.992044
      6          6           0      -13.653003   -0.144611    0.697635
      7          6           0       13.378718   -1.891854   -0.441847
      8          6           0      -13.559356    1.334078    0.604249
      9          6           0       11.110127   -0.184946   -0.026759
     10          6           0      -11.359848   -0.223552   -0.287151
     11          6           0       13.019254   -0.800852   -1.454651
     12          6           0      -12.703844    1.883761   -0.540288
     13          6           0       11.640220   -0.121523   -1.238288
     14          6           0      -11.612645    0.929984   -0.823499
     15          6           0       11.397777   -0.217303    2.546918
     16          6           0       10.613066   -2.312427    1.336999
     17          6           0      -11.795013   -0.799533    2.110148
     18          6           0      -12.622559   -2.315837    0.363609
     19          6           0        9.765795    0.453356    0.276577
     20          6           0      -10.137860   -1.005362   -0.548377
     21          6           0       11.164701    0.585493   -2.388219
     22          6           0      -10.727813    1.494236   -1.960979
     23          6           0        9.390385    1.690590   -0.181657
     24          6           0       -8.898243   -0.508812   -0.309271
     25          6           0        8.053197    2.324838    0.046839
     26          6           0       -7.638357   -1.224741   -0.380251
     27          6           0        8.095481    3.801587    0.413071
     28          6           0       -7.704972   -2.774065   -0.748171
     29          6           0        6.996024    1.556666   -0.124015
     30          6           0       -6.442034   -0.587157   -0.246218
     31          6           0        5.555810    2.015455    0.147862
     32          6           0       -5.133453   -1.154767   -0.361221
     33          6           0        4.508562    1.145266    0.098475
     34          6           0       -4.012354   -0.478411   -0.246167
     35          6           0        3.142466    1.499099    0.300077
     36          6           0       -2.624143   -0.885367   -0.297104
     37          6           0        2.717979    2.909097    0.560568
     38          6           0       -2.442674   -2.261237   -0.751399
     39          6           0        2.110780    0.493911    0.187685
     40          6           0       -1.654424    0.035704   -0.043280
     41          6           0        0.716877    0.728832    0.205347
     42          6           0       -0.214431   -0.228877   -0.125411
     43          1           0       13.466185   -0.940912    1.359902
     44          1           0       13.272590   -2.339286    1.766193
     45          1           0      -14.165935   -0.586638    1.493336
     46          1           0      -14.226777   -0.362383   -0.180414
     47          1           0       12.602640   -2.763077   -0.659953
     48          1           0      -13.042207    1.683991    1.555480
     49          1           0       13.836333   -0.207037   -1.340217
     50          1           0       13.176685   -1.326889   -2.438946
     51          1           0      -13.395302    1.742820   -1.348090
     52          1           0      -12.360918    2.911381   -0.328529
     53          1           0       11.838803   -1.077665    3.376091
     54          1           0       10.419334    0.059788    2.920329
     55          1           0       11.847657    0.705717    2.644479
     56          1           0       10.579125   -2.917398    0.182373
     57          1           0       11.153133   -2.933635    2.072328
     58          1           0        9.581548   -2.119033    1.654721
     59          1           0      -11.803141    0.110048    2.748555
     60          1           0      -10.717814   -1.289601    2.163650
     61          1           0      -12.380358   -1.306919    2.752009
     62          1           0      -13.443743   -2.638968    0.899008
     63          1           0      -12.008823   -3.016352    0.559755
     64          1           0      -12.971323   -2.573644   -0.832090
     65          1           0        9.033621   -0.104878    0.718238
     66          1           0      -10.402464   -2.070469   -0.883473
     67          1           0       10.024587    0.758674   -2.450042
     68          1           0       11.858024    1.462199   -2.488536
     69          1           0       11.426639    0.152676   -3.288940
     70          1           0      -11.364294    2.026596   -2.860365
     71          1           0      -10.022298    0.766907   -2.371006
     72          1           0       -9.984502    2.345803   -1.555409
     73          1           0       14.933251   -3.021876   -0.048669
     74          1           0      -15.478959    1.379385    1.161932
     75          1           0       10.165973    2.379332   -0.536700
     76          1           0       -8.843999    0.601730   -0.208503
     77          1           0        9.040039    4.217372   -0.146597
     78          1           0        7.176630    4.424211    0.094231
     79          1           0        8.344606    4.054853    1.645085
     80          1           0       -8.262521   -3.394692   -0.008934
     81          1           0       -8.449341   -3.138096   -1.622712
     82          1           0       -6.716166   -3.006226   -0.799444
     83          1           0        7.033042    0.465037   -0.382516
     84          1           0       -6.325651    0.492746   -0.306365
     85          1           0        5.395360    3.040140    0.400988
     86          1           0       -4.930553   -2.241017   -0.419365
     87          1           0        4.698295    0.117397   -0.469616
     88          1           0       -4.144447    0.697459    0.003625
     89          1           0        3.310466    3.205167    1.504948
     90          1           0        1.644666    3.089284    0.806359
     91          1           0        3.185349    3.520460   -0.013494
     92          1           0       -2.707235   -2.852703    0.214524
     93          1           0       -3.129551   -2.499728   -1.627242
     94          1           0       -1.469540   -2.576957   -0.973187
     95          1           0        2.567099   -0.549697   -0.115736
     96          1           0       -1.869920    0.922094    0.245223
     97          1           0        0.217267    1.738524    0.457812
     98          1           0       -0.032745   -1.360888   -0.415948
 ---------------------------------------------------------------------

 SCF Done:  E(RCAM-B3LYP) =  -1706.89811176     A.U. after   14 cycles

 Excitation energies and oscillator strengths:

 Excited State   1:      Singlet-A      2.7421 eV  452.15 nm  f=3.6077  <S**2>=0.000
     155 ->158         0.15797
     156 ->157         0.68554
 This state for optimization and/or second-order correction.
 Total Energy, E(TD-HF/TD-DFT) =  -1706.79734167
 Copying the excited state density for this state as the 1-particle RhoCI density.

 The electronic state is 1-A.
 Alpha  occ. eigenvalues --  -19.22948 -19.20832 -10.31038 -10.29534 -10.29090
 Alpha  occ. eigenvalues --  -10.28585 -10.27929 -10.27781 -10.27483 -10.27368
 Alpha  occ. eigenvalues --  -10.27284 -10.27246 -10.27203 -10.27090 -10.27043
 Alpha  occ. eigenvalues --  -10.26855 -10.26808 -10.26460 -10.26453 -10.26404
 Alpha  occ. eigenvalues --  -10.26296 -10.26234 -10.26195 -10.26177 -10.26138
 Alpha  occ. eigenvalues --  -10.26081 -10.25998 -10.25887 -10.25734 -10.25643
 Alpha  occ. eigenvalues --  -10.25313 -10.25305 -10.25026 -10.24919 -10.24770
 Alpha  occ. eigenvalues --  -10.24725 -10.24571 -10.24378 -10.24366 -10.24218
 Alpha  occ. eigenvalues --  -10.23921 -10.23139  -1.09526  -1.08319  -0.94519
 Alpha  occ. eigenvalues --   -0.93039  -0.92433  -0.91247  -0.90144  -0.89650
 Alpha  occ. eigenvalues --   -0.88106  -0.87677  -0.86983  -0.85430  -0.84323
 Alpha  occ. eigenvalues --   -0.83027  -0.81890  -0.80041  -0.79566  -0.78835
 Alpha  occ. eigenvalues --   -0.77439  -0.77409  -0.76454  -0.76176  -0.75888
 Alpha  occ. eigenvalues --   -0.75830  -0.75170  -0.74832  -0.73853  -0.70352
 Alpha  occ. eigenvalues --   -0.68323  -0.67122  -0.65889  -0.65381  -0.65013
 Alpha  occ. eigenvalues --   -0.64082  -0.62944  -0.61434  -0.60368  -0.59858
 Alpha  occ. eigenvalues --   -0.59282  -0.59198  -0.57827  -0.57214  -0.56882
 Alpha  occ. eigenvalues --   -0.56036  -0.55722  -0.54735  -0.53892  -0.53666
 Alpha  occ. eigenvalues --   -0.53064  -0.52532  -0.52368  -0.51990  -0.51031
 Alpha  occ. eigenvalues --   -0.50496  -0.50231  -0.49919  -0.49567  -0.49307
 Alpha  occ. eigenvalues --   -0.49162  -0.48975  -0.48743  -0.48164  -0.47858
 Alpha  occ. eigenvalues --   -0.47719  -0.47248  -0.47012  -0.46489  -0.45936
 Alpha  occ. eigenvalues --   -0.45808  -0.45436  -0.45160  -0.44988  -0.44711
 Alpha  occ. eigenvalues --   -0.44443  -0.44220  -0.44068  -0.43401  -0.43294
 Alpha  occ. eigenvalues --   -0.43208  -0.43059  -0.42982  -0.42795  -0.42659
 Alpha  occ. eigenvalues --   -0.42104  -0.41171  -0.40957  -0.40594  -0.40566
 Alpha  occ. eigenvalues --   -0.40433  -0.40111  -0.39883  -0.39604  -0.39469
 Alpha  occ. eigenvalues --   -0.39398  -0.39260  -0.38481  -0.38266  -0.38246
 Alpha  occ. eigenvalues --   -0.37822  -0.37266  -0.36656  -0.36029  -0.35450
 Alpha  occ. eigenvalues --   -0.35193  -0.34563  -0.33399  -0.32339  -0.31945
 Alpha  occ. eigenvalues --   -0.30459  -0.29923  -0.28589  -0.26487  -0.24458
 Alpha  occ. eigenvalues --   -0.20704
 Alpha virt. eigenvalues --   -0.04285  -0.00048   0.03135   0.06284   0.08708
 Alpha virt. eigenvalues --    0.09806   0.10478   0.11251   0.11652   0.11937
 Alpha virt. eigenvalues --    0.12214   0.12310   0.12577   0.13067   0.13542

 Mulliken charges:
               1
     1  O   -0.554734
     2  O   -0.576701
     3  C   -0.021310
     4  C   -0.008210
     5  C   -0.110240
     6  C   -0.210910
     7  C    0.164172
     8  C    0.186631
     9  C    0.036462
    10  C    0.068270
    11  C   -0.228284
    12  C   -0.210921
    13  C    0.080339
    14  C    0.051928
    15  C   -0.296780
    16  C   -0.274635
    17  C   -0.308727
    18  C   -0.291305
    19  C   -0.107317
    20  C   -0.151689
    21  C   -0.371815
    22  C   -0.352737
    23  C   -0.129684
    24  C   -0.083749
    25  C    0.099142
    26  C    0.095629
    27  C   -0.350439
    28  C   -0.350177
    29  C   -0.118975
    30  C   -0.129397
    31  C   -0.099224
    32  C   -0.082719
    33  C   -0.115502
    34  C   -0.120570
    35  C    0.109273
    36  C    0.122462
    37  C   -0.363928
    38  C   -0.381134
    39  C   -0.136800
    40  C   -0.094278
    41  C   -0.099070
    42  C   -0.075087
    43  H    0.069892
    44  H    0.034881
    45  H    0.086887
    46  H    0.095984
    47  H    0.051277
    48  H    0.055635
    49  H    0.127247
    50  H    0.103042
    51  H    0.122818
    52  H    0.125227
    53  H    0.058025
    54  H    0.115998
    55  H    0.122316
    56  H    0.073246
    57  H    0.104279
    58  H    0.106712
    59  H    0.107121
    60  H    0.095299
    61  H    0.101916
    62  H    0.102264
    63  H    0.113707
    64  H    0.066345
    65  H    0.087022
    66  H    0.088464
    67  H    0.121590
    68  H    0.113097
    69  H    0.115968
    70  H    0.084797
    71  H    0.121470
    72  H    0.084350
    73  H    0.314957
    74  H    0.308208
    75  H    0.084916
    76  H    0.090611
    77  H    0.107231
    78  H    0.113005
    79  H    0.096258
    80  H    0.113242
    81  H    0.103872
    82  H    0.113550
    83  H    0.088615
    84  H    0.089128
    85  H    0.078955
    86  H    0.084338
    87  H    0.082861
    88  H    0.056557
    89  H    0.102442
    90  H    0.116099
    91  H    0.133135
    92  H    0.118503
    93  H    0.123949
    94  H    0.114196
    95  H    0.079653
    96  H    0.056406
    97  H    0.091274
    98  H    0.073904
 Sum of Mulliken charges =  -0.00000

 Dipole moment (field-independent basis, Debye):
    X=              0.7569    Y=             -1.8487    Z=              1.5864  Tot=              2.5510
 Quadrupole moment (field-independent basis, Debye-Ang):
   XX=           -259.5286   YY=           -245.4323   ZZ=           -262.5761
   XY=             26.6460   XZ=              1.2048   YZ=             -0.1752

 Normal termination of Gaussian 16 at Wed Jul 10 11:12:10 2019.
