 Gaussian 16, Revision A.03,
 Gaussian 16:  ES64L-G16RevA.03 25-Dec-2016

 -------------------------------------
 # td=(NStates=1) CAM-B3LYP/6-31G(d,p)
 -------------------------------------

 --
 TD
 --
 Symbolic Z-matrix:
 Charge =  0 Multiplicity = 1

                         Standard orientation:
 ---------------------------------------------------------------------
 Center     Atomic      Atomic             Coordinates (Angstroms)
 Number     Number       Type             X           Y           Z
 ---------------------------------------------------------------------
      1          8           0       14.654707   -2.388712   -0.374784
      2          8           0      -14.634314    2.027527    0.989885
      3          6           0       11.467905   -1.051300    1.363771
      4          6           0      -12.283682   -1.046747    0.846152
      5          6           0       13.063625   -1.342683    1.182881
      6          6           0      -13.616126   -0.180961    0.839239
      7          6           0       13.292810   -1.951086   -0.159618
      8          6           0      -13.462100    1.417209    0.898519
      9          6           0       10.923648   -0.290991    0.017135
     10          6           0      -11.351470   -0.268146   -0.132116
     11          6           0       12.913907   -0.959809   -1.230657
     12          6           0      -12.675870    1.792097   -0.297609
     13          6           0       11.569573   -0.353023   -1.103906
     14          6           0      -11.617874    0.882988   -0.672344
     15          6           0       11.436388   -0.093375    2.529856
     16          6           0       10.608108   -2.311601    1.661365
     17          6           0      -11.604200   -1.086516    2.218159
     18          6           0      -12.580504   -2.409590    0.332458
     19          6           0        9.612235    0.421822    0.258136
     20          6           0      -10.108952   -1.093328   -0.470431
     21          6           0       11.002266    0.090688   -2.370371
     22          6           0      -10.699087    1.453569   -1.807425
     23          6           0        9.336255    1.688028   -0.099402
     24          6           0       -8.882207   -0.605653   -0.405043
     25          6           0        8.096308    2.306073   -0.060750
     26          6           0       -7.593735   -1.296450   -0.576568
     27          6           0        8.112483    3.781407   -0.032006
     28          6           0       -7.732428   -2.798942   -1.050306
     29          6           0        6.887154    1.530020   -0.168398
     30          6           0       -6.430832   -0.636402   -0.375983
     31          6           0        5.566555    2.185370   -0.063193
     32          6           0       -5.121014   -1.057811   -0.673209
     33          6           0        4.490658    1.322081   -0.024291
     34          6           0       -4.002870   -0.369473   -0.226759
     35          6           0        3.048025    1.764770    0.113514
     36          6           0       -2.647494   -0.694501   -0.528552
     37          6           0        2.744933    3.173748    0.507426
     38          6           0       -2.305857   -2.202167   -0.970499
     39          6           0        2.105491    0.742193   -0.024236
     40          6           0       -1.677964    0.174492   -0.365761
     41          6           0        0.598250    0.974261    0.002803
     42          6           0       -0.277699   -0.017740   -0.411584
     43          1           0       13.734047   -0.536911    1.316293
     44          1           0       13.208122   -2.142561    2.000938
     45          1           0      -14.237771   -0.402692    1.741909
     46          1           0      -14.333345   -0.314979   -0.093414
     47          1           0       12.463794   -2.860680   -0.283131
     48          1           0      -12.966102    1.664391    1.693497
     49          1           0       13.729334   -0.294642   -1.370187
     50          1           0       13.025292   -1.668681   -2.129179
     51          1           0      -13.513687    1.631199   -1.214451
     52          1           0      -12.363542    2.760771   -0.107287
     53          1           0       11.948067   -0.702477    3.401062
     54          1           0       10.308680    0.048555    2.858003
     55          1           0       12.045247    0.873779    2.476205
     56          1           0       10.729575   -2.968967    0.906728
     57          1           0       11.015525   -2.817213    2.411678
     58          1           0        9.678150   -2.174066    1.627668
     59          1           0      -11.552840   -0.019484    2.789303
     60          1           0      -10.650615   -1.470119    1.914741
     61          1           0      -12.275804   -1.577693    2.895936
     62          1           0      -13.672254   -2.888821    0.530842
     63          1           0      -11.869102   -3.209328    0.596392
     64          1           0      -12.707839   -2.575996   -0.803940
     65          1           0        8.800314   -0.166537    0.622498
     66          1           0      -10.204576   -2.169629   -0.440033
     67          1           0        9.800116    0.452859   -2.383031
     68          1           0       11.545102    0.963839   -2.743671
     69          1           0       11.185870   -0.659826   -3.121272
     70          1           0      -11.266801    1.616286   -2.611768
     71          1           0      -10.107404    0.746636   -1.980166
     72          1           0      -10.214896    2.347867   -1.689479
     73          1           0       14.641927   -2.987577    0.524070
     74          1           0      -15.150425    1.716978    1.755251
     75          1           0       10.201044    2.176998   -0.683333
     76          1           0       -8.707312    0.399059   -0.103026
     77          1           0        8.904678    4.311331   -0.696115
     78          1           0        7.115880    4.347882    0.071951
     79          1           0        8.569153    4.086406    0.975323
     80          1           0       -8.074981   -3.381349   -0.197876
     81          1           0       -8.051675   -2.885960   -2.045868
     82          1           0       -6.758497   -3.214125   -1.023677
     83          1           0        6.985844    0.533084   -0.529686
     84          1           0       -6.335817    0.308226    0.191030
     85          1           0        5.519941    3.076893    0.046602
     86          1           0       -4.782829   -2.158919   -1.053714
     87          1           0        4.480511    0.154982   -0.238013
     88          1           0       -4.245341    0.653619    0.354373
     89          1           0        3.416368    3.301203    1.383874
     90          1           0        1.904307    3.319455    0.658616
     91          1           0        3.392275    3.854335   -0.051896
     92          1           0       -2.559267   -2.895764   -0.179900
     93          1           0       -2.780426   -2.380691   -1.907566
     94          1           0       -1.182132   -2.421392   -1.072027
     95          1           0        2.310409   -0.142157   -0.459165
     96          1           0       -1.771336    1.208891    0.014033
     97          1           0        0.133305    1.922933    0.140858
     98          1           0        0.152912   -0.994846   -0.429990
 ---------------------------------------------------------------------

 SCF Done:  E(RCAM-B3LYP) =  -1706.86786918     A.U. after   14 cycles

 Excitation energies and oscillator strengths:

 Excited State   1:      Singlet-A      2.7645 eV  448.49 nm  f=3.6406  <S**2>=0.000
     155 ->158         0.20377
     156 ->157         0.67002
 This state for optimization and/or second-order correction.
 Total Energy, E(TD-HF/TD-DFT) =  -1706.76627548
 Copying the excited state density for this state as the 1-particle RhoCI density.

 The electronic state is 1-A.
 Alpha  occ. eigenvalues --  -19.22766 -19.20998 -10.31078 -10.28419 -10.28184
 Alpha  occ. eigenvalues --  -10.27923 -10.27799 -10.27541 -10.27457 -10.27304
 Alpha  occ. eigenvalues --  -10.27279 -10.27265 -10.27111 -10.26991 -10.26828
 Alpha  occ. eigenvalues --  -10.26777 -10.26256 -10.26195 -10.26094 -10.26040
 Alpha  occ. eigenvalues --  -10.26023 -10.25870 -10.25805 -10.25781 -10.25762
 Alpha  occ. eigenvalues --  -10.25648 -10.25641 -10.25619 -10.25433 -10.25431
 Alpha  occ. eigenvalues --  -10.25355 -10.25142 -10.25128 -10.25065 -10.24981
 Alpha  occ. eigenvalues --  -10.24912 -10.24868 -10.24847 -10.24566 -10.24265
 Alpha  occ. eigenvalues --  -10.22056 -10.20566  -1.12299  -1.08102  -0.93418
 Alpha  occ. eigenvalues --   -0.93299  -0.91832  -0.91454  -0.90382  -0.89753
 Alpha  occ. eigenvalues --   -0.87786  -0.87273  -0.86920  -0.85521  -0.84442
 Alpha  occ. eigenvalues --   -0.83415  -0.82223  -0.80832  -0.80026  -0.78988
 Alpha  occ. eigenvalues --   -0.78398  -0.76737  -0.76287  -0.75953  -0.75724
 Alpha  occ. eigenvalues --   -0.75668  -0.75134  -0.74738  -0.73803  -0.70836
 Alpha  occ. eigenvalues --   -0.69118  -0.67651  -0.66138  -0.64252  -0.63639
 Alpha  occ. eigenvalues --   -0.63511  -0.63199  -0.62569  -0.61278  -0.60019
 Alpha  occ. eigenvalues --   -0.59599  -0.59039  -0.58579  -0.58152  -0.56740
 Alpha  occ. eigenvalues --   -0.56213  -0.55525  -0.55431  -0.54244  -0.53849
 Alpha  occ. eigenvalues --   -0.53527  -0.52699  -0.52248  -0.52057  -0.51417
 Alpha  occ. eigenvalues --   -0.51286  -0.50842  -0.50766  -0.49888  -0.49862
 Alpha  occ. eigenvalues --   -0.49301  -0.48969  -0.48911  -0.48329  -0.48065
 Alpha  occ. eigenvalues --   -0.47613  -0.47387  -0.47326  -0.47219  -0.46398
 Alpha  occ. eigenvalues --   -0.46279  -0.46209  -0.45896  -0.45605  -0.45035
 Alpha  occ. eigenvalues --   -0.44691  -0.44518  -0.44091  -0.43780  -0.43527
 Alpha  occ. eigenvalues --   -0.43084  -0.42991  -0.42929  -0.42809  -0.42345
 Alpha  occ. eigenvalues --   -0.41988  -0.41490  -0.41386  -0.41035  -0.40862
 Alpha  occ. eigenvalues --   -0.40732  -0.40438  -0.40117  -0.39885  -0.39505
 Alpha  occ. eigenvalues --   -0.39199  -0.38651  -0.38144  -0.38054  -0.37766
 Alpha  occ. eigenvalues --   -0.37343  -0.37310  -0.36348  -0.35727  -0.35264
 Alpha  occ. eigenvalues --   -0.35119  -0.33714  -0.33151  -0.32199  -0.31980
 Alpha  occ. eigenvalues --   -0.30999  -0.29730  -0.28816  -0.26648  -0.23619
 Alpha  occ. eigenvalues --   -0.20824
 Alpha virt. eigenvalues --   -0.04034  -0.00835   0.03003   0.06518   0.08601
 Alpha virt. eigenvalues --    0.09826   0.10179   0.11450   0.11767   0.12215
 Alpha virt. eigenvalues --    0.12480   0.12726   0.13125   0.13560   0.13937

 Mulliken charges:
               1
     1  O   -0.554745
     2  O   -0.541451
     3  C   -0.025686
     4  C    0.015462
     5  C   -0.190044
     6  C   -0.223641
     7  C    0.155811
     8  C    0.201934
     9  C    0.022609
    10  C    0.062764
    11  C   -0.236507
    12  C   -0.210684
    13  C    0.099127
    14  C    0.034470
    15  C   -0.275946
    16  C   -0.290189
    17  C   -0.285111
    18  C   -0.318784
    19  C   -0.115710
    20  C   -0.171395
    21  C   -0.366870
    22  C   -0.332965
    23  C   -0.106538
    24  C   -0.057470
    25  C    0.102396
    26  C    0.064606
    27  C   -0.386151
    28  C   -0.371424
    29  C   -0.124749
    30  C   -0.128323
    31  C   -0.025943
    32  C   -0.078648
    33  C   -0.118728
    34  C   -0.120438
    35  C    0.100135
    36  C    0.090384
    37  C   -0.314739
    38  C   -0.375756
    39  C   -0.147694
    40  C   -0.113699
    41  C   -0.111166
    42  C   -0.075639
    43  H    0.114872
    44  H    0.064217
    45  H    0.052003
    46  H    0.083533
    47  H    0.047380
    48  H    0.067803
    49  H    0.124128
    50  H    0.104576
    51  H    0.083707
    52  H    0.109869
    53  H    0.072609
    54  H    0.087735
    55  H    0.104750
    56  H    0.108519
    57  H    0.109049
    58  H    0.112947
    59  H    0.080695
    60  H    0.115523
    61  H    0.108102
    62  H    0.084861
    63  H    0.103395
    64  H    0.107175
    65  H    0.086303
    66  H    0.086559
    67  H    0.095619
    68  H    0.111934
    69  H    0.114079
    70  H    0.109251
    71  H    0.115478
    72  H    0.107123
    73  H    0.307890
    74  H    0.308751
    75  H    0.084443
    76  H    0.083240
    77  H    0.121539
    78  H    0.106345
    79  H    0.115376
    80  H    0.126604
    81  H    0.136154
    82  H    0.107251
    83  H    0.096504
    84  H    0.086839
    85  H    0.036041
    86  H    0.078054
    87  H    0.084390
    88  H    0.073562
    89  H    0.122389
    90  H    0.088112
    91  H    0.125196
    92  H    0.128640
    93  H    0.132732
    94  H    0.101910
    95  H    0.085412
    96  H    0.075614
    97  H    0.082025
    98  H    0.078325
 Sum of Mulliken charges =  -0.00000

 Dipole moment (field-independent basis, Debye):
    X=              0.4045    Y=             -0.9061    Z=              2.2638  Tot=              2.4717
 Quadrupole moment (field-independent basis, Debye-Ang):
   XX=           -287.1822   YY=           -242.6517   ZZ=           -261.0807
   XY=             17.9999   XZ=             -3.6210   YZ=              0.9685

 Normal termination of Gaussian 16 at Thu Jul  4 09:04:34 2019.
