 Gaussian 16, Revision A.03,
 Gaussian 16:  ES64L-G16RevA.03 25-Dec-2016

 -------------------------------------
 # td=(NStates=1) CAM-B3LYP/6-31G(d,p)
 -------------------------------------

 --
 TD
 --
 Symbolic Z-matrix:
 Charge =  0 Multiplicity = 1

                         Standard orientation:
 ---------------------------------------------------------------------
 Center     Atomic      Atomic             Coordinates (Angstroms)
 Number     Number       Type             X           Y           Z
 ---------------------------------------------------------------------
      1          8           0       14.554049   -2.234907   -0.240402
      2          8           0      -14.665169    1.983413    1.067363
      3          6           0       11.287520   -1.232860    1.196191
      4          6           0      -12.263442   -0.925781    0.790694
      5          6           0       12.871424   -1.462997    1.181239
      6          6           0      -13.571922   -0.174400    0.973496
      7          6           0       13.234040   -1.929478   -0.228203
      8          6           0      -13.505399    1.215708    1.043732
      9          6           0       10.889211   -0.326067    0.075254
     10          6           0      -11.303160   -0.244955   -0.138798
     11          6           0       13.066598   -0.771220   -1.112169
     12          6           0      -12.685546    1.811870   -0.227671
     13          6           0       11.776909   -0.157000   -0.930090
     14          6           0      -11.467728    0.969289   -0.715510
     15          6           0       11.093874   -0.396845    2.560352
     16          6           0       10.454576   -2.520421    1.404091
     17          6           0      -11.677005   -1.175719    2.199181
     18          6           0      -12.737235   -2.308544    0.303383
     19          6           0        9.592351    0.316919    0.173741
     20          6           0      -10.099546   -0.932903   -0.392748
     21          6           0       11.445011    0.741052   -2.181621
     22          6           0      -10.806295    1.735829   -1.694078
     23          6           0        9.340721    1.726943    0.054548
     24          6           0       -8.778118   -0.502435   -0.345428
     25          6           0        8.033815    2.365594    0.187533
     26          6           0       -7.607309   -1.281842   -0.380748
     27          6           0        8.005260    3.687374    0.662413
     28          6           0       -7.685121   -2.745667   -0.771590
     29          6           0        6.878382    1.578964   -0.149131
     30          6           0       -6.348889   -0.615690   -0.269655
     31          6           0        5.517876    2.078522    0.128457
     32          6           0       -5.000582   -1.149505   -0.742631
     33          6           0        4.496724    1.230934   -0.412183
     34          6           0       -3.897607   -0.355065   -0.561215
     35          6           0        3.124137    1.505376   -0.068625
     36          6           0       -2.578995   -0.771970   -0.801948
     37          6           0        2.784701    2.841282    0.662107
     38          6           0       -2.341721   -2.121316   -1.518967
     39          6           0        2.178611    0.616540   -0.412347
     40          6           0       -1.621163    0.050099   -0.589939
     41          6           0        0.725399    0.835584   -0.408109
     42          6           0       -0.191515   -0.230425   -0.559172
     43          1           0       13.350425   -0.557282    1.260502
     44          1           0       13.391738   -2.181266    1.967290
     45          1           0      -13.998885   -0.642594    1.855483
     46          1           0      -14.201736   -0.533119    0.104921
     47          1           0       12.836965   -2.867183   -0.543221
     48          1           0      -12.803593    1.408940    1.950870
     49          1           0       13.909058   -0.086986   -0.892236
     50          1           0       13.053089   -1.011047   -2.156363
     51          1           0      -13.387691    2.092274   -1.212458
     52          1           0      -12.354572    2.894837    0.012224
     53          1           0       11.399325   -0.780597    3.495784
     54          1           0        9.906359   -0.326173    2.667690
     55          1           0       11.665782    0.574241    2.353338
     56          1           0       10.615183   -3.157509    0.521025
     57          1           0       10.849589   -3.040788    2.215006
     58          1           0        9.407464   -2.242560    1.781869
     59          1           0      -11.612120   -0.248575    2.986600
     60          1           0      -10.806708   -1.859823    2.190600
     61          1           0      -12.546783   -1.770430    2.748011
     62          1           0      -13.213702   -2.676426    1.097626
     63          1           0      -11.708992   -2.970511    0.125125
     64          1           0      -13.408125   -2.096751   -0.792898
     65          1           0        8.749366   -0.324510    0.432218
     66          1           0      -10.211173   -2.045532   -0.522812
     67          1           0       10.610770    1.218087   -2.141846
     68          1           0       11.968923    1.710376   -2.122949
     69          1           0       11.419016    0.298803   -3.136453
     70          1           0      -11.517944    2.027075   -2.348331
     71          1           0      -10.216406    0.829173   -2.132087
     72          1           0      -10.133135    2.512592   -1.540936
     73          1           0       14.672898   -2.779653    0.622576
     74          1           0      -15.152641    1.688613    1.819348
     75          1           0       10.131390    2.561384   -0.033216
     76          1           0       -8.761922    0.586122    0.016905
     77          1           0        8.733974    4.301810   -0.185479
     78          1           0        7.128101    4.424762    0.709273
     79          1           0        8.375018    3.845237    1.700353
     80          1           0       -8.546298   -3.097385   -0.195854
     81          1           0       -7.988933   -2.819803   -1.977858
     82          1           0       -6.695423   -3.370275   -0.551203
     83          1           0        7.051381    0.597358   -0.726606
     84          1           0       -6.466654    0.416965   -0.057335
     85          1           0        5.296794    3.002393    0.808651
     86          1           0       -4.955692   -2.145089   -0.837102
     87          1           0        4.633214    0.346811   -0.919123
     88          1           0       -3.848827    0.732975   -0.250887
     89          1           0        3.787947    2.955458    1.241818
     90          1           0        1.669641    2.827992    1.246785
     91          1           0        2.885650    3.844285   -0.092412
     92          1           0       -2.770672   -3.023459   -0.973198
     93          1           0       -2.768530   -2.049056   -2.546295
     94          1           0       -1.150707   -2.276448   -1.675926
     95          1           0        2.224899   -0.311476   -0.766115
     96          1           0       -1.904890    1.085023   -0.145801
     97          1           0        0.338836    1.988078   -0.318531
     98          1           0        0.185890   -1.316046   -0.655064
 ---------------------------------------------------------------------

 SCF Done:  E(RCAM-B3LYP) =  -1706.87248503     A.U. after   15 cycles

 Excitation energies and oscillator strengths:

 Excited State   1:      Singlet-A      2.5005 eV  495.84 nm  f=3.5712  <S**2>=0.000
     155 ->158         0.20796
     156 ->157         0.66604
 This state for optimization and/or second-order correction.
 Total Energy, E(TD-HF/TD-DFT) =  -1706.78059361
 Copying the excited state density for this state as the 1-particle RhoCI density.

 The electronic state is 1-A.
 Alpha  occ. eigenvalues --  -19.21358 -19.20375 -10.30262 -10.29314 -10.28500
 Alpha  occ. eigenvalues --  -10.28463 -10.28201 -10.27865 -10.27858 -10.27809
 Alpha  occ. eigenvalues --  -10.27693 -10.27680 -10.27541 -10.27481 -10.27399
 Alpha  occ. eigenvalues --  -10.27389 -10.27367 -10.27361 -10.27263 -10.27116
 Alpha  occ. eigenvalues --  -10.27062 -10.26626 -10.26619 -10.26587 -10.26495
 Alpha  occ. eigenvalues --  -10.26446 -10.26277 -10.26165 -10.26099 -10.25934
 Alpha  occ. eigenvalues --  -10.25887 -10.25780 -10.25673 -10.25531 -10.25243
 Alpha  occ. eigenvalues --  -10.25225 -10.25058 -10.24995 -10.24182 -10.24100
 Alpha  occ. eigenvalues --  -10.23191 -10.22782  -1.10979  -1.10926  -0.94554
 Alpha  occ. eigenvalues --   -0.93939  -0.92601  -0.91380  -0.90188  -0.89971
 Alpha  occ. eigenvalues --   -0.88421  -0.86946  -0.86351  -0.84891  -0.84425
 Alpha  occ. eigenvalues --   -0.83218  -0.81295  -0.80345  -0.79829  -0.77045
 Alpha  occ. eigenvalues --   -0.76674  -0.76641  -0.76327  -0.75530  -0.74688
 Alpha  occ. eigenvalues --   -0.74662  -0.74543  -0.74044  -0.73366  -0.70453
 Alpha  occ. eigenvalues --   -0.69137  -0.67435  -0.66314  -0.64951  -0.64764
 Alpha  occ. eigenvalues --   -0.64026  -0.62762  -0.61196  -0.60444  -0.59841
 Alpha  occ. eigenvalues --   -0.59287  -0.58873  -0.58611  -0.57359  -0.56251
 Alpha  occ. eigenvalues --   -0.55752  -0.55288  -0.54895  -0.53644  -0.53524
 Alpha  occ. eigenvalues --   -0.53100  -0.52680  -0.52376  -0.51799  -0.50768
 Alpha  occ. eigenvalues --   -0.50394  -0.50237  -0.49941  -0.49653  -0.49639
 Alpha  occ. eigenvalues --   -0.49321  -0.49130  -0.48722  -0.48558  -0.48083
 Alpha  occ. eigenvalues --   -0.47222  -0.46923  -0.46827  -0.46745  -0.45914
 Alpha  occ. eigenvalues --   -0.45784  -0.45555  -0.45214  -0.45018  -0.44866
 Alpha  occ. eigenvalues --   -0.44408  -0.44200  -0.43915  -0.43744  -0.43436
 Alpha  occ. eigenvalues --   -0.43035  -0.42659  -0.42337  -0.42174  -0.42022
 Alpha  occ. eigenvalues --   -0.41900  -0.41378  -0.40928  -0.40748  -0.40529
 Alpha  occ. eigenvalues --   -0.40086  -0.39933  -0.39855  -0.39531  -0.39342
 Alpha  occ. eigenvalues --   -0.38893  -0.38358  -0.38071  -0.38001  -0.37933
 Alpha  occ. eigenvalues --   -0.37399  -0.37108  -0.36697  -0.36259  -0.35221
 Alpha  occ. eigenvalues --   -0.34202  -0.33787  -0.33361  -0.32142  -0.31930
 Alpha  occ. eigenvalues --   -0.30762  -0.29560  -0.28255  -0.26170  -0.22720
 Alpha  occ. eigenvalues --   -0.20353
 Alpha virt. eigenvalues --   -0.04790  -0.01554   0.01947   0.05322   0.07554
 Alpha virt. eigenvalues --    0.09220   0.09796   0.10682   0.10814   0.11134
 Alpha virt. eigenvalues --    0.11463   0.12441   0.12750   0.12881   0.13254

 Mulliken charges:
               1
     1  O   -0.564425
     2  O   -0.534481
     3  C   -0.051819
     4  C   -0.060746
     5  C   -0.202535
     6  C   -0.159451
     7  C    0.186217
     8  C    0.180896
     9  C    0.106752
    10  C    0.122282
    11  C   -0.209807
    12  C   -0.236294
    13  C    0.022974
    14  C    0.065514
    15  C   -0.292340
    16  C   -0.300619
    17  C   -0.287433
    18  C   -0.250548
    19  C   -0.138438
    20  C   -0.180104
    21  C   -0.360472
    22  C   -0.359460
    23  C   -0.097451
    24  C   -0.085164
    25  C    0.109263
    26  C    0.090277
    27  C   -0.380775
    28  C   -0.348760
    29  C   -0.130462
    30  C   -0.127541
    31  C   -0.115131
    32  C   -0.103968
    33  C   -0.080518
    34  C   -0.089392
    35  C    0.107439
    36  C    0.160606
    37  C   -0.340775
    38  C   -0.364372
    39  C   -0.112623
    40  C   -0.143173
    41  C   -0.098582
    42  C   -0.117493
    43  H    0.115269
    44  H    0.057499
    45  H    0.075123
    46  H    0.087325
    47  H    0.076901
    48  H    0.051185
    49  H    0.128876
    50  H    0.115103
    51  H    0.076407
    52  H    0.098917
    53  H    0.104625
    54  H    0.075581
    55  H    0.093924
    56  H    0.103871
    57  H    0.113890
    58  H    0.096639
    59  H    0.095750
    60  H    0.113991
    61  H    0.074905
    62  H    0.115551
    63  H    0.071183
    64  H    0.082351
    65  H    0.101098
    66  H    0.062621
    67  H    0.114244
    68  H    0.101363
    69  H    0.113067
    70  H    0.120712
    71  H    0.098935
    72  H    0.129955
    73  H    0.294335
    74  H    0.297288
    75  H    0.078639
    76  H    0.084649
    77  H    0.085267
    78  H    0.115870
    79  H    0.129500
    80  H    0.117375
    81  H    0.102864
    82  H    0.100468
    83  H    0.096239
    84  H    0.079300
    85  H    0.108270
    86  H    0.082972
    87  H    0.091963
    88  H    0.084149
    89  H    0.105716
    90  H    0.105274
    91  H    0.094271
    92  H    0.111902
    93  H    0.132223
    94  H    0.085108
    95  H    0.070152
    96  H    0.077114
    97  H    0.078613
    98  H    0.096547
 Sum of Mulliken charges =  -0.00000

 Dipole moment (field-independent basis, Debye):
    X=              1.0911    Y=             -1.0712    Z=              2.3971  Tot=              2.8433
 Quadrupole moment (field-independent basis, Debye-Ang):
   XX=           -283.3928   YY=           -247.9423   ZZ=           -259.3776
   XY=             16.7156   XZ=             -1.5006   YZ=             -0.2638

 Normal termination of Gaussian 16 at Tue Jul  2 11:17:00 2019.
