 Gaussian 16, Revision A.03,
 Gaussian 16:  ES64L-G16RevA.03 25-Dec-2016

 -------------------------------------
 # td=(NStates=1) CAM-B3LYP/6-31G(d,p)
 -------------------------------------

 --
 TD
 --
 Symbolic Z-matrix:
 Charge =  0 Multiplicity = 1

                         Standard orientation:
 ---------------------------------------------------------------------
 Center     Atomic      Atomic             Coordinates (Angstroms)
 Number     Number       Type             X           Y           Z
 ---------------------------------------------------------------------
      1          8           0       14.639682   -2.348743   -0.562192
      2          8           0      -14.918657    1.857673    0.604121
      3          6           0       11.513540   -1.190066    1.162928
      4          6           0      -12.315267   -0.997241    0.815719
      5          6           0       13.003950   -1.413404    0.972841
      6          6           0      -13.760891   -0.398420    0.619831
      7          6           0       13.330850   -2.054080   -0.343442
      8          6           0      -13.705599    1.220108    0.571804
      9          6           0       11.009168   -0.349108   -0.014565
     10          6           0      -11.361674   -0.365723   -0.176319
     11          6           0       12.991190   -0.936934   -1.359335
     12          6           0      -12.900580    1.574909   -0.683147
     13          6           0       11.719644   -0.255327   -1.171940
     14          6           0      -11.561254    0.867442   -0.792444
     15          6           0       11.297237   -0.473434    2.599843
     16          6           0       10.569460   -2.505002    1.178234
     17          6           0      -11.908018   -0.902816    2.232769
     18          6           0      -12.620146   -2.536797    0.527744
     19          6           0        9.628549    0.295536    0.184062
     20          6           0      -10.114036   -1.108248   -0.380668
     21          6           0       11.237166    0.538340   -2.404590
     22          6           0      -10.633097    1.451469   -1.753014
     23          6           0        9.340616    1.558802   -0.145123
     24          6           0       -8.884644   -0.560384   -0.208205
     25          6           0        8.043303    2.201033    0.170914
     26          6           0       -7.563216   -1.241923   -0.470982
     27          6           0        8.216312    3.631933    0.729653
     28          6           0       -7.529394   -2.606492   -0.973620
     29          6           0        6.900145    1.610966   -0.075475
     30          6           0       -6.414228   -0.590504   -0.221999
     31          6           0        5.550967    2.096694    0.201195
     32          6           0       -5.081334   -1.092221   -0.403416
     33          6           0        4.496796    1.367547   -0.048846
     34          6           0       -4.029924   -0.248895   -0.325226
     35          6           0        3.094040    1.808396    0.197157
     36          6           0       -2.518279   -0.560822   -0.466048
     37          6           0        2.982741    3.188201    0.673855
     38          6           0       -2.291413   -2.064322   -0.556817
     39          6           0        2.034661    0.967050   -0.170456
     40          6           0       -1.599423    0.401429   -0.236873
     41          6           0        0.645031    1.186503   -0.041558
     42          6           0       -0.191040    0.120095   -0.319539
     43          1           0       13.639677   -0.598036    1.170096
     44          1           0       13.164399   -2.019286    1.849507
     45          1           0      -14.454472   -0.484161    1.498206
     46          1           0      -14.240877   -0.635725   -0.326250
     47          1           0       12.723157   -2.993335   -0.516485
     48          1           0      -13.099529    1.540486    1.249447
     49          1           0       13.879363   -0.214253   -1.290359
     50          1           0       13.022769   -1.309599   -2.355349
     51          1           0      -13.486106    1.424418   -1.687533
     52          1           0      -12.450538    2.536186   -0.536178
     53          1           0       11.841861   -1.056082    3.361938
     54          1           0       10.252889   -0.341477    2.763803
     55          1           0       11.771035    0.391252    2.385766
     56          1           0       10.674051   -3.061498    0.276637
     57          1           0       10.919255   -3.302281    1.858577
     58          1           0        9.599358   -2.124169    1.459792
     59          1           0      -11.695714    0.099049    2.643528
     60          1           0      -10.898930   -1.405651    2.235187
     61          1           0      -12.444430   -1.409587    2.957646
     62          1           0      -13.472846   -2.834508    1.186085
     63          1           0      -11.667863   -3.076800    0.765927
     64          1           0      -12.786597   -2.684044   -0.538105
     65          1           0        8.801962   -0.132182    0.694093
     66          1           0      -10.161198   -2.182376   -0.486088
     67          1           0       10.084911    0.670481   -2.350292
     68          1           0       11.905862    1.273734   -2.569606
     69          1           0       11.079578   -0.089964   -3.174940
     70          1           0      -11.343792    1.866448   -2.573860
     71          1           0      -10.033550    0.668313   -2.094908
     72          1           0      -10.146579    2.277395   -1.349190
     73          1           0       15.099696   -2.971083    0.078564
     74          1           0      -15.684352    1.500772    1.126108
     75          1           0       10.159182    2.193994   -0.444140
     76          1           0       -8.744208    0.537927   -0.014273
     77          1           0        8.827995    4.225341    0.151864
     78          1           0        7.272227    4.047613    0.963354
     79          1           0        8.688656    3.637925    1.819348
     80          1           0       -7.938457   -3.542148   -0.189154
     81          1           0       -8.106562   -2.767831   -2.008057
     82          1           0       -6.516614   -2.984233   -1.489968
     83          1           0        7.040652    0.699352   -0.536352
     84          1           0       -6.495319    0.340902    0.310341
     85          1           0        5.392900    3.012600    0.526759
     86          1           0       -5.015388   -2.122509   -0.605010
     87          1           0        4.757544    0.322730   -0.439347
     88          1           0       -4.268775    0.782065   -0.067650
     89          1           0        3.319921    3.442029    1.519327
     90          1           0        1.758977    3.407219    0.798102
     91          1           0        3.422431    3.886206   -0.161761
     92          1           0       -2.694560   -2.574736    0.277788
     93          1           0       -2.809986   -2.265208   -1.530962
     94          1           0       -1.117461   -2.368846   -0.749460
     95          1           0        2.515252    0.037498   -0.484808
     96          1           0       -1.921232    1.331150    0.126579
     97          1           0        0.333935    2.243363    0.285459
     98          1           0        0.246782   -0.722032   -0.674600
 ---------------------------------------------------------------------

 SCF Done:  E(RCAM-B3LYP) =  -1707.03996705     A.U. after   13 cycles

 Excitation energies and oscillator strengths:

 Excited State   1:      Singlet-A      3.0089 eV  412.06 nm  f=3.5325  <S**2>=0.000
     155 ->158         0.16625
     156 ->157         0.67958
 This state for optimization and/or second-order correction.
 Total Energy, E(TD-HF/TD-DFT) =  -1706.92939350
 Copying the excited state density for this state as the 1-particle RhoCI density.

 The electronic state is 1-A.
 Alpha  occ. eigenvalues --  -19.21183 -19.20637 -10.30271 -10.28483 -10.28345
 Alpha  occ. eigenvalues --  -10.27556 -10.27280 -10.27254 -10.27221 -10.27067
 Alpha  occ. eigenvalues --  -10.26900 -10.26773 -10.26613 -10.26495 -10.26286
 Alpha  occ. eigenvalues --  -10.26195 -10.26041 -10.25963 -10.25918 -10.25823
 Alpha  occ. eigenvalues --  -10.25720 -10.25660 -10.25642 -10.25582 -10.25581
 Alpha  occ. eigenvalues --  -10.25548 -10.25399 -10.25274 -10.25133 -10.25032
 Alpha  occ. eigenvalues --  -10.24868 -10.24835 -10.24823 -10.24445 -10.24241
 Alpha  occ. eigenvalues --  -10.24240 -10.24205 -10.23935 -10.23679 -10.23546
 Alpha  occ. eigenvalues --  -10.23522 -10.23298  -1.10324  -1.09150  -0.93115
 Alpha  occ. eigenvalues --   -0.92932  -0.92016  -0.91435  -0.90567  -0.89499
 Alpha  occ. eigenvalues --   -0.87570  -0.87123  -0.86308  -0.85410  -0.84343
 Alpha  occ. eigenvalues --   -0.82911  -0.81908  -0.80215  -0.79936  -0.78349
 Alpha  occ. eigenvalues --   -0.76670  -0.76385  -0.76060  -0.75740  -0.75349
 Alpha  occ. eigenvalues --   -0.75244  -0.74855  -0.74359  -0.74104  -0.70052
 Alpha  occ. eigenvalues --   -0.68852  -0.68030  -0.66226  -0.65038  -0.63600
 Alpha  occ. eigenvalues --   -0.63401  -0.62869  -0.62674  -0.61230  -0.60143
 Alpha  occ. eigenvalues --   -0.59106  -0.59021  -0.58543  -0.57755  -0.56166
 Alpha  occ. eigenvalues --   -0.56002  -0.55469  -0.54766  -0.54029  -0.53736
 Alpha  occ. eigenvalues --   -0.53139  -0.53044  -0.52562  -0.51895  -0.51561
 Alpha  occ. eigenvalues --   -0.51294  -0.51108  -0.49908  -0.49834  -0.49746
 Alpha  occ. eigenvalues --   -0.49339  -0.48969  -0.48554  -0.48037  -0.47938
 Alpha  occ. eigenvalues --   -0.47531  -0.47266  -0.47179  -0.46468  -0.46280
 Alpha  occ. eigenvalues --   -0.45960  -0.45736  -0.45503  -0.44973  -0.44829
 Alpha  occ. eigenvalues --   -0.44422  -0.44137  -0.43991  -0.43643  -0.43367
 Alpha  occ. eigenvalues --   -0.43322  -0.43096  -0.43069  -0.42598  -0.42312
 Alpha  occ. eigenvalues --   -0.41707  -0.41668  -0.41176  -0.41075  -0.40721
 Alpha  occ. eigenvalues --   -0.40098  -0.39948  -0.39766  -0.39631  -0.39017
 Alpha  occ. eigenvalues --   -0.38766  -0.38587  -0.38239  -0.37954  -0.37744
 Alpha  occ. eigenvalues --   -0.37560  -0.37441  -0.36539  -0.36467  -0.34805
 Alpha  occ. eigenvalues --   -0.34439  -0.33305  -0.32795  -0.32211  -0.31727
 Alpha  occ. eigenvalues --   -0.30773  -0.29365  -0.27925  -0.25828  -0.24190
 Alpha  occ. eigenvalues --   -0.21168
 Alpha virt. eigenvalues --   -0.03350   0.00713   0.03429   0.06106   0.08004
 Alpha virt. eigenvalues --    0.10010   0.11615   0.11896   0.11992   0.12241
 Alpha virt. eigenvalues --    0.12382   0.12819   0.13542   0.13896   0.14364

 Mulliken charges:
               1
     1  O   -0.567853
     2  O   -0.580752
     3  C   -0.051360
     4  C   -0.019731
     5  C   -0.195379
     6  C   -0.204168
     7  C    0.199629
     8  C    0.217723
     9  C    0.067442
    10  C    0.068055
    11  C   -0.223255
    12  C   -0.219498
    13  C    0.037639
    14  C    0.027335
    15  C   -0.300013
    16  C   -0.303924
    17  C   -0.295395
    18  C   -0.302725
    19  C   -0.126239
    20  C   -0.164424
    21  C   -0.354891
    22  C   -0.353747
    23  C   -0.105877
    24  C   -0.088930
    25  C    0.064377
    26  C    0.142342
    27  C   -0.364995
    28  C   -0.379669
    29  C   -0.111116
    30  C   -0.132946
    31  C   -0.052225
    32  C   -0.069530
    33  C   -0.109900
    34  C   -0.120011
    35  C    0.078120
    36  C    0.072037
    37  C   -0.355955
    38  C   -0.353268
    39  C   -0.114255
    40  C   -0.108655
    41  C   -0.082207
    42  C   -0.069348
    43  H    0.103074
    44  H    0.072557
    45  H    0.064073
    46  H    0.098872
    47  H    0.063270
    48  H    0.075414
    49  H    0.108785
    50  H    0.108102
    51  H    0.102274
    52  H    0.104442
    53  H    0.097811
    54  H    0.104371
    55  H    0.117025
    56  H    0.106829
    57  H    0.088026
    58  H    0.110464
    59  H    0.100943
    60  H    0.096469
    61  H    0.109744
    62  H    0.105634
    63  H    0.088066
    64  H    0.107585
    65  H    0.086490
    66  H    0.092553
    67  H    0.110135
    68  H    0.123869
    69  H    0.118140
    70  H    0.092813
    71  H    0.133368
    72  H    0.125361
    73  H    0.309065
    74  H    0.312733
    75  H    0.087728
    76  H    0.083758
    77  H    0.128426
    78  H    0.112720
    79  H    0.096987
    80  H    0.090677
    81  H    0.100384
    82  H    0.099974
    83  H    0.072720
    84  H    0.080884
    85  H    0.065715
    86  H    0.086522
    87  H    0.071873
    88  H    0.076715
    89  H    0.139043
    90  H    0.064259
    91  H    0.114936
    92  H    0.141707
    93  H    0.121590
    94  H    0.081874
    95  H    0.078034
    96  H    0.088446
    97  H    0.092168
    98  H    0.092042
 Sum of Mulliken charges =  -0.00000

 Dipole moment (field-independent basis, Debye):
    X=              0.5599    Y=             -1.3981    Z=              1.8729  Tot=              2.4033
 Quadrupole moment (field-independent basis, Debye-Ang):
   XX=           -245.0801   YY=           -247.5079   ZZ=           -260.1925
   XY=              7.3775   XZ=              1.9164   YZ=              2.0670

 Normal termination of Gaussian 16 at Thu Jul  4 13:46:30 2019.
