 Gaussian 16, Revision A.03,
 Gaussian 16:  ES64L-G16RevA.03 25-Dec-2016

 -------------------------------------
 # td=(NStates=1) CAM-B3LYP/6-31G(d,p)
 -------------------------------------

 --
 TD
 --
 Symbolic Z-matrix:
 Charge =  0 Multiplicity = 1

                         Standard orientation:
 ---------------------------------------------------------------------
 Center     Atomic      Atomic             Coordinates (Angstroms)
 Number     Number       Type             X           Y           Z
 ---------------------------------------------------------------------
      1          8           0       14.697144   -2.380580   -0.268500
      2          8           0      -14.868602    1.860339    0.759841
      3          6           0       11.465235   -0.974390    1.161376
      4          6           0      -12.230648   -0.931180    0.795460
      5          6           0       12.956750   -1.285518    1.082905
      6          6           0      -13.568590   -0.257438    0.814665
      7          6           0       13.247249   -2.142060   -0.164197
      8          6           0      -13.480676    1.257259    0.687166
      9          6           0       10.935789   -0.361249   -0.036719
     10          6           0      -11.288114   -0.399389   -0.234757
     11          6           0       12.858112   -1.255479   -1.413396
     12          6           0      -12.903801    1.536471   -0.686311
     13          6           0       11.554578   -0.491730   -1.215150
     14          6           0      -11.628051    0.740083   -0.889108
     15          6           0       11.254284   -0.130045    2.460708
     16          6           0       10.732045   -2.312655    1.508598
     17          6           0      -11.562382   -0.907451    2.253877
     18          6           0      -12.493459   -2.522381    0.553103
     19          6           0        9.659662    0.401109    0.105442
     20          6           0      -10.113533   -1.077129   -0.434677
     21          6           0       11.064109    0.189801   -2.498478
     22          6           0      -10.884010    1.333568   -2.052935
     23          6           0        9.317541    1.646345   -0.296054
     24          6           0       -8.909847   -0.592926   -0.103447
     25          6           0        8.071050    2.303339    0.113582
     26          6           0       -7.626406   -1.197621   -0.335412
     27          6           0        8.204792    3.691180    0.540746
     28          6           0       -7.681406   -2.689808   -0.524241
     29          6           0        6.884307    1.620908   -0.109698
     30          6           0       -6.434730   -0.502193   -0.273312
     31          6           0        5.533120    2.107753    0.287116
     32          6           0       -5.035668   -0.977157   -0.455809
     33          6           0        4.523069    1.366986   -0.045512
     34          6           0       -3.905942   -0.246925   -0.426767
     35          6           0        3.092270    1.848700    0.036698
     36          6           0       -2.561572   -0.608546   -0.542504
     37          6           0        2.791343    3.174919    0.770473
     38          6           0       -2.428405   -2.074907   -0.885320
     39          6           0        2.113923    0.935012   -0.165251
     40          6           0       -1.563242    0.268390   -0.312055
     41          6           0        0.753119    1.126053   -0.148000
     42          6           0       -0.194897    0.124727   -0.462938
     43          1           0       13.582746   -0.362109    0.923500
     44          1           0       13.150205   -2.023485    1.976060
     45          1           0      -14.196470   -0.508981    1.668159
     46          1           0      -14.145871   -0.697520    0.032893
     47          1           0       12.731676   -2.950626   -0.378888
     48          1           0      -12.900916    1.645032    1.666888
     49          1           0       13.656539   -0.390029   -1.628846
     50          1           0       12.833039   -1.865971   -2.338205
     51          1           0      -13.595021    1.262138   -1.483032
     52          1           0      -12.730799    2.590087   -0.768001
     53          1           0       11.656715   -0.844610    3.196858
     54          1           0       10.263255    0.098989    2.736471
     55          1           0       11.742126    0.721298    2.442900
     56          1           0       10.767857   -2.831649    0.629257
     57          1           0       10.910263   -3.030581    2.316627
     58          1           0        9.560036   -2.122929    1.685954
     59          1           0      -11.334206    0.193137    2.667008
     60          1           0      -10.501431   -1.374414    2.199847
     61          1           0      -12.017896   -1.401231    3.028125
     62          1           0      -13.218447   -3.185511    1.202989
     63          1           0      -11.549161   -3.051622    0.552096
     64          1           0      -13.109078   -2.514588   -0.424144
     65          1           0        8.899217   -0.242862    0.867119
     66          1           0      -10.107073   -2.038602   -0.696493
     67          1           0        9.919292    0.156657   -2.636469
     68          1           0       11.628306    1.252892   -2.630898
     69          1           0       11.601819   -0.335337   -3.350860
     70          1           0      -11.471906    1.623579   -2.795894
     71          1           0      -10.070652    0.717975   -2.414440
     72          1           0      -10.354713    2.361625   -1.778737
     73          1           0       14.839197   -3.114849    0.211389
     74          1           0      -15.206838    1.678794    1.590288
     75          1           0       10.044769    2.561739   -0.646068
     76          1           0       -8.977795    0.571515    0.087895
     77          1           0        9.121121    4.303505   -0.151700
     78          1           0        7.316051    4.125464    0.569905
     79          1           0        8.725048    3.753709    1.631621
     80          1           0       -8.149631   -3.371596    0.159564
     81          1           0       -8.198149   -2.937119   -1.480232
     82          1           0       -6.558317   -2.997949   -0.814359
     83          1           0        6.895776    0.556289   -0.646736
     84          1           0       -6.634910    0.506420   -0.214384
     85          1           0        5.317964    3.133429    0.727724
     86          1           0       -5.006663   -2.012093   -0.744170
     87          1           0        4.705171    0.353900   -0.461436
     88          1           0       -4.141235    0.766460   -0.102587
     89          1           0        3.255261    3.283381    1.709929
     90          1           0        1.766988    3.322415    0.950698
     91          1           0        3.078341    3.891625    0.173618
     92          1           0       -2.736940   -2.831674   -0.003372
     93          1           0       -2.619709   -2.459399   -1.849930
     94          1           0       -1.300604   -2.436024   -0.830725
     95          1           0        2.569724   -0.070881   -0.534028
     96          1           0       -2.017395    1.195165   -0.004115
     97          1           0        0.362077    1.981060    0.363070
     98          1           0        0.221111   -0.848658   -0.849620
 ---------------------------------------------------------------------

 SCF Done:  E(RCAM-B3LYP) =  -1706.99051552     A.U. after   14 cycles

 Excitation energies and oscillator strengths:

 Excited State   1:      Singlet-A      2.6756 eV  463.38 nm  f=3.6969  <S**2>=0.000
     155 ->158        -0.15074
     156 ->157         0.68757
 This state for optimization and/or second-order correction.
 Total Energy, E(TD-HF/TD-DFT) =  -1706.89218748
 Copying the excited state density for this state as the 1-particle RhoCI density.

 The electronic state is 1-A.
 Alpha  occ. eigenvalues --  -19.20329 -19.19765 -10.31497 -10.29947 -10.28150
 Alpha  occ. eigenvalues --  -10.27845 -10.27623 -10.27521 -10.27460 -10.27286
 Alpha  occ. eigenvalues --  -10.27118 -10.27115 -10.27085 -10.27023 -10.26867
 Alpha  occ. eigenvalues --  -10.26838 -10.26771 -10.26612 -10.26578 -10.26530
 Alpha  occ. eigenvalues --  -10.26492 -10.26333 -10.26317 -10.26301 -10.26272
 Alpha  occ. eigenvalues --  -10.26266 -10.26092 -10.26081 -10.26074 -10.25968
 Alpha  occ. eigenvalues --  -10.25949 -10.25545 -10.25417 -10.25298 -10.25260
 Alpha  occ. eigenvalues --  -10.25050 -10.24864 -10.24427 -10.24266 -10.24144
 Alpha  occ. eigenvalues --  -10.23991 -10.22482  -1.09646  -1.07214  -0.94661
 Alpha  occ. eigenvalues --   -0.94267  -0.92527  -0.91664  -0.90668  -0.90132
 Alpha  occ. eigenvalues --   -0.87606  -0.86574  -0.86558  -0.86336  -0.84835
 Alpha  occ. eigenvalues --   -0.83919  -0.82182  -0.80247  -0.79853  -0.78926
 Alpha  occ. eigenvalues --   -0.76755  -0.76301  -0.76231  -0.76131  -0.75937
 Alpha  occ. eigenvalues --   -0.75515  -0.74578  -0.74377  -0.74059  -0.71150
 Alpha  occ. eigenvalues --   -0.69111  -0.68070  -0.65819  -0.65193  -0.64627
 Alpha  occ. eigenvalues --   -0.64342  -0.62853  -0.61395  -0.60795  -0.60269
 Alpha  occ. eigenvalues --   -0.59744  -0.59218  -0.58371  -0.57415  -0.56216
 Alpha  occ. eigenvalues --   -0.55713  -0.55015  -0.54536  -0.54389  -0.53920
 Alpha  occ. eigenvalues --   -0.53008  -0.52680  -0.51943  -0.51348  -0.50581
 Alpha  occ. eigenvalues --   -0.50424  -0.50029  -0.49887  -0.49867  -0.49686
 Alpha  occ. eigenvalues --   -0.48996  -0.48847  -0.48557  -0.48394  -0.47831
 Alpha  occ. eigenvalues --   -0.47565  -0.47491  -0.46692  -0.46663  -0.46419
 Alpha  occ. eigenvalues --   -0.46146  -0.45371  -0.45297  -0.45231  -0.44714
 Alpha  occ. eigenvalues --   -0.44309  -0.44259  -0.44088  -0.43420  -0.43287
 Alpha  occ. eigenvalues --   -0.42605  -0.42537  -0.42263  -0.42097  -0.41812
 Alpha  occ. eigenvalues --   -0.41685  -0.41615  -0.41282  -0.41104  -0.40761
 Alpha  occ. eigenvalues --   -0.40318  -0.40277  -0.40023  -0.39895  -0.39606
 Alpha  occ. eigenvalues --   -0.39411  -0.38617  -0.38489  -0.38173  -0.37829
 Alpha  occ. eigenvalues --   -0.37670  -0.37386  -0.36893  -0.36445  -0.36107
 Alpha  occ. eigenvalues --   -0.35637  -0.35209  -0.33952  -0.32648  -0.32463
 Alpha  occ. eigenvalues --   -0.31699  -0.29298  -0.28270  -0.26677  -0.24577
 Alpha  occ. eigenvalues --   -0.20796
 Alpha virt. eigenvalues --   -0.04871   0.00156   0.02485   0.05895   0.07058
 Alpha virt. eigenvalues --    0.09010   0.10485   0.10875   0.12330   0.12476
 Alpha virt. eigenvalues --    0.12711   0.13130   0.13293   0.13733   0.13962

 Mulliken charges:
               1
     1  O   -0.549212
     2  O   -0.574619
     3  C   -0.064029
     4  C   -0.018156
     5  C   -0.161626
     6  C   -0.181104
     7  C    0.139142
     8  C    0.147078
     9  C    0.113694
    10  C    0.106748
    11  C   -0.235679
    12  C   -0.212049
    13  C    0.043425
    14  C    0.033808
    15  C   -0.273632
    16  C   -0.312900
    17  C   -0.304111
    18  C   -0.317474
    19  C   -0.130990
    20  C   -0.134749
    21  C   -0.346844
    22  C   -0.356946
    23  C   -0.106157
    24  C   -0.087213
    25  C    0.091261
    26  C    0.114333
    27  C   -0.342002
    28  C   -0.383618
    29  C   -0.128931
    30  C   -0.117749
    31  C   -0.085019
    32  C   -0.087161
    33  C   -0.091721
    34  C   -0.116244
    35  C    0.063486
    36  C    0.148216
    37  C   -0.374325
    38  C   -0.393316
    39  C   -0.104528
    40  C   -0.114294
    41  C   -0.085990
    42  C   -0.092962
    43  H    0.115017
    44  H    0.076591
    45  H    0.080335
    46  H    0.101213
    47  H    0.101935
    48  H    0.077705
    49  H    0.105627
    50  H    0.106067
    51  H    0.133439
    52  H    0.117102
    53  H    0.088727
    54  H    0.101741
    55  H    0.103535
    56  H    0.107273
    57  H    0.109381
    58  H    0.076234
    59  H    0.072699
    60  H    0.093598
    61  H    0.113781
    62  H    0.093514
    63  H    0.107323
    64  H    0.091432
    65  H    0.083600
    66  H    0.082736
    67  H    0.124305
    68  H    0.100452
    69  H    0.094002
    70  H    0.123395
    71  H    0.116546
    72  H    0.090235
    73  H    0.292235
    74  H    0.295984
    75  H    0.077613
    76  H    0.069792
    77  H    0.080921
    78  H    0.120977
    79  H    0.105720
    80  H    0.130783
    81  H    0.117176
    82  H    0.087226
    83  H    0.088494
    84  H    0.073078
    85  H    0.088573
    86  H    0.080483
    87  H    0.083178
    88  H    0.070627
    89  H    0.128531
    90  H    0.110931
    91  H    0.133617
    92  H    0.112281
    93  H    0.137791
    94  H    0.080037
    95  H    0.071040
    96  H    0.081235
    97  H    0.087559
    98  H    0.088738
 Sum of Mulliken charges =  -0.00000

 Dipole moment (field-independent basis, Debye):
    X=              0.7562    Y=             -1.6175    Z=              1.3943  Tot=              2.2654
 Quadrupole moment (field-independent basis, Debye-Ang):
   XX=           -295.3114   YY=           -241.1662   ZZ=           -258.7911
   XY=              7.7978   XZ=              0.2395   YZ=              2.3086

 Normal termination of Gaussian 16 at Sat Jun 29 08:22:21 2019.
