 Gaussian 16, Revision A.03,
 Gaussian 16:  ES64L-G16RevA.03 25-Dec-2016

 -------------------------------------
 # td=(NStates=1) CAM-B3LYP/6-31G(d,p)
 -------------------------------------

 --
 TD
 --
 Symbolic Z-matrix:
 Charge =  0 Multiplicity = 1

                         Standard orientation:
 ---------------------------------------------------------------------
 Center     Atomic      Atomic             Coordinates (Angstroms)
 Number     Number       Type             X           Y           Z
 ---------------------------------------------------------------------
      1          8           0       14.785942   -2.072480   -0.278852
      2          8           0      -14.882759    1.902577    0.445564
      3          6           0       11.399929   -1.115289    1.112364
      4          6           0      -12.198845   -0.861849    0.898141
      5          6           0       12.904901   -1.448641    1.032175
      6          6           0      -13.655980   -0.206912    0.696645
      7          6           0       13.425900   -1.823118   -0.341428
      8          6           0      -13.701825    1.258988    0.608295
      9          6           0       10.968922   -0.257916   -0.025468
     10          6           0      -11.292720   -0.288642   -0.123986
     11          6           0       13.044925   -0.844008   -1.433443
     12          6           0      -12.719449    1.711404   -0.611147
     13          6           0       11.705060   -0.181646   -1.166545
     14          6           0      -11.488560    0.842619   -0.848974
     15          6           0       11.192679   -0.387295    2.509437
     16          6           0       10.673943   -2.455755    1.138104
     17          6           0      -11.720363   -0.653415    2.306731
     18          6           0      -12.556368   -2.393306    0.602978
     19          6           0        9.594008    0.399276    0.146871
     20          6           0      -10.092810   -1.005631   -0.389930
     21          6           0       11.275267    0.536947   -2.477188
     22          6           0      -10.653931    1.451412   -1.870763
     23          6           0        9.426235    1.605478   -0.127555
     24          6           0       -8.827000   -0.580425   -0.355798
     25          6           0        8.004727    2.287093    0.058974
     26          6           0       -7.568663   -1.276140   -0.693360
     27          6           0        8.086090    3.714391    0.556055
     28          6           0       -7.723046   -2.735839   -0.887592
     29          6           0        6.865891    1.534847   -0.055819
     30          6           0       -6.423513   -0.619376   -0.363792
     31          6           0        5.508238    1.999612    0.286389
     32          6           0       -5.029229   -1.208554   -0.413817
     33          6           0        4.455051    1.245490   -0.039002
     34          6           0       -3.922536   -0.360250   -0.201083
     35          6           0        3.088118    1.553805    0.214620
     36          6           0       -2.560019   -0.867350   -0.386687
     37          6           0        2.713677    2.967149    0.716504
     38          6           0       -2.389902   -2.157372   -0.846173
     39          6           0        2.131648    0.677050   -0.073494
     40          6           0       -1.672808    0.053880   -0.090765
     41          6           0        0.678478    0.847281    0.017939
     42          6           0       -0.162467   -0.110322   -0.168031
     43          1           0       13.526056   -0.570260    1.272918
     44          1           0       13.047634   -2.183217    1.858524
     45          1           0      -14.395809   -0.630582    1.659272
     46          1           0      -14.290980   -0.464791   -0.201946
     47          1           0       12.862509   -2.817599   -0.554397
     48          1           0      -13.198961    1.708563    1.542188
     49          1           0       13.768464    0.016685   -1.242017
     50          1           0       13.305807   -1.201659   -2.411931
     51          1           0      -13.393787    1.875317   -1.543793
     52          1           0      -12.488661    2.867997   -0.496039
     53          1           0       11.850497   -0.998845    3.201016
     54          1           0       10.097548   -0.135406    2.628756
     55          1           0       11.554146    0.561830    2.490285
     56          1           0       10.661183   -2.931937    0.223402
     57          1           0       11.049395   -3.015331    1.973928
     58          1           0        9.642330   -2.182543    1.246409
     59          1           0      -11.736599    0.488644    2.440613
     60          1           0      -10.691592   -1.028198    2.474702
     61          1           0      -12.266015   -0.932762    3.148322
     62          1           0      -13.184165   -2.898190    1.370870
     63          1           0      -11.653863   -3.158469    0.624759
     64          1           0      -12.803521   -2.596784   -0.342969
     65          1           0        8.717473   -0.185245    0.570242
     66          1           0       -9.912700   -2.253636   -0.720544
     67          1           0       10.270652    1.200698   -2.544086
     68          1           0       12.163821    1.175237   -2.576262
     69          1           0       11.450348   -0.133037   -3.234167
     70          1           0      -11.228574    1.710625   -2.812125
     71          1           0       -9.792856    0.874112   -2.020234
     72          1           0      -10.279559    2.431906   -1.475252
     73          1           0       14.836523   -2.491253    0.706150
     74          1           0      -15.390868    1.909385    1.351578
     75          1           0       10.058620    2.391900   -0.412226
     76          1           0       -8.717563    0.443454   -0.215850
     77          1           0        8.656084    4.316665   -0.180650
     78          1           0        7.120867    4.140904    0.677313
     79          1           0        8.579103    3.730666    1.460215
     80          1           0       -8.185136   -3.269922    0.035900
     81          1           0       -8.386927   -2.927495   -1.772469
     82          1           0       -6.840175   -3.143758   -0.943358
     83          1           0        6.950371    0.602415   -0.404784
     84          1           0       -6.672105    0.437226    0.076317
     85          1           0        5.290837    2.875418    0.691560
     86          1           0       -5.077322   -2.295203   -0.812392
     87          1           0        4.635957    0.209436   -0.533093
     88          1           0       -4.416571    0.729573   -0.010770
     89          1           0        3.184440    3.282974    1.646249
     90          1           0        1.521133    3.216133    1.050398
     91          1           0        2.848804    3.854110   -0.000921
     92          1           0       -2.980614   -3.042114   -0.137835
     93          1           0       -2.997651   -2.257125   -1.951360
     94          1           0       -1.475530   -2.543551   -1.135631
     95          1           0        2.292228   -0.334608   -0.402616
     96          1           0       -2.013828    1.065011    0.094443
     97          1           0        0.244242    1.937624    0.026995
     98          1           0        0.357473   -1.157775   -0.249584
 ---------------------------------------------------------------------

 SCF Done:  E(RCAM-B3LYP) =  -1706.95698388     A.U. after   14 cycles

 Excitation energies and oscillator strengths:

 Excited State   1:      Singlet-A      3.3225 eV  373.17 nm  f=3.5626  <S**2>=0.000
     155 ->158         0.21041
     156 ->157         0.66428
 This state for optimization and/or second-order correction.
 Total Energy, E(TD-HF/TD-DFT) =  -1706.83488477
 Copying the excited state density for this state as the 1-particle RhoCI density.

 The electronic state is 1-A.
 Alpha  occ. eigenvalues --  -19.22147 -19.22139 -10.30481 -10.30348 -10.28506
 Alpha  occ. eigenvalues --  -10.28017 -10.27784 -10.27672 -10.27604 -10.27450
 Alpha  occ. eigenvalues --  -10.27433 -10.27190 -10.26956 -10.26927 -10.26799
 Alpha  occ. eigenvalues --  -10.26688 -10.26660 -10.26555 -10.26363 -10.26339
 Alpha  occ. eigenvalues --  -10.26293 -10.26207 -10.26144 -10.26099 -10.25980
 Alpha  occ. eigenvalues --  -10.25970 -10.25904 -10.25883 -10.25876 -10.25437
 Alpha  occ. eigenvalues --  -10.25158 -10.25096 -10.25093 -10.24932 -10.24896
 Alpha  occ. eigenvalues --  -10.24875 -10.24588 -10.24439 -10.24392 -10.24276
 Alpha  occ. eigenvalues --  -10.24168 -10.23389  -1.10578  -1.09774  -0.93637
 Alpha  occ. eigenvalues --   -0.93621  -0.92872  -0.91803  -0.90314  -0.89971
 Alpha  occ. eigenvalues --   -0.87664  -0.87228  -0.86846  -0.85219  -0.84288
 Alpha  occ. eigenvalues --   -0.82674  -0.81714  -0.80558  -0.79786  -0.78124
 Alpha  occ. eigenvalues --   -0.77092  -0.77048  -0.76621  -0.76407  -0.75816
 Alpha  occ. eigenvalues --   -0.75806  -0.75683  -0.74789  -0.73620  -0.69612
 Alpha  occ. eigenvalues --   -0.67698  -0.66592  -0.65075  -0.64915  -0.64637
 Alpha  occ. eigenvalues --   -0.64027  -0.61966  -0.61037  -0.60791  -0.59619
 Alpha  occ. eigenvalues --   -0.59047  -0.58318  -0.58142  -0.57529  -0.56933
 Alpha  occ. eigenvalues --   -0.56315  -0.55534  -0.55026  -0.54263  -0.53978
 Alpha  occ. eigenvalues --   -0.53231  -0.52716  -0.52345  -0.51929  -0.50964
 Alpha  occ. eigenvalues --   -0.50655  -0.49977  -0.49760  -0.49394  -0.48939
 Alpha  occ. eigenvalues --   -0.48797  -0.48334  -0.48113  -0.47990  -0.47618
 Alpha  occ. eigenvalues --   -0.47597  -0.47429  -0.47287  -0.47218  -0.47062
 Alpha  occ. eigenvalues --   -0.46767  -0.46419  -0.45854  -0.45389  -0.45007
 Alpha  occ. eigenvalues --   -0.44723  -0.44628  -0.43872  -0.43412  -0.43196
 Alpha  occ. eigenvalues --   -0.43191  -0.42679  -0.42635  -0.41942  -0.41632
 Alpha  occ. eigenvalues --   -0.41459  -0.41328  -0.41195  -0.40905  -0.40729
 Alpha  occ. eigenvalues --   -0.40384  -0.40119  -0.40027  -0.39882  -0.39403
 Alpha  occ. eigenvalues --   -0.39314  -0.38737  -0.38541  -0.38202  -0.37623
 Alpha  occ. eigenvalues --   -0.37484  -0.37000  -0.36399  -0.35612  -0.35557
 Alpha  occ. eigenvalues --   -0.34715  -0.34210  -0.33460  -0.32104  -0.31310
 Alpha  occ. eigenvalues --   -0.30997  -0.29789  -0.27996  -0.27134  -0.24300
 Alpha  occ. eigenvalues --   -0.22119
 Alpha virt. eigenvalues --   -0.02725   0.00551   0.03866   0.05762   0.07339
 Alpha virt. eigenvalues --    0.09528   0.10481   0.10751   0.11515   0.11738
 Alpha virt. eigenvalues --    0.11990   0.12259   0.12535   0.13160   0.13291

 Mulliken charges:
               1
     1  O   -0.552769
     2  O   -0.547726
     3  C   -0.050089
     4  C   -0.008643
     5  C   -0.232448
     6  C   -0.160905
     7  C    0.200540
     8  C    0.184539
     9  C    0.040783
    10  C    0.053930
    11  C   -0.238926
    12  C   -0.251957
    13  C    0.041169
    14  C    0.103793
    15  C   -0.298442
    16  C   -0.279386
    17  C   -0.303204
    18  C   -0.301458
    19  C   -0.125607
    20  C   -0.135270
    21  C   -0.346586
    22  C   -0.360926
    23  C   -0.054616
    24  C   -0.089222
    25  C    0.021343
    26  C    0.098814
    27  C   -0.365884
    28  C   -0.365823
    29  C   -0.101631
    30  C   -0.132395
    31  C   -0.067578
    32  C   -0.107922
    33  C   -0.108469
    34  C   -0.134806
    35  C    0.138652
    36  C    0.199642
    37  C   -0.383928
    38  C   -0.377297
    39  C   -0.148955
    40  C   -0.141569
    41  C   -0.047149
    42  C   -0.104543
    43  H    0.096826
    44  H    0.074975
    45  H    0.030374
    46  H    0.102046
    47  H    0.050388
    48  H    0.048205
    49  H    0.117380
    50  H    0.126399
    51  H    0.104677
    52  H    0.091749
    53  H    0.089132
    54  H    0.099351
    55  H    0.116942
    56  H    0.115124
    57  H    0.098305
    58  H    0.095791
    59  H    0.090634
    60  H    0.113304
    61  H    0.113337
    62  H    0.102047
    63  H    0.068946
    64  H    0.120358
    65  H    0.103772
    66  H    0.048602
    67  H    0.108083
    68  H    0.109175
    69  H    0.122426
    70  H    0.111638
    71  H    0.121728
    72  H    0.113650
    73  H    0.313142
    74  H    0.314584
    75  H    0.087491
    76  H    0.062443
    77  H    0.111970
    78  H    0.115588
    79  H    0.135046
    80  H    0.121498
    81  H    0.119994
    82  H    0.102037
    83  H    0.071637
    84  H    0.079618
    85  H    0.069935
    86  H    0.091437
    87  H    0.074994
    88  H    0.104177
    89  H    0.124669
    90  H    0.083143
    91  H    0.118379
    92  H    0.094228
    93  H    0.095585
    94  H    0.124877
    95  H    0.078679
    96  H    0.092357
    97  H    0.075394
    98  H    0.074657
 Sum of Mulliken charges =  -0.00000

 Dipole moment (field-independent basis, Debye):
    X=              0.7765    Y=              0.1545    Z=              1.8689  Tot=              2.0297
 Quadrupole moment (field-independent basis, Debye-Ang):
   XX=           -283.6371   YY=           -245.4558   ZZ=           -258.5794
   XY=              7.7214   XZ=             -3.6164   YZ=              2.6411

 Normal termination of Gaussian 16 at Mon Jul  8 21:33:27 2019.
