 Gaussian 16, Revision A.03,
 Gaussian 16:  ES64L-G16RevA.03 25-Dec-2016

 -------------------------------------
 # td=(NStates=1) CAM-B3LYP/6-31G(d,p)
 -------------------------------------

 --
 TD
 --
 Symbolic Z-matrix:
 Charge =  0 Multiplicity = 1

                         Standard orientation:
 ---------------------------------------------------------------------
 Center     Atomic      Atomic             Coordinates (Angstroms)
 Number     Number       Type             X           Y           Z
 ---------------------------------------------------------------------
      1          8           0       14.730603   -2.158433   -0.588642
      2          8           0      -14.909674    1.749429    0.889470
      3          6           0       11.578463   -1.207306    1.248035
      4          6           0      -12.322984   -1.136035    0.645154
      5          6           0       13.033716   -1.532980    1.015783
      6          6           0      -13.746583   -0.431651    0.784012
      7          6           0       13.335643   -2.033600   -0.449272
      8          6           0      -13.551123    1.192006    0.839937
      9          6           0       10.978296   -0.448730    0.047093
     10          6           0      -11.427996   -0.279605   -0.254536
     11          6           0       12.957015   -1.040331   -1.374360
     12          6           0      -12.946622    1.744530   -0.489103
     13          6           0       11.630444   -0.409271   -1.174923
     14          6           0      -11.732141    0.975469   -0.863615
     15          6           0       11.528263   -0.453579    2.570593
     16          6           0       10.779143   -2.470562    1.352264
     17          6           0      -11.707769   -1.236057    2.024621
     18          6           0      -12.512208   -2.561197    0.108535
     19          6           0        9.637432    0.313966    0.279207
     20          6           0      -10.105296   -0.970081   -0.488323
     21          6           0       11.040039    0.422714   -2.397923
     22          6           0      -10.748978    1.642727   -1.751353
     23          6           0        9.366599    1.587254   -0.197112
     24          6           0       -8.875429   -0.437035   -0.361719
     25          6           0        8.079897    2.316690    0.038257
     26          6           0       -7.589973   -1.175862   -0.578285
     27          6           0        8.299055    3.808244    0.487324
     28          6           0       -7.706992   -2.650848   -1.061029
     29          6           0        6.920230    1.631762   -0.120587
     30          6           0       -6.382254   -0.535203   -0.283444
     31          6           0        5.488877    2.247280    0.093736
     32          6           0       -5.009650   -1.032021   -0.369603
     33          6           0        4.435956    1.446551   -0.091914
     34          6           0       -4.014147   -0.299954   -0.101040
     35          6           0        3.079237    1.813439    0.200027
     36          6           0       -2.609452   -0.688933   -0.255264
     37          6           0        2.730740    3.223367    0.505584
     38          6           0       -2.321477   -2.043882   -0.791838
     39          6           0        2.136821    0.867266    0.118332
     40          6           0       -1.611841    0.233859    0.035605
     41          6           0        0.651341    1.004735    0.143867
     42          6           0       -0.233776   -0.040574   -0.052978
     43          1           0       13.691896   -0.473580    1.152868
     44          1           0       13.198820   -2.385870    1.747632
     45          1           0      -14.173345   -0.870736    1.765704
     46          1           0      -14.388499   -0.616905   -0.053580
     47          1           0       12.787474   -3.017667   -0.645756
     48          1           0      -12.802401    1.629496    1.483212
     49          1           0       13.625169   -0.137705   -1.206521
     50          1           0       13.015202   -1.213402   -2.470075
     51          1           0      -13.780095    1.559832   -1.123259
     52          1           0      -13.114951    2.789879   -0.264347
     53          1           0       11.807580   -1.104567    3.442065
     54          1           0       10.477524    0.019068    2.849081
     55          1           0       12.153599    0.492118    2.575384
     56          1           0       10.873900   -2.940284    0.413622
     57          1           0       11.233084   -3.168098    2.125911
     58          1           0        9.681996   -2.607579    1.747871
     59          1           0      -11.627875   -0.282666    2.308271
     60          1           0      -10.895429   -1.760188    1.944995
     61          1           0      -12.309468   -1.724102    2.854894
     62          1           0      -13.351472   -3.028069    0.582929
     63          1           0      -11.638877   -3.262161    0.556462
     64          1           0      -12.625717   -2.666955   -1.051211
     65          1           0        8.873453   -0.414875    0.781384
     66          1           0      -10.170997   -1.811938   -0.911313
     67          1           0       10.065013    0.668508   -2.410489
     68          1           0       11.571817    1.543320   -2.429257
     69          1           0       11.245023    0.023370   -3.439147
     70          1           0      -11.552154    2.096972   -2.534944
     71          1           0       -9.935351    0.996611   -1.987807
     72          1           0      -10.455647    2.469154   -1.288911
     73          1           0       15.059250   -2.713613    0.117830
     74          1           0      -15.102060    1.696635    1.814329
     75          1           0       10.125821    2.100486   -0.896680
     76          1           0       -8.972846    0.537618   -0.049258
     77          1           0        8.931361    4.132785   -0.388180
     78          1           0        7.335262    4.438683    0.384119
     79          1           0        8.722394    4.022257    1.445295
     80          1           0       -8.254700   -3.266616   -0.470687
     81          1           0       -7.900742   -2.496161   -2.294453
     82          1           0       -6.643145   -3.095229   -1.001965
     83          1           0        6.814945    0.607768   -0.585994
     84          1           0       -6.421853    0.425637    0.202133
     85          1           0        5.389482    3.187187    0.636562
     86          1           0       -4.819461   -2.064024   -0.693742
     87          1           0        4.525937    0.300927   -0.584970
     88          1           0       -4.252964    0.693780    0.128604
     89          1           0        2.946317    3.606796    1.617019
     90          1           0        1.652311    3.500520    0.340109
     91          1           0        3.399327    3.732560   -0.190811
     92          1           0       -2.587599   -2.754728    0.063588
     93          1           0       -3.037673   -2.273114   -1.651659
     94          1           0       -1.211970   -2.180166   -1.105448
     95          1           0        2.303740   -0.063294   -0.355135
     96          1           0       -2.021635    1.315096    0.447338
     97          1           0        0.412989    1.945847    0.528171
     98          1           0        0.377712   -1.005965   -0.556854
 ---------------------------------------------------------------------

 SCF Done:  E(RCAM-B3LYP) =  -1706.96724784     A.U. after   14 cycles

 Excitation energies and oscillator strengths:

 Excited State   1:      Singlet-A      3.0271 eV  409.58 nm  f=3.4845  <S**2>=0.000
     155 ->158        -0.15910
     156 ->157         0.68142
 This state for optimization and/or second-order correction.
 Total Energy, E(TD-HF/TD-DFT) =  -1706.85600434
 Copying the excited state density for this state as the 1-particle RhoCI density.

 The electronic state is 1-A.
 Alpha  occ. eigenvalues --  -19.21371 -19.21089 -10.30798 -10.30732 -10.28428
 Alpha  occ. eigenvalues --  -10.28223 -10.27739 -10.27628 -10.27477 -10.27369
 Alpha  occ. eigenvalues --  -10.27367 -10.27323 -10.27276 -10.27242 -10.27223
 Alpha  occ. eigenvalues --  -10.27185 -10.26971 -10.26957 -10.26949 -10.26914
 Alpha  occ. eigenvalues --  -10.26896 -10.26768 -10.26615 -10.26575 -10.26394
 Alpha  occ. eigenvalues --  -10.26281 -10.26215 -10.26188 -10.26085 -10.25834
 Alpha  occ. eigenvalues --  -10.25798 -10.25597 -10.25310 -10.25183 -10.25168
 Alpha  occ. eigenvalues --  -10.25165 -10.24823 -10.24643 -10.24471 -10.24169
 Alpha  occ. eigenvalues --  -10.23938 -10.22120  -1.10384  -1.08888  -0.93644
 Alpha  occ. eigenvalues --   -0.92784  -0.92300  -0.91677  -0.89379  -0.88825
 Alpha  occ. eigenvalues --   -0.87585  -0.87449  -0.87346  -0.84905  -0.83781
 Alpha  occ. eigenvalues --   -0.82800  -0.81574  -0.80284  -0.78708  -0.77696
 Alpha  occ. eigenvalues --   -0.76612  -0.76059  -0.75942  -0.75717  -0.75223
 Alpha  occ. eigenvalues --   -0.75079  -0.74795  -0.74572  -0.73648  -0.69988
 Alpha  occ. eigenvalues --   -0.68448  -0.67274  -0.65338  -0.64404  -0.63642
 Alpha  occ. eigenvalues --   -0.63496  -0.62513  -0.61445  -0.61163  -0.59990
 Alpha  occ. eigenvalues --   -0.59241  -0.58938  -0.58693  -0.57066  -0.56194
 Alpha  occ. eigenvalues --   -0.55292  -0.54428  -0.54128  -0.53501  -0.53163
 Alpha  occ. eigenvalues --   -0.52884  -0.52519  -0.52004  -0.51465  -0.51280
 Alpha  occ. eigenvalues --   -0.50911  -0.50059  -0.50004  -0.49633  -0.49116
 Alpha  occ. eigenvalues --   -0.48868  -0.48821  -0.48574  -0.48355  -0.47973
 Alpha  occ. eigenvalues --   -0.47527  -0.46759  -0.46286  -0.46210  -0.45938
 Alpha  occ. eigenvalues --   -0.45835  -0.45283  -0.44886  -0.44671  -0.44419
 Alpha  occ. eigenvalues --   -0.44152  -0.43902  -0.43697  -0.43177  -0.42921
 Alpha  occ. eigenvalues --   -0.42746  -0.42731  -0.42339  -0.42039  -0.41931
 Alpha  occ. eigenvalues --   -0.41649  -0.41334  -0.41253  -0.41167  -0.40939
 Alpha  occ. eigenvalues --   -0.40427  -0.39965  -0.39807  -0.39576  -0.39188
 Alpha  occ. eigenvalues --   -0.38978  -0.38898  -0.38758  -0.38507  -0.38394
 Alpha  occ. eigenvalues --   -0.37824  -0.37493  -0.37424  -0.36231  -0.35715
 Alpha  occ. eigenvalues --   -0.35240  -0.34319  -0.33356  -0.32091  -0.31908
 Alpha  occ. eigenvalues --   -0.31440  -0.29027  -0.27586  -0.26007  -0.24581
 Alpha  occ. eigenvalues --   -0.21403
 Alpha virt. eigenvalues --   -0.03516   0.00679   0.02986   0.05686   0.07411
 Alpha virt. eigenvalues --    0.09112   0.10135   0.10493   0.11832   0.12115
 Alpha virt. eigenvalues --    0.12919   0.13088   0.13338   0.13469   0.13650

 Mulliken charges:
               1
     1  O   -0.551219
     2  O   -0.552710
     3  C    0.001093
     4  C   -0.016183
     5  C   -0.198361
     6  C   -0.173179
     7  C    0.175501
     8  C    0.090629
     9  C    0.021336
    10  C    0.012009
    11  C   -0.198527
    12  C   -0.243473
    13  C    0.045411
    14  C    0.056919
    15  C   -0.296086
    16  C   -0.302072
    17  C   -0.275983
    18  C   -0.304613
    19  C   -0.098645
    20  C   -0.120920
    21  C   -0.357508
    22  C   -0.343022
    23  C   -0.125877
    24  C   -0.082347
    25  C    0.047742
    26  C    0.060526
    27  C   -0.351615
    28  C   -0.350821
    29  C   -0.112383
    30  C   -0.135454
    31  C   -0.123733
    32  C   -0.066638
    33  C   -0.085728
    34  C   -0.079617
    35  C    0.135361
    36  C    0.103605
    37  C   -0.373603
    38  C   -0.370734
    39  C   -0.140482
    40  C   -0.128061
    41  C   -0.079497
    42  C   -0.093396
    43  H    0.090608
    44  H    0.082479
    45  H    0.074347
    46  H    0.110430
    47  H    0.076468
    48  H    0.101487
    49  H    0.123757
    50  H    0.108601
    51  H    0.129179
    52  H    0.120429
    53  H    0.095610
    54  H    0.091289
    55  H    0.097155
    56  H    0.113166
    57  H    0.080647
    58  H    0.100652
    59  H    0.105582
    60  H    0.113225
    61  H    0.081244
    62  H    0.109418
    63  H    0.073201
    64  H    0.098518
    65  H    0.095827
    66  H    0.082119
    67  H    0.141654
    68  H    0.079222
    69  H    0.095883
    70  H    0.086555
    71  H    0.124365
    72  H    0.130943
    73  H    0.302167
    74  H    0.306182
    75  H    0.094183
    76  H    0.079297
    77  H    0.116981
    78  H    0.100353
    79  H    0.136996
    80  H    0.138761
    81  H    0.106691
    82  H    0.099700
    83  H    0.091261
    84  H    0.082068
    85  H    0.098088
    86  H    0.073435
    87  H    0.073964
    88  H    0.073205
    89  H    0.104607
    90  H    0.113132
    91  H    0.123484
    92  H    0.121745
    93  H    0.117006
    94  H    0.105104
    95  H    0.062240
    96  H    0.085838
    97  H    0.073387
    98  H    0.088417
 Sum of Mulliken charges =  -0.00000

 Dipole moment (field-independent basis, Debye):
    X=              0.5883    Y=             -0.7689    Z=              2.0392  Tot=              2.2573
 Quadrupole moment (field-independent basis, Debye-Ang):
   XX=           -286.6265   YY=           -243.2005   ZZ=           -259.3155
   XY=              1.6690   XZ=             -5.1552   YZ=              2.2386

 Normal termination of Gaussian 16 at Fri Jun 28 23:57:52 2019.
