 Gaussian 16, Revision A.03,
 Gaussian 16:  ES64L-G16RevA.03 25-Dec-2016

 -------------------------------------
 # td=(NStates=1) CAM-B3LYP/6-31G(d,p)
 -------------------------------------

 --
 TD
 --
 Symbolic Z-matrix:
 Charge =  0 Multiplicity = 1

                         Standard orientation:
 ---------------------------------------------------------------------
 Center     Atomic      Atomic             Coordinates (Angstroms)
 Number     Number       Type             X           Y           Z
 ---------------------------------------------------------------------
      1          8           0       14.795377   -2.077045   -0.413408
      2          8           0      -14.906835    1.805169    0.596300
      3          6           0       11.450557   -1.157612    1.226962
      4          6           0      -12.270645   -0.819629    0.943053
      5          6           0       13.031580   -1.420786    1.054120
      6          6           0      -13.622551   -0.222568    0.989167
      7          6           0       13.418730   -1.847630   -0.218981
      8          6           0      -13.551850    1.306487    0.713148
      9          6           0       10.976377   -0.346292   -0.061708
     10          6           0      -11.325549   -0.270489   -0.144253
     11          6           0       13.078623   -0.761949   -1.329593
     12          6           0      -12.991486    1.671810   -0.548484
     13          6           0       11.729146   -0.121595   -1.148491
     14          6           0      -11.634172    0.838643   -0.759069
     15          6           0       11.272960   -0.253644    2.529126
     16          6           0       10.627520   -2.425447    1.385184
     17          6           0      -11.566698   -0.670270    2.399538
     18          6           0      -12.500737   -2.478024    0.688492
     19          6           0        9.676912    0.277149    0.181500
     20          6           0      -10.057496   -0.947533   -0.306078
     21          6           0       11.201327    0.502001   -2.344036
     22          6           0      -10.876362    1.396169   -2.009477
     23          6           0        9.378891    1.642487    0.072641
     24          6           0       -8.763765   -0.519325   -0.338433
     25          6           0        8.046165    2.075869    0.186089
     26          6           0       -7.576657   -1.326118   -0.604337
     27          6           0        8.019735    3.559531    0.534283
     28          6           0       -7.791016   -2.757496   -0.972802
     29          6           0        6.876805    1.485659   -0.064425
     30          6           0       -6.452801   -0.632593   -0.461363
     31          6           0        5.582051    2.034215    0.109811
     32          6           0       -5.126159   -1.156747   -0.592379
     33          6           0        4.481444    1.263081   -0.116728
     34          6           0       -4.065314   -0.424201   -0.458846
     35          6           0        3.057504    1.730371    0.054811
     36          6           0       -2.635931   -0.792870   -0.618419
     37          6           0        2.908719    3.066999    0.564749
     38          6           0       -2.227376   -2.069017   -1.113090
     39          6           0        2.114979    0.749261   -0.128098
     40          6           0       -1.709953    0.150658   -0.268646
     41          6           0        0.646631    0.941002    0.024093
     42          6           0       -0.216526    0.022083   -0.364711
     43          1           0       13.460043   -0.588267    1.302864
     44          1           0       13.214151   -2.330021    1.763926
     45          1           0      -14.245321   -0.508808    1.848579
     46          1           0      -14.262211   -0.530024    0.425573
     47          1           0       13.018624   -2.727224   -0.806969
     48          1           0      -13.016264    1.730023    1.580111
     49          1           0       13.909775    0.010089   -1.376589
     50          1           0       13.186181   -1.224485   -2.197720
     51          1           0      -13.783855    1.560732   -1.307428
     52          1           0      -12.789139    2.692626   -0.390088
     53          1           0       11.624741   -0.915776    3.435301
     54          1           0       10.171394   -0.133764    2.772057
     55          1           0       11.841372    0.737398    2.583033
     56          1           0       10.570843   -3.335348    0.477407
     57          1           0       10.899545   -3.170186    2.179587
     58          1           0        9.507727   -2.226573    1.774904
     59          1           0      -11.156428    0.323203    2.533343
     60          1           0      -10.559370   -1.240286    2.553423
     61          1           0      -12.090682   -1.189478    3.105408
     62          1           0      -13.192847   -2.695024    1.380104
     63          1           0      -11.590951   -2.855366    1.101093
     64          1           0      -12.770914   -2.556080   -0.379886
     65          1           0        9.086572   -0.573813    0.563678
     66          1           0      -10.235946   -2.044333   -0.580317
     67          1           0       10.219511    0.952572   -2.241609
     68          1           0       11.750655    1.324663   -2.753301
     69          1           0       11.184547   -0.142731   -3.158381
     70          1           0      -11.605467    1.868913   -2.667527
     71          1           0      -10.176937    0.633009   -2.297096
     72          1           0      -10.310504    2.137225   -1.529176
     73          1           0       14.927804   -2.731722    0.306336
     74          1           0      -15.263888    1.517098    1.420972
     75          1           0       10.227001    2.139339   -0.279336
     76          1           0       -8.723323    0.564036    0.047379
     77          1           0        8.712633    4.154701   -0.031844
     78          1           0        7.145437    4.038629    0.761490
     79          1           0        8.632375    3.729480    1.473047
     80          1           0       -8.572898   -3.048201   -0.172274
     81          1           0       -8.318168   -3.039560   -1.757644
     82          1           0       -6.841995   -3.400465   -1.033077
     83          1           0        6.814518    0.326464   -0.381593
     84          1           0       -6.519874    0.427257   -0.212956
     85          1           0        5.375124    3.108414    0.628353
     86          1           0       -4.928907   -2.253089   -1.070847
     87          1           0        4.917008    0.292159   -0.551250
     88          1           0       -4.444730    0.514020   -0.130152
     89          1           0        3.108256    3.138498    1.764779
     90          1           0        1.740133    3.609661    0.406470
     91          1           0        3.606031    3.891274   -0.118953
     92          1           0       -2.998544   -2.831139   -0.550176
     93          1           0       -2.586569   -2.039888   -2.201326
     94          1           0       -1.280768   -2.320734   -1.056974
     95          1           0        2.552811   -0.080384   -0.446243
     96          1           0       -2.115827    1.045714    0.196482
     97          1           0        0.092346    1.766774    0.380672
     98          1           0        0.095170   -1.076025   -0.654710
 ---------------------------------------------------------------------

 SCF Done:  E(RCAM-B3LYP) =  -1706.88802570     A.U. after   13 cycles

 Excitation energies and oscillator strengths:

 Excited State   1:      Singlet-A      3.1006 eV  399.87 nm  f=3.4927  <S**2>=0.000
     155 ->158         0.20989
     156 ->157         0.65996
 This state for optimization and/or second-order correction.
 Total Energy, E(TD-HF/TD-DFT) =  -1706.77408087
 Copying the excited state density for this state as the 1-particle RhoCI density.

 The electronic state is 1-A.
 Alpha  occ. eigenvalues --  -19.20984 -19.20535 -10.29759 -10.29656 -10.29639
 Alpha  occ. eigenvalues --  -10.29213 -10.28341 -10.27878 -10.27677 -10.27483
 Alpha  occ. eigenvalues --  -10.27395 -10.26979 -10.26977 -10.26808 -10.26527
 Alpha  occ. eigenvalues --  -10.26373 -10.26271 -10.26268 -10.26208 -10.26196
 Alpha  occ. eigenvalues --  -10.26132 -10.26118 -10.26118 -10.26058 -10.26014
 Alpha  occ. eigenvalues --  -10.25977 -10.25935 -10.25931 -10.25903 -10.25709
 Alpha  occ. eigenvalues --  -10.25535 -10.25446 -10.25200 -10.25151 -10.24549
 Alpha  occ. eigenvalues --  -10.24341 -10.24119 -10.23966 -10.23923 -10.23723
 Alpha  occ. eigenvalues --  -10.23134 -10.22582  -1.10238  -1.09504  -0.93426
 Alpha  occ. eigenvalues --   -0.93343  -0.92607  -0.91654  -0.91002  -0.90147
 Alpha  occ. eigenvalues --   -0.87572  -0.87285  -0.86329  -0.85741  -0.85157
 Alpha  occ. eigenvalues --   -0.84265  -0.82950  -0.80239  -0.79849  -0.78108
 Alpha  occ. eigenvalues --   -0.77736  -0.77510  -0.77199  -0.76217  -0.76008
 Alpha  occ. eigenvalues --   -0.75878  -0.74931  -0.74736  -0.74500  -0.69769
 Alpha  occ. eigenvalues --   -0.69085  -0.66535  -0.65273  -0.65009  -0.64556
 Alpha  occ. eigenvalues --   -0.64261  -0.63090  -0.61355  -0.61094  -0.59987
 Alpha  occ. eigenvalues --   -0.58883  -0.58713  -0.58544  -0.58328  -0.56129
 Alpha  occ. eigenvalues --   -0.55815  -0.55304  -0.54874  -0.54505  -0.54134
 Alpha  occ. eigenvalues --   -0.53519  -0.53054  -0.52172  -0.51487  -0.50950
 Alpha  occ. eigenvalues --   -0.50663  -0.50317  -0.50050  -0.49392  -0.49228
 Alpha  occ. eigenvalues --   -0.48971  -0.48727  -0.48568  -0.48420  -0.48056
 Alpha  occ. eigenvalues --   -0.47590  -0.47452  -0.47217  -0.47111  -0.46699
 Alpha  occ. eigenvalues --   -0.46411  -0.46132  -0.45177  -0.45105  -0.44997
 Alpha  occ. eigenvalues --   -0.44837  -0.44573  -0.44440  -0.44295  -0.43883
 Alpha  occ. eigenvalues --   -0.43543  -0.43280  -0.42805  -0.42475  -0.41934
 Alpha  occ. eigenvalues --   -0.41904  -0.41503  -0.41029  -0.40960  -0.40836
 Alpha  occ. eigenvalues --   -0.40601  -0.40255  -0.39845  -0.39700  -0.39277
 Alpha  occ. eigenvalues --   -0.39196  -0.38401  -0.38183  -0.38140  -0.37940
 Alpha  occ. eigenvalues --   -0.37583  -0.36969  -0.36490  -0.35687  -0.35452
 Alpha  occ. eigenvalues --   -0.35130  -0.34311  -0.33240  -0.32034  -0.31728
 Alpha  occ. eigenvalues --   -0.31145  -0.29678  -0.28521  -0.26772  -0.24029
 Alpha  occ. eigenvalues --   -0.21529
 Alpha virt. eigenvalues --   -0.03041  -0.00149   0.02920   0.06409   0.08798
 Alpha virt. eigenvalues --    0.10078   0.11209   0.11399   0.11670   0.11853
 Alpha virt. eigenvalues --    0.12647   0.12710   0.12861   0.13319   0.13806

 Mulliken charges:
               1
     1  O   -0.550719
     2  O   -0.559434
     3  C   -0.010731
     4  C   -0.039109
     5  C   -0.161088
     6  C   -0.155913
     7  C    0.154811
     8  C    0.125980
     9  C    0.028290
    10  C    0.091234
    11  C   -0.239796
    12  C   -0.197316
    13  C    0.077998
    14  C   -0.035114
    15  C   -0.303907
    16  C   -0.307626
    17  C   -0.318834
    18  C   -0.325183
    19  C   -0.103226
    20  C   -0.155833
    21  C   -0.385181
    22  C   -0.346817
    23  C   -0.125510
    24  C   -0.100793
    25  C    0.113905
    26  C    0.139734
    27  C   -0.376844
    28  C   -0.369842
    29  C   -0.130364
    30  C   -0.149000
    31  C   -0.062132
    32  C   -0.078070
    33  C   -0.135481
    34  C   -0.091602
    35  C    0.135885
    36  C    0.116596
    37  C   -0.368405
    38  C   -0.351132
    39  C   -0.097312
    40  C   -0.143441
    41  C   -0.084811
    42  C   -0.071115
    43  H    0.116623
    44  H    0.068633
    45  H    0.067593
    46  H    0.099430
    47  H    0.080132
    48  H    0.081984
    49  H    0.103809
    50  H    0.114436
    51  H    0.128707
    52  H    0.120043
    53  H    0.086437
    54  H    0.110821
    55  H    0.111721
    56  H    0.082490
    57  H    0.106571
    58  H    0.095624
    59  H    0.111851
    60  H    0.083407
    61  H    0.109367
    62  H    0.106774
    63  H    0.110902
    64  H    0.115134
    65  H    0.088060
    66  H    0.073356
    67  H    0.118804
    68  H    0.108813
    69  H    0.120220
    70  H    0.112782
    71  H    0.120011
    72  H    0.121137
    73  H    0.294842
    74  H    0.295811
    75  H    0.102090
    76  H    0.082170
    77  H    0.116725
    78  H    0.110956
    79  H    0.098633
    80  H    0.112377
    81  H    0.142744
    82  H    0.106943
    83  H    0.069155
    84  H    0.090646
    85  H    0.081531
    86  H    0.061504
    87  H    0.079417
    88  H    0.074262
    89  H    0.121341
    90  H    0.079670
    91  H    0.099327
    92  H    0.097355
    93  H    0.121109
    94  H    0.118248
    95  H    0.080957
    96  H    0.075976
    97  H    0.089537
    98  H    0.068245
 Sum of Mulliken charges =  -0.00000

 Dipole moment (field-independent basis, Debye):
    X=              0.1659    Y=             -1.7063    Z=              2.2577  Tot=              2.8348
 Quadrupole moment (field-independent basis, Debye-Ang):
   XX=           -280.4572   YY=           -246.2196   ZZ=           -258.5797
   XY=              8.2357   XZ=              0.0825   YZ=              2.4081

 Normal termination of Gaussian 16 at Wed Jun 26 22:18:40 2019.
