 Gaussian 16, Revision A.03,
 Gaussian 16:  ES64L-G16RevA.03 25-Dec-2016

 -------------------------------------
 # td=(NStates=1) CAM-B3LYP/6-31G(d,p)
 -------------------------------------

 --
 TD
 --
 Symbolic Z-matrix:
 Charge =  0 Multiplicity = 1

                         Standard orientation:
 ---------------------------------------------------------------------
 Center     Atomic      Atomic             Coordinates (Angstroms)
 Number     Number       Type             X           Y           Z
 ---------------------------------------------------------------------
      1          8           0       14.745300   -2.196001   -0.522730
      2          8           0      -14.978924    1.773132    0.576901
      3          6           0       11.488951   -1.128860    1.208634
      4          6           0      -12.304925   -0.902111    0.879204
      5          6           0       13.001481   -1.457547    1.058343
      6          6           0      -13.710153   -0.242107    0.810360
      7          6           0       13.349396   -1.963102   -0.412504
      8          6           0      -13.680276    1.280263    0.550050
      9          6           0       11.033464   -0.230822    0.013072
     10          6           0      -11.280617   -0.209383   -0.136656
     11          6           0       12.965469   -0.968926   -1.403830
     12          6           0      -13.003666    1.532040   -0.767689
     13          6           0       11.639369   -0.233646   -1.169466
     14          6           0      -11.586854    0.892146   -0.812290
     15          6           0       11.278918   -0.351486    2.521652
     16          6           0       10.649942   -2.350975    1.303870
     17          6           0      -11.803826   -0.911909    2.385354
     18          6           0      -12.533197   -2.380382    0.593858
     19          6           0        9.727026    0.433224    0.287023
     20          6           0      -10.022360   -1.016699   -0.385400
     21          6           0       11.110509    0.474619   -2.324250
     22          6           0      -10.713315    1.442859   -1.916021
     23          6           0        9.354226    1.736876   -0.066357
     24          6           0       -8.859098   -0.541364   -0.174791
     25          6           0        8.025498    2.303093    0.068328
     26          6           0       -7.633803   -1.125083   -0.374194
     27          6           0        8.065900    3.650172    0.591120
     28          6           0       -7.559757   -2.552943   -0.886833
     29          6           0        6.967023    1.519313   -0.049297
     30          6           0       -6.419748   -0.521936   -0.237112
     31          6           0        5.602677    2.058574    0.201405
     32          6           0       -5.147675   -1.115649   -0.440441
     33          6           0        4.524103    1.246426   -0.035860
     34          6           0       -3.959930   -0.408994   -0.249198
     35          6           0        3.131539    1.631186    0.164690
     36          6           0       -2.569092   -0.716215   -0.466575
     37          6           0        2.782123    2.958803    0.695663
     38          6           0       -2.257665   -2.201016   -0.927130
     39          6           0        2.126644    0.729464   -0.361153
     40          6           0       -1.596156    0.127378   -0.212393
     41          6           0        0.682910    0.942533   -0.046551
     42          6           0       -0.141598   -0.009177   -0.485583
     43          1           0       13.644173   -0.541075    1.079796
     44          1           0       13.359731   -2.255246    1.714480
     45          1           0      -14.154780   -0.442368    1.809062
     46          1           0      -14.459990   -0.550170    0.017504
     47          1           0       12.654335   -2.929644   -0.667193
     48          1           0      -13.038034    1.894336    1.423484
     49          1           0       13.791486   -0.223636   -1.142273
     50          1           0       13.030752   -1.232467   -2.446036
     51          1           0      -13.650668    1.424626   -1.595050
     52          1           0      -13.039858    2.668907   -0.795722
     53          1           0       11.589081   -0.931451    3.469114
     54          1           0       10.275463   -0.175223    2.740196
     55          1           0       11.813967    0.650078    2.544243
     56          1           0       10.633118   -2.830207    0.349604
     57          1           0       10.914968   -2.806989    2.052921
     58          1           0        9.554500   -2.076770    1.447725
     59          1           0      -11.823886    0.051597    2.883504
     60          1           0      -10.750332   -1.237216    2.324596
     61          1           0      -12.300883   -1.658388    2.936813
     62          1           0      -13.493726   -2.825516    1.161535
     63          1           0      -11.692580   -3.086787    0.776934
     64          1           0      -12.731549   -2.614145   -0.672782
     65          1           0        8.841765   -0.025826    0.885662
     66          1           0      -10.032898   -2.143672   -0.771904
     67          1           0        9.933721    1.004281   -2.262226
     68          1           0       11.573718    1.412512   -2.482719
     69          1           0       11.100110   -0.171461   -3.155337
     70          1           0      -11.268373    1.567953   -2.903764
     71          1           0       -9.921739    0.696402   -2.050720
     72          1           0      -10.176536    2.468677   -1.515086
     73          1           0       14.877206   -2.900156    0.241653
     74          1           0      -15.497566    1.619266    1.275897
     75          1           0       10.310169    2.247018   -0.210856
     76          1           0       -8.785008    0.569748    0.027460
     77          1           0        8.654408    3.998897   -0.192722
     78          1           0        6.995782    4.069843    0.851909
     79          1           0        8.705216    3.764080    1.502069
     80          1           0       -8.042926   -3.114199   -0.128465
     81          1           0       -8.106224   -2.557742   -1.872143
     82          1           0       -6.494221   -3.120767   -1.056519
     83          1           0        6.873563    0.481767   -0.392068
     84          1           0       -6.199542    0.587186    0.059331
     85          1           0        5.421645    3.035855    0.707106
     86          1           0       -5.074387   -2.052061   -0.915096
     87          1           0        4.710869    0.356303   -0.323628
     88          1           0       -3.998100    0.566780    0.061828
     89          1           0        3.566294    3.324475    1.565226
     90          1           0        1.796160    3.133529    1.217234
     91          1           0        3.047740    3.596622   -0.181742
     92          1           0       -2.862747   -2.868735   -0.313135
     93          1           0       -2.512772   -2.449861   -2.009348
     94          1           0       -1.128987   -2.544697   -0.742139
     95          1           0        2.404576   -0.228137   -0.709601
     96          1           0       -1.858735    1.227116    0.290476
     97          1           0        0.252731    1.945665    0.549707
     98          1           0        0.298047   -0.897780   -0.838457
 ---------------------------------------------------------------------

 SCF Done:  E(RCAM-B3LYP) =  -1706.97219568     A.U. after   14 cycles

 Excitation energies and oscillator strengths:

 Excited State   1:      Singlet-A      2.8529 eV  434.60 nm  f=3.6426  <S**2>=0.000
     155 ->158         0.19110
     156 ->157         0.67390
 This state for optimization and/or second-order correction.
 Total Energy, E(TD-HF/TD-DFT) =  -1706.86735492
 Copying the excited state density for this state as the 1-particle RhoCI density.

 The electronic state is 1-A.
 Alpha  occ. eigenvalues --  -19.22966 -19.19916 -10.31449 -10.31149 -10.28213
 Alpha  occ. eigenvalues --  -10.28131 -10.27879 -10.27522 -10.27302 -10.27281
 Alpha  occ. eigenvalues --  -10.27280 -10.26969 -10.26890 -10.26832 -10.26828
 Alpha  occ. eigenvalues --  -10.26750 -10.26740 -10.26704 -10.26680 -10.26532
 Alpha  occ. eigenvalues --  -10.26402 -10.26330 -10.26278 -10.26150 -10.26070
 Alpha  occ. eigenvalues --  -10.26056 -10.25989 -10.25871 -10.25854 -10.25832
 Alpha  occ. eigenvalues --  -10.25793 -10.25659 -10.25619 -10.25602 -10.25161
 Alpha  occ. eigenvalues --  -10.25046 -10.24885 -10.24804 -10.24801 -10.24584
 Alpha  occ. eigenvalues --  -10.24084 -10.22756  -1.11073  -1.09507  -0.93903
 Alpha  occ. eigenvalues --   -0.93220  -0.92335  -0.91592  -0.90919  -0.89978
 Alpha  occ. eigenvalues --   -0.88163  -0.87390  -0.86410  -0.85486  -0.84747
 Alpha  occ. eigenvalues --   -0.83192  -0.82315  -0.80587  -0.79821  -0.77308
 Alpha  occ. eigenvalues --   -0.76818  -0.76622  -0.75918  -0.75717  -0.75665
 Alpha  occ. eigenvalues --   -0.75274  -0.74856  -0.73992  -0.73639  -0.70466
 Alpha  occ. eigenvalues --   -0.68508  -0.67136  -0.65864  -0.64439  -0.63795
 Alpha  occ. eigenvalues --   -0.63118  -0.62474  -0.61800  -0.61255  -0.60032
 Alpha  occ. eigenvalues --   -0.58759  -0.58484  -0.57852  -0.57388  -0.56401
 Alpha  occ. eigenvalues --   -0.56076  -0.55322  -0.55091  -0.54722  -0.53498
 Alpha  occ. eigenvalues --   -0.52577  -0.52533  -0.52128  -0.51851  -0.51533
 Alpha  occ. eigenvalues --   -0.50379  -0.50121  -0.49945  -0.49590  -0.49565
 Alpha  occ. eigenvalues --   -0.49352  -0.49300  -0.48633  -0.47998  -0.47632
 Alpha  occ. eigenvalues --   -0.47479  -0.47175  -0.47087  -0.46866  -0.46690
 Alpha  occ. eigenvalues --   -0.46183  -0.45520  -0.45322  -0.45028  -0.44737
 Alpha  occ. eigenvalues --   -0.44553  -0.44179  -0.44028  -0.43829  -0.43470
 Alpha  occ. eigenvalues --   -0.43336  -0.42724  -0.42284  -0.41864  -0.41686
 Alpha  occ. eigenvalues --   -0.41467  -0.40909  -0.40738  -0.40554  -0.40385
 Alpha  occ. eigenvalues --   -0.40112  -0.40104  -0.39765  -0.39545  -0.39176
 Alpha  occ. eigenvalues --   -0.39048  -0.38859  -0.38583  -0.37768  -0.37616
 Alpha  occ. eigenvalues --   -0.37301  -0.37231  -0.36662  -0.36614  -0.36005
 Alpha  occ. eigenvalues --   -0.35774  -0.34457  -0.32954  -0.31901  -0.31833
 Alpha  occ. eigenvalues --   -0.31174  -0.30106  -0.28958  -0.26774  -0.23930
 Alpha  occ. eigenvalues --   -0.20927
 Alpha virt. eigenvalues --   -0.03786  -0.00420   0.02902   0.06321   0.07762
 Alpha virt. eigenvalues --    0.09162   0.10587   0.10927   0.11422   0.12150
 Alpha virt. eigenvalues --    0.12476   0.13089   0.13188   0.13662   0.13880

 Mulliken charges:
               1
     1  O   -0.546927
     2  O   -0.550475
     3  C   -0.017619
     4  C    0.011903
     5  C   -0.189176
     6  C   -0.187297
     7  C    0.151383
     8  C    0.185072
     9  C    0.034952
    10  C    0.047140
    11  C   -0.206073
    12  C   -0.217657
    13  C    0.078470
    14  C    0.063599
    15  C   -0.303029
    16  C   -0.265879
    17  C   -0.313813
    18  C   -0.284771
    19  C   -0.115271
    20  C   -0.187557
    21  C   -0.371413
    22  C   -0.352447
    23  C   -0.147200
    24  C   -0.033796
    25  C    0.091188
    26  C    0.099978
    27  C   -0.346348
    28  C   -0.374322
    29  C   -0.123286
    30  C   -0.124841
    31  C   -0.089968
    32  C   -0.064465
    33  C   -0.082710
    34  C   -0.119074
    35  C    0.096935
    36  C    0.132365
    37  C   -0.371693
    38  C   -0.372001
    39  C   -0.151048
    40  C   -0.154401
    41  C   -0.060255
    42  C   -0.070481
    43  H    0.105460
    44  H    0.075767
    45  H    0.074416
    46  H    0.100196
    47  H    0.047968
    48  H    0.036497
    49  H    0.116715
    50  H    0.109992
    51  H    0.124198
    52  H    0.101147
    53  H    0.078808
    54  H    0.112069
    55  H    0.094967
    56  H    0.105691
    57  H    0.103362
    58  H    0.089510
    59  H    0.105532
    60  H    0.106902
    61  H    0.109103
    62  H    0.090087
    63  H    0.102273
    64  H    0.053893
    65  H    0.087413
    66  H    0.093599
    67  H    0.091478
    68  H    0.131123
    69  H    0.111868
    70  H    0.108792
    71  H    0.120866
    72  H    0.093390
    73  H    0.312725
    74  H    0.293154
    75  H    0.086663
    76  H    0.086280
    77  H    0.134045
    78  H    0.098572
    79  H    0.125247
    80  H    0.126506
    81  H    0.117220
    82  H    0.096726
    83  H    0.093801
    84  H    0.074296
    85  H    0.076017
    86  H    0.073844
    87  H    0.057268
    88  H    0.065571
    89  H    0.088586
    90  H    0.118617
    91  H    0.141393
    92  H    0.121462
    93  H    0.113940
    94  H    0.091204
    95  H    0.089376
    96  H    0.065116
    97  H    0.082771
    98  H    0.088828
 Sum of Mulliken charges =  -0.00000

 Dipole moment (field-independent basis, Debye):
    X=              1.4673    Y=             -1.1073    Z=              1.9905  Tot=              2.7095
 Quadrupole moment (field-independent basis, Debye-Ang):
   XX=           -271.3225   YY=           -247.7424   ZZ=           -259.2718
   XY=              6.6962   XZ=              3.3017   YZ=              2.5273

 Normal termination of Gaussian 16 at Thu Jul  4 12:02:44 2019.
