 Gaussian 16, Revision A.03,
 Gaussian 16:  ES64L-G16RevA.03 25-Dec-2016

 -------------------------------------
 # td=(NStates=1) CAM-B3LYP/6-31G(d,p)
 -------------------------------------

 --
 TD
 --
 Symbolic Z-matrix:
 Charge =  0 Multiplicity = 1

                         Standard orientation:
 ---------------------------------------------------------------------
 Center     Atomic      Atomic             Coordinates (Angstroms)
 Number     Number       Type             X           Y           Z
 ---------------------------------------------------------------------
      1          8           0       14.705096   -2.329848   -0.398876
      2          8           0      -15.092398    1.739138    0.546845
      3          6           0       11.511888   -1.115567    1.172249
      4          6           0      -12.311113   -1.007209    0.706465
      5          6           0       13.001936   -1.437940    1.041971
      6          6           0      -13.702071   -0.311935    0.693206
      7          6           0       13.318648   -1.914069   -0.350078
      8          6           0      -13.778331    1.240759    0.688442
      9          6           0       11.049397   -0.296524   -0.045326
     10          6           0      -11.364055   -0.346084   -0.214266
     11          6           0       13.083166   -0.803402   -1.341016
     12          6           0      -12.926526    1.646072   -0.437390
     13          6           0       11.777670   -0.110419   -1.182019
     14          6           0      -11.663170    0.898664   -0.666608
     15          6           0       11.269115   -0.419971    2.483000
     16          6           0       10.708050   -2.480793    1.204880
     17          6           0      -11.740675   -0.957650    2.113078
     18          6           0      -12.483364   -2.556185    0.294594
     19          6           0        9.705470    0.350006    0.135350
     20          6           0      -10.101621   -1.027433   -0.463649
     21          6           0       11.240657    0.581820   -2.436258
     22          6           0      -10.765621    1.604958   -1.711532
     23          6           0        9.468943    1.647382   -0.021980
     24          6           0       -8.851906   -0.508486   -0.210106
     25          6           0        8.038918    2.293240    0.091993
     26          6           0       -7.601650   -1.134877   -0.540664
     27          6           0        8.062778    3.798781    0.561122
     28          6           0       -7.551939   -2.515477   -1.001624
     29          6           0        7.013457    1.544585    0.012787
     30          6           0       -6.516578   -0.488233   -0.339269
     31          6           0        5.594816    1.925258    0.198670
     32          6           0       -5.094788   -0.907636   -0.474688
     33          6           0        4.527764    1.132590   -0.081999
     34          6           0       -4.017848   -0.221968   -0.141665
     35          6           0        3.146178    1.584430    0.167039
     36          6           0       -2.676317   -0.685023   -0.327541
     37          6           0        2.921328    2.941181    0.657993
     38          6           0       -2.487711   -2.072217   -0.725693
     39          6           0        2.096833    0.704637   -0.076076
     40          6           0       -1.601192    0.169755   -0.071538
     41          6           0        0.717220    0.907907    0.063431
     42          6           0       -0.179311   -0.088999   -0.091487
     43          1           0       13.592716   -0.526117    1.060653
     44          1           0       13.456114   -2.129751    1.864826
     45          1           0      -14.418992   -0.867476    1.478552
     46          1           0      -14.099088   -0.633340   -0.187085
     47          1           0       12.556395   -2.728365   -0.824321
     48          1           0      -13.499216    1.644119    1.663081
     49          1           0       13.903566   -0.058130   -1.431455
     50          1           0       13.241583   -1.238649   -2.272008
     51          1           0      -13.608719    1.421833   -1.334551
     52          1           0      -12.683957    2.729838   -0.353143
     53          1           0       11.160122   -1.073901    3.325093
     54          1           0       10.267363   -0.063472    2.483197
     55          1           0       11.754405    0.491330    2.430471
     56          1           0       11.131733   -2.998234    0.183353
     57          1           0       10.853552   -3.178108    2.100495
     58          1           0        9.463089   -2.371494    1.194723
     59          1           0      -11.523761    0.108578    2.490705
     60          1           0      -10.701949   -1.350854    1.888189
     61          1           0      -12.239822   -1.635959    2.793521
     62          1           0      -13.086712   -2.924131    1.047736
     63          1           0      -11.588128   -3.191353    0.434891
     64          1           0      -13.022188   -2.485119   -0.581883
     65          1           0        8.824727   -0.310211    0.421112
     66          1           0      -10.297157   -2.126986   -0.938518
     67          1           0       10.199784    0.914986   -2.609288
     68          1           0       11.769252    1.394929   -2.757074
     69          1           0       11.381263   -0.099033   -3.268990
     70          1           0      -11.304211    2.388373   -2.461270
     71          1           0      -10.224487    0.936194   -2.159837
     72          1           0       -9.698570    2.110635   -1.049752
     73          1           0       14.827780   -3.031455    0.188334
     74          1           0      -15.659489    1.607362    1.255381
     75          1           0       10.374608    2.346572   -0.225539
     76          1           0       -9.027374    0.526775    0.018415
     77          1           0        8.723972    4.452060   -0.122487
     78          1           0        6.910646    4.176369    0.660763
     79          1           0        8.583044    3.724601    1.558952
     80          1           0       -8.279313   -3.079245   -0.328654
     81          1           0       -8.064228   -2.449444   -2.283604
     82          1           0       -6.479854   -2.866842   -1.071719
     83          1           0        7.008195    0.515108   -0.487502
     84          1           0       -6.519171    0.545939    0.107349
     85          1           0        5.414811    2.827262    0.588965
     86          1           0       -4.755058   -1.864933   -0.877170
     87          1           0        4.573442    0.248417   -0.756307
     88          1           0       -3.917191    0.834698    0.362776
     89          1           0        3.393790    3.083225    1.797758
     90          1           0        1.914075    3.373985    0.514622
     91          1           0        3.591644    3.583172    0.004000
     92          1           0       -2.871663   -2.730569    0.082175
     93          1           0       -2.838680   -2.240240   -1.732854
     94          1           0       -1.511804   -2.359545   -0.706661
     95          1           0        2.377071   -0.147394   -0.479292
     96          1           0       -1.782559    1.241490    0.246673
     97          1           0        0.358728    1.904214    0.300753
     98          1           0        0.163626   -1.029592   -0.433100
 ---------------------------------------------------------------------

 SCF Done:  E(RCAM-B3LYP) =  -1706.99187071     A.U. after   14 cycles

 Excitation energies and oscillator strengths:

 Excited State   1:      Singlet-A      2.9238 eV  424.05 nm  f=3.5820  <S**2>=0.000
     155 ->158        -0.15154
     156 ->157         0.68547
 This state for optimization and/or second-order correction.
 Total Energy, E(TD-HF/TD-DFT) =  -1706.88442259
 Copying the excited state density for this state as the 1-particle RhoCI density.

 The electronic state is 1-A.
 Alpha  occ. eigenvalues --  -19.20974 -19.20189 -10.31418 -10.30309 -10.28372
 Alpha  occ. eigenvalues --  -10.28157 -10.27553 -10.27546 -10.27513 -10.27478
 Alpha  occ. eigenvalues --  -10.27350 -10.27086 -10.26989 -10.26849 -10.26839
 Alpha  occ. eigenvalues --  -10.26835 -10.26750 -10.26640 -10.26619 -10.26581
 Alpha  occ. eigenvalues --  -10.26475 -10.26200 -10.26162 -10.26088 -10.26023
 Alpha  occ. eigenvalues --  -10.25975 -10.25956 -10.25932 -10.25695 -10.25571
 Alpha  occ. eigenvalues --  -10.25514 -10.25463 -10.25459 -10.25052 -10.24743
 Alpha  occ. eigenvalues --  -10.24740 -10.24515 -10.24502 -10.24415 -10.24131
 Alpha  occ. eigenvalues --  -10.23807 -10.22699  -1.09996  -1.09615  -0.94061
 Alpha  occ. eigenvalues --   -0.93914  -0.92701  -0.92064  -0.91200  -0.90085
 Alpha  occ. eigenvalues --   -0.87679  -0.87324  -0.86765  -0.85759  -0.85290
 Alpha  occ. eigenvalues --   -0.83294  -0.82037  -0.80325  -0.79879  -0.78584
 Alpha  occ. eigenvalues --   -0.76799  -0.76470  -0.76267  -0.76055  -0.75638
 Alpha  occ. eigenvalues --   -0.75244  -0.75013  -0.74354  -0.74078  -0.70792
 Alpha  occ. eigenvalues --   -0.69189  -0.67769  -0.66039  -0.64688  -0.64076
 Alpha  occ. eigenvalues --   -0.63339  -0.62762  -0.62313  -0.60509  -0.59427
 Alpha  occ. eigenvalues --   -0.59375  -0.58909  -0.58401  -0.57816  -0.56725
 Alpha  occ. eigenvalues --   -0.55597  -0.55364  -0.54895  -0.54223  -0.53716
 Alpha  occ. eigenvalues --   -0.52993  -0.52804  -0.52526  -0.51817  -0.51648
 Alpha  occ. eigenvalues --   -0.51522  -0.50919  -0.50305  -0.49432  -0.49025
 Alpha  occ. eigenvalues --   -0.48597  -0.48279  -0.48006  -0.47851  -0.47440
 Alpha  occ. eigenvalues --   -0.47252  -0.47157  -0.47009  -0.46539  -0.46273
 Alpha  occ. eigenvalues --   -0.46173  -0.45989  -0.45676  -0.45137  -0.45019
 Alpha  occ. eigenvalues --   -0.44517  -0.44103  -0.44018  -0.43800  -0.43589
 Alpha  occ. eigenvalues --   -0.42995  -0.42749  -0.42536  -0.41946  -0.41841
 Alpha  occ. eigenvalues --   -0.41675  -0.41632  -0.41296  -0.41224  -0.40685
 Alpha  occ. eigenvalues --   -0.40493  -0.40331  -0.39778  -0.39642  -0.39310
 Alpha  occ. eigenvalues --   -0.38949  -0.38573  -0.38302  -0.38048  -0.37773
 Alpha  occ. eigenvalues --   -0.37644  -0.37266  -0.36577  -0.36098  -0.35748
 Alpha  occ. eigenvalues --   -0.35467  -0.34762  -0.33804  -0.32061  -0.32012
 Alpha  occ. eigenvalues --   -0.31635  -0.29650  -0.28227  -0.26818  -0.24988
 Alpha  occ. eigenvalues --   -0.21231
 Alpha virt. eigenvalues --   -0.03936   0.00453   0.03097   0.05684   0.07470
 Alpha virt. eigenvalues --    0.09140   0.11042   0.11323   0.11801   0.11929
 Alpha virt. eigenvalues --    0.12320   0.12855   0.13312   0.13767   0.13974

 Mulliken charges:
               1
     1  O   -0.562592
     2  O   -0.562880
     3  C   -0.008734
     4  C   -0.039859
     5  C   -0.176710
     6  C   -0.197599
     7  C    0.163605
     8  C    0.189460
     9  C    0.022456
    10  C    0.073408
    11  C   -0.235320
    12  C   -0.228339
    13  C    0.075658
    14  C    0.052447
    15  C   -0.301020
    16  C   -0.287140
    17  C   -0.284381
    18  C   -0.318296
    19  C   -0.108633
    20  C   -0.163493
    21  C   -0.375673
    22  C   -0.330913
    23  C   -0.108477
    24  C   -0.086487
    25  C    0.076655
    26  C    0.164334
    27  C   -0.351456
    28  C   -0.335244
    29  C   -0.111464
    30  C   -0.127712
    31  C   -0.082281
    32  C   -0.128999
    33  C   -0.115420
    34  C   -0.072824
    35  C    0.118789
    36  C    0.104614
    37  C   -0.378122
    38  C   -0.387725
    39  C   -0.113928
    40  C   -0.149563
    41  C   -0.067903
    42  C   -0.073270
    43  H    0.114044
    44  H    0.072446
    45  H    0.053707
    46  H    0.101356
    47  H    0.065500
    48  H    0.075512
    49  H    0.112058
    50  H    0.119906
    51  H    0.124479
    52  H    0.110574
    53  H    0.105179
    54  H    0.105802
    55  H    0.106324
    56  H    0.080629
    57  H    0.098073
    58  H    0.075955
    59  H    0.091883
    60  H    0.092986
    61  H    0.096502
    62  H    0.106139
    63  H    0.108129
    64  H    0.114688
    65  H    0.094975
    66  H    0.086940
    67  H    0.124684
    68  H    0.122257
    69  H    0.108340
    70  H    0.101585
    71  H    0.141254
    72  H    0.050042
    73  H    0.302032
    74  H    0.301133
    75  H    0.080634
    76  H    0.086920
    77  H    0.118155
    78  H    0.097615
    79  H    0.129473
    80  H    0.118844
    81  H    0.058596
    82  H    0.115379
    83  H    0.082464
    84  H    0.078972
    85  H    0.065863
    86  H    0.082682
    87  H    0.087826
    88  H    0.071433
    89  H    0.102844
    90  H    0.114289
    91  H    0.114135
    92  H    0.123886
    93  H    0.129779
    94  H    0.111180
    95  H    0.060784
    96  H    0.073089
    97  H    0.079405
    98  H    0.081666
 Sum of Mulliken charges =  -0.00000

 Dipole moment (field-independent basis, Debye):
    X=              0.6304    Y=             -0.8183    Z=              1.0883  Tot=              1.5005
 Quadrupole moment (field-independent basis, Debye-Ang):
   XX=           -275.3109   YY=           -247.0681   ZZ=           -259.2919
   XY=             10.7868   XZ=             -7.3180   YZ=              0.4443

 Normal termination of Gaussian 16 at Sun Jul  7 05:31:41 2019.
