 Gaussian 16, Revision A.03,
 Gaussian 16:  ES64L-G16RevA.03 25-Dec-2016

 -------------------------------------
 # td=(NStates=1) CAM-B3LYP/6-31G(d,p)
 -------------------------------------

 --
 TD
 --
 Symbolic Z-matrix:
 Charge =  0 Multiplicity = 1

                         Standard orientation:
 ---------------------------------------------------------------------
 Center     Atomic      Atomic             Coordinates (Angstroms)
 Number     Number       Type             X           Y           Z
 ---------------------------------------------------------------------
      1          8           0       14.670043   -2.115582   -0.408738
      2          8           0      -14.507079    2.327432    0.606308
      3          6           0       11.388400   -1.052931    1.271338
      4          6           0      -12.370430   -0.879611    0.718115
      5          6           0       12.964426   -1.263218    1.102364
      6          6           0      -13.650762    0.021596    0.666922
      7          6           0       13.252289   -1.864506   -0.262040
      8          6           0      -13.333144    1.443267    0.751886
      9          6           0       10.898838   -0.314996   -0.090722
     10          6           0      -11.258207   -0.261949   -0.246458
     11          6           0       13.049837   -0.757203   -1.275087
     12          6           0      -12.579415    1.772258   -0.653929
     13          6           0       11.604590   -0.274364   -1.260089
     14          6           0      -11.442062    0.917196   -0.818454
     15          6           0       11.079709   -0.103351    2.441856
     16          6           0       10.600573   -2.358190    1.375630
     17          6           0      -11.735099   -0.694557    2.162580
     18          6           0      -12.791376   -2.276130    0.492552
     19          6           0        9.532851    0.209776   -0.029762
     20          6           0      -10.090199   -1.087433   -0.430534
     21          6           0       11.163489    0.473607   -2.540760
     22          6           0      -10.403962    1.356660   -1.965098
     23          6           0        9.302778    1.541969   -0.180040
     24          6           0       -8.832170   -0.642379   -0.344023
     25          6           0        8.047702    2.257309    0.146571
     26          6           0       -7.661637   -1.426536   -0.503039
     27          6           0        8.135932    3.683541    0.433422
     28          6           0       -7.571233   -2.948611   -0.715835
     29          6           0        6.846823    1.568283    0.017791
     30          6           0       -6.495112   -0.835524   -0.240954
     31          6           0        5.481075    2.021254    0.116659
     32          6           0       -5.212592   -1.271141   -0.372595
     33          6           0        4.395974    1.231749    0.038737
     34          6           0       -4.033187   -0.591381   -0.145497
     35          6           0        3.027356    1.605355    0.148629
     36          6           0       -2.676160   -0.877412   -0.277041
     37          6           0        2.737117    2.962560    0.809384
     38          6           0       -2.351225   -2.391861   -0.606052
     39          6           0        2.048954    0.727915   -0.300075
     40          6           0       -1.621562    0.004362   -0.240760
     41          6           0        0.707981    0.867047   -0.018775
     42          6           0       -0.199241   -0.161650   -0.310953
     43          1           0       13.641105   -0.391910    1.577990
     44          1           0       13.057915   -1.963659    2.052089
     45          1           0      -14.263057   -0.569323    1.510714
     46          1           0      -14.197873    0.001771   -0.302903
     47          1           0       12.700131   -2.734300   -0.297865
     48          1           0      -12.664481    1.861988    1.613903
     49          1           0       13.777497    0.034887   -1.158482
     50          1           0       13.195175   -1.121632   -2.271327
     51          1           0      -13.322289    1.656614   -1.540758
     52          1           0      -12.383324    2.959444   -0.607715
     53          1           0       11.781108   -0.355752    3.155820
     54          1           0       10.115418    0.027429    2.904970
     55          1           0       11.365125    0.966243    2.079349
     56          1           0       10.873158   -3.182278    0.548179
     57          1           0       10.801930   -2.980425    2.275011
     58          1           0        9.602180   -2.106571    1.446706
     59          1           0      -11.318476    0.338990    2.378541
     60          1           0      -10.762992   -1.267398    2.295079
     61          1           0      -12.407476   -0.956173    3.003708
     62          1           0      -13.429902   -2.366908    1.152260
     63          1           0      -11.973188   -3.015383    0.699584
     64          1           0      -13.169988   -2.387224   -0.512338
     65          1           0        8.902602   -0.356876    0.571280
     66          1           0       -9.969816   -2.212170   -0.622425
     67          1           0       10.391663    1.159491   -2.599543
     68          1           0       12.117121    1.099823   -2.866059
     69          1           0       11.301879   -0.335914   -3.304908
     70          1           0      -11.100179    1.921137   -2.655095
     71          1           0      -10.109765    0.563517   -2.509338
     72          1           0       -9.978891    2.242254   -1.382659
     73          1           0       15.141219   -2.565342    0.426921
     74          1           0      -14.964147    1.592580    1.306187
     75          1           0       10.090221    2.171126   -0.665934
     76          1           0       -8.702550    0.499212   -0.330085
     77          1           0        8.772761    4.182048   -0.460581
     78          1           0        7.249820    4.171798    0.532811
     79          1           0        8.696093    3.686147    1.374660
     80          1           0       -8.091680   -3.322176    0.278229
     81          1           0       -8.212928   -3.287210   -1.455762
     82          1           0       -6.503891   -3.324873   -0.668864
     83          1           0        6.999661    0.579602   -0.564401
     84          1           0       -6.601363    0.332658    0.123355
     85          1           0        5.329714    3.027396    0.204059
     86          1           0       -5.024815   -2.249404   -0.512524
     87          1           0        4.526729    0.166495   -0.099619
     88          1           0       -4.145572    0.649999   -0.323999
     89          1           0        3.328073    2.952206    1.745649
     90          1           0        1.625898    3.252830    0.810868
     91          1           0        3.161337    3.844056    0.387761
     92          1           0       -2.675022   -2.912773    0.118062
     93          1           0       -2.908202   -2.674807   -1.590555
     94          1           0       -1.327529   -2.542186   -0.976383
     95          1           0        2.192265   -0.192560   -0.788772
     96          1           0       -2.090117    1.015492    0.018985
     97          1           0        0.209222    1.666079    0.449195
     98          1           0        0.301262   -0.927531   -0.748771
 ---------------------------------------------------------------------

 SCF Done:  E(RCAM-B3LYP) =  -1706.91754164     A.U. after   15 cycles

 Excitation energies and oscillator strengths:

 Excited State   1:      Singlet-A      2.3735 eV  522.36 nm  f=3.7708  <S**2>=0.000
     155 ->158         0.15769
     156 ->157         0.68731
 This state for optimization and/or second-order correction.
 Total Energy, E(TD-HF/TD-DFT) =  -1706.83031630
 Copying the excited state density for this state as the 1-particle RhoCI density.

 The electronic state is 1-A.
 Alpha  occ. eigenvalues --  -19.22106 -19.20909 -10.31547 -10.30419 -10.28785
 Alpha  occ. eigenvalues --  -10.28210 -10.27910 -10.27426 -10.27241 -10.27088
 Alpha  occ. eigenvalues --  -10.27029 -10.26967 -10.26919 -10.26744 -10.26725
 Alpha  occ. eigenvalues --  -10.26690 -10.26536 -10.26402 -10.26252 -10.26169
 Alpha  occ. eigenvalues --  -10.25999 -10.25989 -10.25857 -10.25847 -10.25774
 Alpha  occ. eigenvalues --  -10.25764 -10.25699 -10.25675 -10.25660 -10.25628
 Alpha  occ. eigenvalues --  -10.25613 -10.25606 -10.25557 -10.25445 -10.25430
 Alpha  occ. eigenvalues --  -10.25293 -10.25168 -10.25148 -10.24728 -10.24636
 Alpha  occ. eigenvalues --  -10.24274 -10.23358  -1.06946  -1.06620  -0.93993
 Alpha  occ. eigenvalues --   -0.92771  -0.92273  -0.92001  -0.90672  -0.89891
 Alpha  occ. eigenvalues --   -0.88129  -0.87488  -0.86659  -0.85707  -0.84846
 Alpha  occ. eigenvalues --   -0.83237  -0.82055  -0.80365  -0.80251  -0.78317
 Alpha  occ. eigenvalues --   -0.77350  -0.76876  -0.76411  -0.76260  -0.75758
 Alpha  occ. eigenvalues --   -0.75449  -0.75262  -0.74949  -0.73795  -0.71049
 Alpha  occ. eigenvalues --   -0.68930  -0.67277  -0.65961  -0.65280  -0.64119
 Alpha  occ. eigenvalues --   -0.63685  -0.63084  -0.62461  -0.60768  -0.59321
 Alpha  occ. eigenvalues --   -0.59305  -0.58669  -0.58026  -0.57742  -0.56199
 Alpha  occ. eigenvalues --   -0.55819  -0.55075  -0.54931  -0.54195  -0.53508
 Alpha  occ. eigenvalues --   -0.52858  -0.52191  -0.52077  -0.51853  -0.51381
 Alpha  occ. eigenvalues --   -0.50679  -0.50488  -0.50173  -0.49859  -0.49717
 Alpha  occ. eigenvalues --   -0.49312  -0.49182  -0.48949  -0.48502  -0.48263
 Alpha  occ. eigenvalues --   -0.47891  -0.47611  -0.47082  -0.46840  -0.46638
 Alpha  occ. eigenvalues --   -0.45931  -0.45682  -0.45384  -0.45200  -0.44984
 Alpha  occ. eigenvalues --   -0.44690  -0.44449  -0.44236  -0.43905  -0.43791
 Alpha  occ. eigenvalues --   -0.43247  -0.43180  -0.43026  -0.42481  -0.42395
 Alpha  occ. eigenvalues --   -0.41748  -0.41608  -0.41397  -0.40914  -0.40666
 Alpha  occ. eigenvalues --   -0.40223  -0.40001  -0.39947  -0.39694  -0.39413
 Alpha  occ. eigenvalues --   -0.38779  -0.38705  -0.38279  -0.38081  -0.37865
 Alpha  occ. eigenvalues --   -0.37308  -0.37050  -0.36494  -0.36243  -0.35437
 Alpha  occ. eigenvalues --   -0.34874  -0.34077  -0.33687  -0.32647  -0.32047
 Alpha  occ. eigenvalues --   -0.31547  -0.29636  -0.28152  -0.26074  -0.23650
 Alpha  occ. eigenvalues --   -0.19781
 Alpha virt. eigenvalues --   -0.05302  -0.00660   0.02836   0.06095   0.08254
 Alpha virt. eigenvalues --    0.09790   0.10367   0.10845   0.11319   0.11770
 Alpha virt. eigenvalues --    0.12384   0.12502   0.12819   0.13492   0.13971

 Mulliken charges:
               1
     1  O   -0.593363
     2  O   -0.546900
     3  C   -0.002090
     4  C   -0.030191
     5  C   -0.218486
     6  C   -0.203636
     7  C    0.207966
     8  C    0.129692
     9  C    0.022574
    10  C    0.077438
    11  C   -0.198577
    12  C   -0.245515
    13  C    0.032376
    14  C    0.036325
    15  C   -0.314575
    16  C   -0.296933
    17  C   -0.316275
    18  C   -0.266896
    19  C   -0.105875
    20  C   -0.167073
    21  C   -0.349121
    22  C   -0.343449
    23  C   -0.105126
    24  C   -0.073185
    25  C    0.073030
    26  C    0.115875
    27  C   -0.349586
    28  C   -0.374978
    29  C   -0.137082
    30  C   -0.107350
    31  C   -0.075406
    32  C   -0.073650
    33  C   -0.111879
    34  C   -0.130304
    35  C    0.108462
    36  C    0.104267
    37  C   -0.380957
    38  C   -0.360198
    39  C   -0.132900
    40  C   -0.135598
    41  C   -0.042881
    42  C   -0.094617
    43  H    0.093958
    44  H    0.064447
    45  H    0.070912
    46  H    0.117939
    47  H    0.097784
    48  H    0.093764
    49  H    0.128634
    50  H    0.103179
    51  H    0.118015
    52  H    0.098634
    53  H    0.104892
    54  H    0.112419
    55  H    0.100724
    56  H    0.089422
    57  H    0.096970
    58  H    0.118252
    59  H    0.105814
    60  H    0.106297
    61  H    0.091417
    62  H    0.104641
    63  H    0.097446
    64  H    0.107670
    65  H    0.086376
    66  H    0.073389
    67  H    0.125355
    68  H    0.090329
    69  H    0.115769
    70  H    0.092142
    71  H    0.137167
    72  H    0.128714
    73  H    0.301750
    74  H    0.297449
    75  H    0.087626
    76  H    0.086821
    77  H    0.101595
    78  H    0.120178
    79  H    0.127566
    80  H    0.108106
    81  H    0.128614
    82  H    0.122823
    83  H    0.086200
    84  H    0.060187
    85  H    0.072698
    86  H    0.068875
    87  H    0.080405
    88  H    0.045352
    89  H    0.125579
    90  H    0.109627
    91  H    0.126844
    92  H    0.131440
    93  H    0.095570
    94  H    0.107964
    95  H    0.085890
    96  H    0.070818
    97  H    0.080431
    98  H    0.073769
 Sum of Mulliken charges =  -0.00000

 Dipole moment (field-independent basis, Debye):
    X=              1.4431    Y=             -1.6234    Z=              1.8255  Tot=              2.8373
 Quadrupole moment (field-independent basis, Debye-Ang):
   XX=           -262.3900   YY=           -248.8271   ZZ=           -259.4230
   XY=             31.2474   XZ=             13.4974   YZ=             -1.2761

 Normal termination of Gaussian 16 at Sat Jun 29 23:20:17 2019.
