 Gaussian 16, Revision A.03,
 Gaussian 16:  ES64L-G16RevA.03 25-Dec-2016

 -------------------------------------
 # td=(NStates=1) CAM-B3LYP/6-31G(d,p)
 -------------------------------------

 --
 TD
 --
 Symbolic Z-matrix:
 Charge =  0 Multiplicity = 1

                         Standard orientation:
 ---------------------------------------------------------------------
 Center     Atomic      Atomic             Coordinates (Angstroms)
 Number     Number       Type             X           Y           Z
 ---------------------------------------------------------------------
      1          8           0       14.687415   -2.264135   -0.608487
      2          8           0      -14.787979    1.875863    0.667384
      3          6           0       11.283964   -1.185071    1.225893
      4          6           0      -12.277107   -0.881776    0.712285
      5          6           0       12.957136   -1.570507    1.082547
      6          6           0      -13.625698   -0.209099    0.730073
      7          6           0       13.295281   -1.926112   -0.308572
      8          6           0      -13.464965    1.283934    0.908694
      9          6           0       10.873454   -0.383104    0.049143
     10          6           0      -11.273395   -0.241927   -0.183607
     11          6           0       12.959078   -0.886496   -1.212858
     12          6           0      -12.784441    1.768828   -0.339623
     13          6           0       11.612419   -0.213211   -1.074332
     14          6           0      -11.505033    1.012756   -0.682333
     15          6           0       11.268677   -0.330725    2.616969
     16          6           0       10.468546   -2.450415    1.360190
     17          6           0      -11.701663   -1.090102    2.139792
     18          6           0      -12.459997   -2.459543    0.286153
     19          6           0        9.584034    0.362127    0.218955
     20          6           0      -10.057079   -0.983551   -0.424961
     21          6           0       11.198254    0.571980   -2.255808
     22          6           0      -10.610170    1.687860   -1.739239
     23          6           0        9.333476    1.723949    0.108363
     24          6           0       -8.804232   -0.513081   -0.302692
     25          6           0        7.936333    2.292199    0.141851
     26          6           0       -7.564040   -1.296809   -0.485494
     27          6           0        8.055481    3.772049    0.446877
     28          6           0       -7.606369   -2.783608   -0.908270
     29          6           0        6.887379    1.513206   -0.150790
     30          6           0       -6.389954   -0.691654   -0.233839
     31          6           0        5.564910    2.093672    0.002942
     32          6           0       -5.059259   -1.053761   -0.447894
     33          6           0        4.355653    1.285949   -0.154240
     34          6           0       -3.964281   -0.340283   -0.279799
     35          6           0        3.048671    1.669290    0.081275
     36          6           0       -2.572634   -0.793056   -0.461788
     37          6           0        2.731694    3.077254    0.596976
     38          6           0       -2.202231   -2.197950   -0.898371
     39          6           0        2.152541    0.748317   -0.218584
     40          6           0       -1.641700    0.060951   -0.255830
     41          6           0        0.640532    0.952347   -0.179132
     42          6           0       -0.162732   -0.064498   -0.322007
     43          1           0       13.484287   -0.579697    1.337634
     44          1           0       13.395973   -2.243411    1.823858
     45          1           0      -14.217853   -0.626033    1.689066
     46          1           0      -14.357232   -0.617101   -0.114924
     47          1           0       12.670435   -2.720963   -0.810788
     48          1           0      -13.026310    1.520437    1.838641
     49          1           0       13.688696   -0.103501   -1.031271
     50          1           0       13.187915   -1.016362   -2.231941
     51          1           0      -13.275998    1.693004   -1.222707
     52          1           0      -12.683371    2.936098   -0.034984
     53          1           0       11.820891   -0.665870    3.448601
     54          1           0       10.090202    0.041138    2.901871
     55          1           0       11.877450    0.663176    2.266557
     56          1           0       10.534082   -2.889580    0.351537
     57          1           0       10.763749   -3.003209    2.185706
     58          1           0        9.351624   -2.199779    1.519155
     59          1           0      -11.683283   -0.151173    2.495685
     60          1           0      -10.806742   -1.499133    2.074509
     61          1           0      -12.268564   -1.962067    2.904701
     62          1           0      -13.178025   -2.878581    0.976180
     63          1           0      -11.502253   -2.979142    0.250260
     64          1           0      -12.975483   -2.555922   -0.727828
     65          1           0        8.724538   -0.143020    0.631230
     66          1           0      -10.064751   -1.975134   -0.758714
     67          1           0       10.254087    1.107470   -2.057806
     68          1           0       11.714179    1.476356   -2.413221
     69          1           0       11.117741    0.060055   -3.094848
     70          1           0      -11.254083    1.823421   -2.602172
     71          1           0       -9.868590    0.929815   -2.233511
     72          1           0      -10.062309    2.735312   -1.365924
     73          1           0       14.854293   -2.875008    0.008205
     74          1           0      -15.354323    1.563042    1.374909
     75          1           0       10.104437    2.555707   -0.095604
     76          1           0       -8.646284    0.455553    0.293184
     77          1           0        8.461270    4.275872   -0.579933
     78          1           0        7.033065    3.967992    0.716210
     79          1           0        8.758103    3.802454    1.384897
     80          1           0       -8.339032   -3.170537   -0.204602
     81          1           0       -8.198186   -3.054606   -1.952756
     82          1           0       -6.719458   -3.165892   -0.918146
     83          1           0        7.145863    0.411258   -0.249032
     84          1           0       -6.486650    0.270367    0.102162
     85          1           0        5.366599    3.224798    0.322731
     86          1           0       -4.793282   -1.997909   -0.977607
     87          1           0        4.505137    0.430781   -0.584304
     88          1           0       -4.137533    0.673220    0.141707
     89          1           0        3.211296    3.035461    1.606093
     90          1           0        1.640883    3.157734    0.754531
     91          1           0        3.244390    3.659513   -0.072095
     92          1           0       -2.517972   -2.975734   -0.319565
     93          1           0       -2.580109   -2.611020   -1.918226
     94          1           0       -1.125863   -2.444701   -1.363302
     95          1           0        2.441886   -0.326153   -0.445625
     96          1           0       -1.995350    1.079386   -0.150006
     97          1           0        0.183025    1.938474    0.137692
     98          1           0        0.414115   -0.932441   -0.610741
 ---------------------------------------------------------------------

 SCF Done:  E(RCAM-B3LYP) =  -1706.94017280     A.U. after   14 cycles

 Excitation energies and oscillator strengths:

 Excited State   1:      Singlet-A      3.0503 eV  406.46 nm  f=3.4630  <S**2>=0.000
     155 ->158        -0.20700
     156 ->157         0.66136
 This state for optimization and/or second-order correction.
 Total Energy, E(TD-HF/TD-DFT) =  -1706.82807537
 Copying the excited state density for this state as the 1-particle RhoCI density.

 The electronic state is 1-A.
 Alpha  occ. eigenvalues --  -19.20683 -19.20486 -10.30390 -10.29833 -10.29256
 Alpha  occ. eigenvalues --  -10.28093 -10.27410 -10.27373 -10.27303 -10.27189
 Alpha  occ. eigenvalues --  -10.26943 -10.26922 -10.26877 -10.26869 -10.26750
 Alpha  occ. eigenvalues --  -10.26703 -10.26557 -10.26462 -10.26450 -10.26377
 Alpha  occ. eigenvalues --  -10.26369 -10.26368 -10.26296 -10.26266 -10.26203
 Alpha  occ. eigenvalues --  -10.26031 -10.25978 -10.25760 -10.25712 -10.25520
 Alpha  occ. eigenvalues --  -10.25515 -10.25417 -10.25350 -10.25242 -10.25183
 Alpha  occ. eigenvalues --  -10.24844 -10.24843 -10.24782 -10.24722 -10.24117
 Alpha  occ. eigenvalues --  -10.23478 -10.22995  -1.10529  -1.08397  -0.93838
 Alpha  occ. eigenvalues --   -0.93745  -0.92578  -0.92007  -0.90723  -0.90339
 Alpha  occ. eigenvalues --   -0.87405  -0.87046  -0.86166  -0.85887  -0.85563
 Alpha  occ. eigenvalues --   -0.83394  -0.82142  -0.80205  -0.79964  -0.78148
 Alpha  occ. eigenvalues --   -0.77256  -0.77045  -0.76903  -0.76354  -0.75887
 Alpha  occ. eigenvalues --   -0.75213  -0.74932  -0.74705  -0.74469  -0.70183
 Alpha  occ. eigenvalues --   -0.68975  -0.67427  -0.66192  -0.64781  -0.64403
 Alpha  occ. eigenvalues --   -0.63758  -0.62438  -0.61727  -0.60847  -0.60122
 Alpha  occ. eigenvalues --   -0.59106  -0.58999  -0.58700  -0.56817  -0.56515
 Alpha  occ. eigenvalues --   -0.55312  -0.55175  -0.54695  -0.54374  -0.54016
 Alpha  occ. eigenvalues --   -0.52964  -0.52824  -0.51844  -0.51655  -0.51190
 Alpha  occ. eigenvalues --   -0.50972  -0.50614  -0.50384  -0.50221  -0.50069
 Alpha  occ. eigenvalues --   -0.49159  -0.49079  -0.48844  -0.48795  -0.48516
 Alpha  occ. eigenvalues --   -0.48097  -0.47349  -0.47105  -0.46569  -0.46303
 Alpha  occ. eigenvalues --   -0.46015  -0.45396  -0.45258  -0.44983  -0.44764
 Alpha  occ. eigenvalues --   -0.44593  -0.44440  -0.44394  -0.44021  -0.43607
 Alpha  occ. eigenvalues --   -0.43208  -0.42797  -0.42444  -0.42387  -0.41512
 Alpha  occ. eigenvalues --   -0.41404  -0.41257  -0.41031  -0.40560  -0.40471
 Alpha  occ. eigenvalues --   -0.40210  -0.40032  -0.39763  -0.39518  -0.39326
 Alpha  occ. eigenvalues --   -0.38951  -0.38906  -0.38736  -0.38218  -0.37996
 Alpha  occ. eigenvalues --   -0.37852  -0.37649  -0.37215  -0.36375  -0.35460
 Alpha  occ. eigenvalues --   -0.34934  -0.34469  -0.33842  -0.32534  -0.32350
 Alpha  occ. eigenvalues --   -0.31817  -0.30132  -0.28022  -0.26998  -0.23790
 Alpha  occ. eigenvalues --   -0.21253
 Alpha virt. eigenvalues --   -0.03108  -0.00448   0.03344   0.05781   0.07949
 Alpha virt. eigenvalues --    0.09336   0.11089   0.11740   0.12299   0.12386
 Alpha virt. eigenvalues --    0.12554   0.12758   0.13388   0.13617   0.13975

 Mulliken charges:
               1
     1  O   -0.542467
     2  O   -0.561023
     3  C   -0.021012
     4  C   -0.048068
     5  C   -0.216130
     6  C   -0.192099
     7  C    0.150273
     8  C    0.145184
     9  C    0.050272
    10  C    0.114167
    11  C   -0.216463
    12  C   -0.175748
    13  C    0.069105
    14  C    0.006030
    15  C   -0.293784
    16  C   -0.281964
    17  C   -0.260084
    18  C   -0.310915
    19  C   -0.143125
    20  C   -0.155848
    21  C   -0.376493
    22  C   -0.346777
    23  C   -0.093968
    24  C   -0.086551
    25  C    0.062331
    26  C    0.097854
    27  C   -0.343893
    28  C   -0.344551
    29  C   -0.095542
    30  C   -0.121959
    31  C   -0.143257
    32  C   -0.074955
    33  C   -0.101062
    34  C   -0.126132
    35  C    0.124569
    36  C    0.165716
    37  C   -0.352083
    38  C   -0.394540
    39  C   -0.169938
    40  C   -0.157944
    41  C   -0.079782
    42  C   -0.065484
    43  H    0.097129
    44  H    0.085893
    45  H    0.055304
    46  H    0.101414
    47  H    0.077985
    48  H    0.107596
    49  H    0.113238
    50  H    0.111108
    51  H    0.139226
    52  H    0.089363
    53  H    0.116849
    54  H    0.077896
    55  H    0.083770
    56  H    0.107029
    57  H    0.111744
    58  H    0.089762
    59  H    0.095499
    60  H    0.120634
    61  H    0.057884
    62  H    0.104816
    63  H    0.102004
    64  H    0.084344
    65  H    0.089169
    66  H    0.085810
    67  H    0.114107
    68  H    0.119928
    69  H    0.124768
    70  H    0.112278
    71  H    0.111509
    72  H    0.095296
    73  H    0.290258
    74  H    0.294965
    75  H    0.083281
    76  H    0.084752
    77  H    0.117855
    78  H    0.111233
    79  H    0.120080
    80  H    0.121806
    81  H    0.090550
    82  H    0.117127
    83  H    0.095121
    84  H    0.067886
    85  H    0.082956
    86  H    0.070593
    87  H    0.067548
    88  H    0.077153
    89  H    0.125099
    90  H    0.111441
    91  H    0.134738
    92  H    0.134031
    93  H    0.101699
    94  H    0.103133
    95  H    0.084331
    96  H    0.080294
    97  H    0.077913
    98  H    0.078947
 Sum of Mulliken charges =  -0.00000

 Dipole moment (field-independent basis, Debye):
    X=              0.4371    Y=             -1.1310    Z=              1.9131  Tot=              2.2650
 Quadrupole moment (field-independent basis, Debye-Ang):
   XX=           -278.8308   YY=           -248.6963   ZZ=           -258.7038
   XY=             12.5643   XZ=              1.1476   YZ=              1.6421

 Normal termination of Gaussian 16 at Wed Jul  3 01:37:50 2019.
