 Gaussian 16, Revision A.03,
 Gaussian 16:  ES64L-G16RevA.03 25-Dec-2016

 -------------------------------------
 # td=(NStates=1) CAM-B3LYP/6-31G(d,p)
 -------------------------------------

 --
 TD
 --
 Symbolic Z-matrix:
 Charge =  0 Multiplicity = 1

                         Standard orientation:
 ---------------------------------------------------------------------
 Center     Atomic      Atomic             Coordinates (Angstroms)
 Number     Number       Type             X           Y           Z
 ---------------------------------------------------------------------
      1          8           0       14.761463   -2.179492   -0.441889
      2          8           0      -14.703726    1.825425    0.912946
      3          6           0       11.387519   -1.102759    1.152108
      4          6           0      -12.171012   -0.965835    0.787473
      5          6           0       12.898928   -1.483766    1.000786
      6          6           0      -13.525797   -0.169869    0.955522
      7          6           0       13.294537   -1.885328   -0.286071
      8          6           0      -13.482168    1.276787    0.823773
      9          6           0       10.934476   -0.273941   -0.074428
     10          6           0      -11.287323   -0.233034   -0.314056
     11          6           0       12.925085   -0.889502   -1.408127
     12          6           0      -12.905880    1.626127   -0.486101
     13          6           0       11.645583   -0.165140   -1.199855
     14          6           0      -11.650714    0.909517   -0.961833
     15          6           0       11.174208   -0.380634    2.436171
     16          6           0       10.606895   -2.393221    1.243930
     17          6           0      -11.483340   -0.983103    2.184454
     18          6           0      -12.586947   -2.284271    0.408942
     19          6           0        9.566950    0.358706    0.146120
     20          6           0      -10.112652   -0.929209   -0.610766
     21          6           0       11.125722    0.608617   -2.437724
     22          6           0      -10.906043    1.637554   -2.108851
     23          6           0        9.381041    1.689585   -0.098790
     24          6           0       -8.770807   -0.512767   -0.509109
     25          6           0        8.029564    2.298083    0.151969
     26          6           0       -7.518100   -1.271869   -0.627936
     27          6           0        8.103555    3.814085    0.470860
     28          6           0       -7.643573   -2.799944   -1.003245
     29          6           0        6.888415    1.538551    0.082430
     30          6           0       -6.361846   -0.556640   -0.386105
     31          6           0        5.510198    2.157136    0.157597
     32          6           0       -5.022222   -1.040301   -0.478443
     33          6           0        4.422656    1.242075    0.097158
     34          6           0       -3.917430   -0.424727   -0.084130
     35          6           0        3.039071    1.564020    0.187644
     36          6           0       -2.562110   -0.805457   -0.301528
     37          6           0        2.733979    3.071016    0.513150
     38          6           0       -2.274573   -2.160691   -0.790491
     39          6           0        2.121303    0.559494   -0.010838
     40          6           0       -1.609828    0.124628   -0.016204
     41          6           0        0.741641    0.783004    0.138300
     42          6           0       -0.259718   -0.182616   -0.124141
     43          1           0       13.371789   -0.561175    1.128902
     44          1           0       13.089889   -2.151042    1.869329
     45          1           0      -13.887649   -0.670406    1.918634
     46          1           0      -14.339909   -0.836342    0.456257
     47          1           0       12.515849   -2.855909   -0.345634
     48          1           0      -12.593876    1.410919    1.550610
     49          1           0       13.641185   -0.173739   -1.265902
     50          1           0       13.002689   -1.535038   -2.235647
     51          1           0      -13.762526    1.626729   -1.205128
     52          1           0      -12.454713    2.726027   -0.464541
     53          1           0       11.725873   -0.979702    3.254400
     54          1           0       10.063686   -0.312642    2.820251
     55          1           0       11.700058    0.658597    2.623487
     56          1           0       10.755093   -3.018621    0.399151
     57          1           0       10.948705   -3.112043    2.109093
     58          1           0        9.494196   -2.347830    1.245567
     59          1           0      -11.413970    0.124602    2.585047
     60          1           0      -10.431343   -1.504164    2.215141
     61          1           0      -11.986891   -1.499994    2.938971
     62          1           0      -13.223677   -2.774128    1.042868
     63          1           0      -11.818731   -3.067474    0.171278
     64          1           0      -13.058622   -2.053501   -0.687957
     65          1           0        8.748303   -0.269748    0.631349
     66          1           0      -10.198379   -2.008027   -0.785757
     67          1           0       10.131048    0.872576   -2.225999
     68          1           0       11.400931    1.558507   -2.415167
     69          1           0       11.149063   -0.059304   -3.312931
     70          1           0      -11.609045    2.115148   -2.823438
     71          1           0      -10.164350    0.921380   -2.585527
     72          1           0      -10.369670    2.457939   -1.840744
     73          1           0       14.818559   -2.865457    0.074961
     74          1           0      -15.024607    1.787537    1.921644
     75          1           0       10.224544    2.278786   -0.648299
     76          1           0       -8.684726    0.499392   -0.292302
     77          1           0        8.848817    4.090214   -0.242775
     78          1           0        7.330090    4.495534    0.096948
     79          1           0        8.411937    3.776926    1.517385
     80          1           0       -8.321082   -3.225957   -0.187198
     81          1           0       -8.231331   -2.756123   -2.021019
     82          1           0       -6.604638   -3.254686   -1.203759
     83          1           0        6.965287    0.494558   -0.343426
     84          1           0       -6.540121    0.396794    0.375999
     85          1           0        5.172012    3.202903    0.466238
     86          1           0       -5.029435   -2.189054   -0.869386
     87          1           0        4.758319    0.249365   -0.323897
     88          1           0       -4.053523    0.727286    0.069930
     89          1           0        3.216296    3.666495    1.360304
     90          1           0        1.698921    3.159736    0.785347
     91          1           0        2.884359    3.858672   -0.096872
     92          1           0       -2.585080   -3.163274   -0.042743
     93          1           0       -2.976281   -2.242474   -1.690808
     94          1           0       -1.292312   -2.342189   -0.964083
     95          1           0        2.670498   -0.410260   -0.223231
     96          1           0       -2.091701    1.112683    0.227545
     97          1           0        0.511498    1.717199    0.570026
     98          1           0        0.161333   -1.099814   -0.568629
 ---------------------------------------------------------------------

 SCF Done:  E(RCAM-B3LYP) =  -1706.93696354     A.U. after   14 cycles

 Excitation energies and oscillator strengths:

 Excited State   1:      Singlet-A      2.4663 eV  502.70 nm  f=3.7228  <S**2>=0.000
     155 ->158         0.15915
     156 ->157         0.68686
 This state for optimization and/or second-order correction.
 Total Energy, E(TD-HF/TD-DFT) =  -1706.84632703
 Copying the excited state density for this state as the 1-particle RhoCI density.

 The electronic state is 1-A.
 Alpha  occ. eigenvalues --  -19.23203 -19.20976 -10.31175 -10.30289 -10.28153
 Alpha  occ. eigenvalues --  -10.28135 -10.27899 -10.27684 -10.27589 -10.27575
 Alpha  occ. eigenvalues --  -10.27422 -10.27247 -10.27228 -10.27104 -10.26984
 Alpha  occ. eigenvalues --  -10.26802 -10.26764 -10.26664 -10.26590 -10.26510
 Alpha  occ. eigenvalues --  -10.26463 -10.26433 -10.26318 -10.26113 -10.26105
 Alpha  occ. eigenvalues --  -10.26031 -10.25990 -10.25955 -10.25774 -10.25678
 Alpha  occ. eigenvalues --  -10.25627 -10.25530 -10.25522 -10.25439 -10.25400
 Alpha  occ. eigenvalues --  -10.25247 -10.25081 -10.24688 -10.24669 -10.24259
 Alpha  occ. eigenvalues --  -10.24157 -10.23460  -1.11894  -1.10524  -0.94480
 Alpha  occ. eigenvalues --   -0.93619  -0.92488  -0.91000  -0.89817  -0.89486
 Alpha  occ. eigenvalues --   -0.87721  -0.87372  -0.86603  -0.85712  -0.84972
 Alpha  occ. eigenvalues --   -0.83161  -0.81509  -0.80350  -0.79860  -0.78662
 Alpha  occ. eigenvalues --   -0.77767  -0.76734  -0.76132  -0.76114  -0.75914
 Alpha  occ. eigenvalues --   -0.75835  -0.75476  -0.74804  -0.73586  -0.70614
 Alpha  occ. eigenvalues --   -0.68526  -0.67273  -0.65110  -0.64411  -0.64337
 Alpha  occ. eigenvalues --   -0.63617  -0.62179  -0.61693  -0.60616  -0.59832
 Alpha  occ. eigenvalues --   -0.59097  -0.58829  -0.58265  -0.57391  -0.56214
 Alpha  occ. eigenvalues --   -0.55957  -0.55075  -0.54620  -0.54459  -0.53798
 Alpha  occ. eigenvalues --   -0.53185  -0.53007  -0.52626  -0.52015  -0.51405
 Alpha  occ. eigenvalues --   -0.50934  -0.50677  -0.50038  -0.49529  -0.49291
 Alpha  occ. eigenvalues --   -0.48866  -0.48676  -0.48221  -0.48071  -0.47665
 Alpha  occ. eigenvalues --   -0.47230  -0.47143  -0.46970  -0.46847  -0.46432
 Alpha  occ. eigenvalues --   -0.45815  -0.45555  -0.45279  -0.45005  -0.44923
 Alpha  occ. eigenvalues --   -0.44668  -0.44080  -0.43896  -0.43789  -0.43347
 Alpha  occ. eigenvalues --   -0.43054  -0.42778  -0.42353  -0.41980  -0.41830
 Alpha  occ. eigenvalues --   -0.41665  -0.41137  -0.40947  -0.40824  -0.40459
 Alpha  occ. eigenvalues --   -0.40396  -0.39886  -0.39740  -0.39677  -0.39275
 Alpha  occ. eigenvalues --   -0.39227  -0.38896  -0.38858  -0.38695  -0.37536
 Alpha  occ. eigenvalues --   -0.37354  -0.36947  -0.36419  -0.36276  -0.35490
 Alpha  occ. eigenvalues --   -0.34699  -0.34298  -0.33502  -0.32593  -0.32107
 Alpha  occ. eigenvalues --   -0.31732  -0.29886  -0.28626  -0.26366  -0.23710
 Alpha  occ. eigenvalues --   -0.19764
 Alpha virt. eigenvalues --   -0.04836  -0.00276   0.02773   0.06122   0.08016
 Alpha virt. eigenvalues --    0.09629   0.10085   0.10928   0.11258   0.11758
 Alpha virt. eigenvalues --    0.11817   0.12192   0.12758   0.12818   0.13369

 Mulliken charges:
               1
     1  O   -0.531447
     2  O   -0.550399
     3  C   -0.019546
     4  C    0.003748
     5  C   -0.163539
     6  C   -0.197987
     7  C    0.109312
     8  C    0.208418
     9  C    0.062149
    10  C    0.048116
    11  C   -0.201020
    12  C   -0.218956
    13  C    0.008457
    14  C    0.063412
    15  C   -0.287486
    16  C   -0.304026
    17  C   -0.293372
    18  C   -0.300785
    19  C   -0.112694
    20  C   -0.155871
    21  C   -0.362746
    22  C   -0.367453
    23  C   -0.108781
    24  C   -0.083658
    25  C    0.036955
    26  C    0.090844
    27  C   -0.351171
    28  C   -0.354206
    29  C   -0.129380
    30  C   -0.139164
    31  C   -0.092374
    32  C   -0.081522
    33  C   -0.134033
    34  C   -0.126745
    35  C    0.126134
    36  C    0.134638
    37  C   -0.397311
    38  C   -0.344768
    39  C   -0.116996
    40  C   -0.105131
    41  C   -0.094519
    42  C   -0.111823
    43  H    0.099621
    44  H    0.085874
    45  H    0.066413
    46  H    0.082549
    47  H    0.035870
    48  H    0.065373
    49  H    0.134998
    50  H    0.127243
    51  H    0.115871
    52  H    0.084787
    53  H    0.084747
    54  H    0.099003
    55  H    0.093227
    56  H    0.111520
    57  H    0.086157
    58  H    0.099669
    59  H    0.084520
    60  H    0.091408
    61  H    0.108952
    62  H    0.109889
    63  H    0.089961
    64  H    0.090431
    65  H    0.102771
    66  H    0.075264
    67  H    0.121172
    68  H    0.125004
    69  H    0.113626
    70  H    0.110424
    71  H    0.117338
    72  H    0.131779
    73  H    0.292710
    74  H    0.317696
    75  H    0.090481
    76  H    0.074522
    77  H    0.116327
    78  H    0.113999
    79  H    0.140191
    80  H    0.131549
    81  H    0.117712
    82  H    0.110100
    83  H    0.093344
    84  H    0.078785
    85  H    0.088326
    86  H    0.065330
    87  H    0.071618
    88  H    0.072431
    89  H    0.108130
    90  H    0.106550
    91  H    0.138847
    92  H    0.080284
    93  H    0.117032
    94  H    0.115538
    95  H    0.088953
    96  H    0.088668
    97  H    0.086497
    98  H    0.095649
 Sum of Mulliken charges =  -0.00000

 Dipole moment (field-independent basis, Debye):
    X=             -1.1453    Y=             -0.5073    Z=              1.8724  Tot=              2.2528
 Quadrupole moment (field-independent basis, Debye-Ang):
   XX=           -283.1792   YY=           -240.7946   ZZ=           -260.1252
   XY=              5.0139   XZ=            -10.8242   YZ=              0.5454

 Normal termination of Gaussian 16 at Sat Jun 29 21:49:43 2019.
