 Gaussian 16, Revision A.03,
 Gaussian 16:  ES64L-G16RevA.03 25-Dec-2016

 -------------------------------------
 # td=(NStates=1) CAM-B3LYP/6-31G(d,p)
 -------------------------------------

 --
 TD
 --
 Symbolic Z-matrix:
 Charge =  0 Multiplicity = 1

                         Standard orientation:
 ---------------------------------------------------------------------
 Center     Atomic      Atomic             Coordinates (Angstroms)
 Number     Number       Type             X           Y           Z
 ---------------------------------------------------------------------
      1          8           0       14.630387   -2.240449   -0.541622
      2          8           0      -14.986145    1.881865    0.620013
      3          6           0       11.450592   -1.249705    1.108705
      4          6           0      -12.378313   -0.926886    0.696181
      5          6           0       12.930348   -1.514354    0.949481
      6          6           0      -13.757237   -0.256050    0.690395
      7          6           0       13.268522   -1.901387   -0.417262
      8          6           0      -13.636422    1.212457    0.683380
      9          6           0       10.974962   -0.293042    0.071615
     10          6           0      -11.289927   -0.222309   -0.160940
     11          6           0       13.076969   -0.760176   -1.324324
     12          6           0      -12.831124    1.728282   -0.465340
     13          6           0       11.685193   -0.064710   -1.095802
     14          6           0      -11.591181    0.957088   -0.782991
     15          6           0       11.185484   -0.627139    2.484538
     16          6           0       10.546130   -2.527832    1.057953
     17          6           0      -11.851902   -0.894388    2.093053
     18          6           0      -12.553591   -2.408850    0.307236
     19          6           0        9.719618    0.407237    0.319780
     20          6           0      -10.078982   -0.957192   -0.408379
     21          6           0       11.341215    0.907794   -2.142514
     22          6           0      -10.645191    1.609524   -1.631685
     23          6           0        9.424763    1.733096   -0.015470
     24          6           0       -8.857400   -0.573937   -0.255031
     25          6           0        8.084887    2.269954    0.192357
     26          6           0       -7.576274   -1.321198   -0.403294
     27          6           0        8.078701    3.631179    0.643528
     28          6           0       -7.733323   -2.729415   -0.848663
     29          6           0        6.962108    1.579467   -0.022680
     30          6           0       -6.427854   -0.558987   -0.349910
     31          6           0        5.570633    1.933580    0.294364
     32          6           0       -5.082210   -1.037701   -0.502826
     33          6           0        4.529782    1.148201   -0.037674
     34          6           0       -4.002800   -0.292283   -0.214555
     35          6           0        3.197379    1.585637    0.096231
     36          6           0       -2.602625   -0.780739   -0.405998
     37          6           0        2.878276    3.013130    0.566292
     38          6           0       -2.341497   -2.089821   -0.886627
     39          6           0        2.226793    0.678381   -0.146109
     40          6           0       -1.571131    0.066901   -0.192401
     41          6           0        0.756932    0.809895   -0.047699
     42          6           0       -0.102947   -0.118586   -0.209543
     43          1           0       13.735864   -0.732464    1.216444
     44          1           0       13.236897   -2.318187    1.487420
     45          1           0      -14.318784   -0.679265    1.539374
     46          1           0      -14.351314   -0.542531   -0.230349
     47          1           0       12.622982   -2.834645   -0.886927
     48          1           0      -13.232207    1.594750    1.766769
     49          1           0       13.862838    0.115507   -1.093669
     50          1           0       13.077249   -1.163556   -2.397860
     51          1           0      -13.598156    1.600283   -1.423366
     52          1           0      -12.888353    2.815209   -0.211364
     53          1           0       11.509453   -1.198706    3.248372
     54          1           0       10.097053   -0.335454    2.552804
     55          1           0       12.042663    0.105197    2.570526
     56          1           0       10.525352   -3.046181    0.158478
     57          1           0       10.874026   -3.147051    1.896123
     58          1           0        9.684568   -2.258410    1.319277
     59          1           0      -11.498483   -0.059592    2.685897
     60          1           0      -10.989849   -1.759723    2.260513
     61          1           0      -12.512330   -1.513728    2.678034
     62          1           0      -13.312306   -2.839049    0.795770
     63          1           0      -11.527127   -2.935143    0.157413
     64          1           0      -12.911257   -2.352868   -0.795114
     65          1           0        8.777095   -0.071317    0.892079
     66          1           0      -10.193711   -2.093286   -0.631915
     67          1           0       10.149249    1.070945   -2.192204
     68          1           0       11.737155    2.063930   -1.876077
     69          1           0       11.801146    0.649637   -3.121874
     70          1           0      -11.146107    2.178011   -2.299027
     71          1           0       -9.791589    1.154645   -2.170112
     72          1           0       -9.992791    2.525762   -1.195265
     73          1           0       14.760999   -2.994520   -0.068973
     74          1           0      -15.579352    1.540664    1.509940
     75          1           0       10.122639    2.324891   -0.393789
     76          1           0       -8.610242    0.481413   -0.028651
     77          1           0        8.900659    4.179712   -0.032841
     78          1           0        7.042342    4.018511    0.230985
     79          1           0        8.181798    3.945422    1.889510
     80          1           0       -8.471617   -3.237143   -0.262139
     81          1           0       -7.881444   -2.736352   -1.899352
     82          1           0       -6.766767   -3.157933   -0.730983
     83          1           0        6.983631    0.524353   -0.400274
     84          1           0       -6.530926    0.526633   -0.286085
     85          1           0        5.580801    3.028540    0.648519
     86          1           0       -4.918016   -1.938946   -0.966390
     87          1           0        4.584422    0.142243   -0.592383
     88          1           0       -4.186168    0.762232    0.158656
     89          1           0        3.232122    3.459711    1.396046
     90          1           0        1.761357    3.109037    0.671724
     91          1           0        3.293692    3.937423   -0.107599
     92          1           0       -2.578588   -3.030872   -0.012049
     93          1           0       -3.172546   -2.481342   -1.712991
     94          1           0       -1.293460   -2.143846   -1.201009
     95          1           0        2.428888   -0.388665   -0.591933
     96          1           0       -1.837013    1.233736   -0.008346
     97          1           0        0.359197    1.909311    0.251035
     98          1           0        0.106294   -1.128965   -0.512167
 ---------------------------------------------------------------------

 SCF Done:  E(RCAM-B3LYP) =  -1706.93610715     A.U. after   14 cycles

 Excitation energies and oscillator strengths:

 Excited State   1:      Singlet-A      3.0578 eV  405.47 nm  f=3.5652  <S**2>=0.000
     155 ->158        -0.21690
     156 ->157         0.65996
 This state for optimization and/or second-order correction.
 Total Energy, E(TD-HF/TD-DFT) =  -1706.82373511
 Copying the excited state density for this state as the 1-particle RhoCI density.

 The electronic state is 1-A.
 Alpha  occ. eigenvalues --  -19.21555 -19.20586 -10.31181 -10.30542 -10.28420
 Alpha  occ. eigenvalues --  -10.28265 -10.27879 -10.27523 -10.27395 -10.27349
 Alpha  occ. eigenvalues --  -10.27299 -10.27278 -10.27238 -10.27227 -10.27143
 Alpha  occ. eigenvalues --  -10.27016 -10.26935 -10.26914 -10.26815 -10.26743
 Alpha  occ. eigenvalues --  -10.26713 -10.26513 -10.26435 -10.26374 -10.26195
 Alpha  occ. eigenvalues --  -10.26188 -10.26168 -10.25879 -10.25870 -10.25467
 Alpha  occ. eigenvalues --  -10.25440 -10.25364 -10.25208 -10.25120 -10.25094
 Alpha  occ. eigenvalues --  -10.25080 -10.24744 -10.24711 -10.24345 -10.24155
 Alpha  occ. eigenvalues --  -10.23880 -10.22654  -1.11590  -1.04436  -0.94371
 Alpha  occ. eigenvalues --   -0.94119  -0.92587  -0.92058  -0.91094  -0.90500
 Alpha  occ. eigenvalues --   -0.88177  -0.87780  -0.87040  -0.86044  -0.85622
 Alpha  occ. eigenvalues --   -0.83819  -0.82700  -0.80950  -0.80146  -0.77716
 Alpha  occ. eigenvalues --   -0.77610  -0.77138  -0.76207  -0.76099  -0.76048
 Alpha  occ. eigenvalues --   -0.75993  -0.75625  -0.75277  -0.73835  -0.70134
 Alpha  occ. eigenvalues --   -0.68465  -0.67168  -0.65236  -0.64556  -0.64094
 Alpha  occ. eigenvalues --   -0.63700  -0.62692  -0.61605  -0.60621  -0.59990
 Alpha  occ. eigenvalues --   -0.58858  -0.58826  -0.57925  -0.57046  -0.56317
 Alpha  occ. eigenvalues --   -0.56012  -0.55814  -0.54796  -0.54642  -0.53928
 Alpha  occ. eigenvalues --   -0.53606  -0.52951  -0.52697  -0.52302  -0.51200
 Alpha  occ. eigenvalues --   -0.50416  -0.50276  -0.50112  -0.49769  -0.49494
 Alpha  occ. eigenvalues --   -0.49007  -0.48650  -0.48216  -0.47571  -0.47354
 Alpha  occ. eigenvalues --   -0.47216  -0.47055  -0.46987  -0.46668  -0.46421
 Alpha  occ. eigenvalues --   -0.46305  -0.46011  -0.45941  -0.45504  -0.45003
 Alpha  occ. eigenvalues --   -0.44574  -0.44465  -0.44050  -0.43907  -0.43501
 Alpha  occ. eigenvalues --   -0.43135  -0.42921  -0.42406  -0.42340  -0.42235
 Alpha  occ. eigenvalues --   -0.41909  -0.41502  -0.41444  -0.41325  -0.40011
 Alpha  occ. eigenvalues --   -0.39828  -0.39751  -0.39713  -0.39379  -0.39230
 Alpha  occ. eigenvalues --   -0.38788  -0.38300  -0.38111  -0.37815  -0.37770
 Alpha  occ. eigenvalues --   -0.37426  -0.37053  -0.36577  -0.36545  -0.36475
 Alpha  occ. eigenvalues --   -0.35781  -0.34780  -0.33474  -0.32698  -0.31978
 Alpha  occ. eigenvalues --   -0.31601  -0.29794  -0.27795  -0.26312  -0.24043
 Alpha  occ. eigenvalues --   -0.21918
 Alpha virt. eigenvalues --   -0.03671  -0.00521   0.02449   0.05107   0.07195
 Alpha virt. eigenvalues --    0.09137   0.09217   0.10740   0.11356   0.12021
 Alpha virt. eigenvalues --    0.12383   0.12495   0.12572   0.12937   0.13072

 Mulliken charges:
               1
     1  O   -0.540331
     2  O   -0.582659
     3  C   -0.054564
     4  C   -0.034167
     5  C   -0.175787
     6  C   -0.170780
     7  C    0.151945
     8  C    0.163975
     9  C    0.115700
    10  C    0.067943
    11  C   -0.190807
    12  C   -0.229873
    13  C    0.047810
    14  C    0.101540
    15  C   -0.294430
    16  C   -0.282433
    17  C   -0.289533
    18  C   -0.300674
    19  C   -0.141800
    20  C   -0.149948
    21  C   -0.361922
    22  C   -0.375194
    23  C   -0.088057
    24  C   -0.058404
    25  C    0.089137
    26  C    0.088863
    27  C   -0.354382
    28  C   -0.370006
    29  C   -0.110333
    30  C   -0.140024
    31  C   -0.098342
    32  C   -0.070142
    33  C   -0.109606
    34  C   -0.102784
    35  C    0.150860
    36  C    0.155696
    37  C   -0.367005
    38  C   -0.368337
    39  C   -0.157875
    40  C   -0.151263
    41  C   -0.074998
    42  C   -0.059516
    43  H    0.102504
    44  H    0.079243
    45  H    0.082535
    46  H    0.097805
    47  H    0.054280
    48  H    0.064074
    49  H    0.107741
    50  H    0.101541
    51  H    0.099196
    52  H    0.129916
    53  H    0.103438
    54  H    0.106959
    55  H    0.092378
    56  H    0.106986
    57  H    0.091195
    58  H    0.111100
    59  H    0.118711
    60  H    0.068698
    61  H    0.093156
    62  H    0.112505
    63  H    0.097082
    64  H    0.091464
    65  H    0.086757
    66  H    0.067767
    67  H    0.117726
    68  H    0.088313
    69  H    0.104974
    70  H    0.114789
    71  H    0.123485
    72  H    0.083384
    73  H    0.291381
    74  H    0.298254
    75  H    0.081766
    76  H    0.074184
    77  H    0.097732
    78  H    0.093779
    79  H    0.099959
    80  H    0.121107
    81  H    0.139764
    82  H    0.110177
    83  H    0.072381
    84  H    0.087583
    85  H    0.083062
    86  H    0.071936
    87  H    0.094329
    88  H    0.083361
    89  H    0.138823
    90  H    0.101255
    91  H    0.092356
    92  H    0.078689
    93  H    0.101205
    94  H    0.114666
    95  H    0.079115
    96  H    0.062076
    97  H    0.076580
    98  H    0.077280
 Sum of Mulliken charges =  -0.00000

 Dipole moment (field-independent basis, Debye):
    X=              0.6494    Y=             -1.9582    Z=              1.3921  Tot=              2.4888
 Quadrupole moment (field-independent basis, Debye-Ang):
   XX=           -277.9442   YY=           -246.2710   ZZ=           -261.0197
   XY=             10.8109   XZ=             -2.0628   YZ=              2.2867

 Normal termination of Gaussian 16 at Mon Jul  1 17:49:17 2019.
