 Gaussian 16, Revision A.03,
 Gaussian 16:  ES64L-G16RevA.03 25-Dec-2016

 -------------------------------------
 # td=(NStates=1) CAM-B3LYP/6-31G(d,p)
 -------------------------------------

 --
 TD
 --
 Symbolic Z-matrix:
 Charge =  0 Multiplicity = 1

                         Standard orientation:
 ---------------------------------------------------------------------
 Center     Atomic      Atomic             Coordinates (Angstroms)
 Number     Number       Type             X           Y           Z
 ---------------------------------------------------------------------
      1          8           0       14.645969   -2.478382   -0.453714
      2          8           0      -14.821804    1.932588    0.794751
      3          6           0       11.456766   -0.930961    1.289439
      4          6           0      -12.278902   -0.982330    0.964181
      5          6           0       13.003036   -1.390401    1.045669
      6          6           0      -13.627582   -0.229356    1.043075
      7          6           0       13.309570   -2.119151   -0.248296
      8          6           0      -13.512120    1.273398    0.719229
      9          6           0       10.980572   -0.248237    0.080215
     10          6           0      -11.398854   -0.356764   -0.243213
     11          6           0       12.916039   -1.022143   -1.336864
     12          6           0      -12.924834    1.565091   -0.647577
     13          6           0       11.603405   -0.261058   -1.124994
     14          6           0      -11.617100    0.818489   -0.909581
     15          6           0       11.402267   -0.137436    2.493047
     16          6           0       10.612273   -2.237464    1.406110
     17          6           0      -11.596390   -0.849797    2.304021
     18          6           0      -12.446328   -2.485398    0.654843
     19          6           0        9.644836    0.442637    0.184035
     20          6           0      -10.134611   -1.055704   -0.357442
     21          6           0       11.128868    0.291827   -2.385943
     22          6           0      -10.838016    1.398475   -2.061723
     23          6           0        9.384561    1.710319   -0.183256
     24          6           0       -8.907608   -0.541825   -0.307722
     25          6           0        8.091812    2.298877    0.064129
     26          6           0       -7.615895   -1.230110   -0.535153
     27          6           0        8.116322    3.774882    0.522234
     28          6           0       -7.792128   -2.756149   -0.839755
     29          6           0        6.960739    1.576258    0.014433
     30          6           0       -6.412797   -0.517128   -0.481397
     31          6           0        5.578495    2.134806    0.217456
     32          6           0       -5.096015   -0.989530   -0.536703
     33          6           0        4.560370    1.240277   -0.025372
     34          6           0       -4.032334   -0.205468   -0.499978
     35          6           0        3.205296    1.595989    0.047009
     36          6           0       -2.619286   -0.712127   -0.656149
     37          6           0        2.823884    3.028059    0.526945
     38          6           0       -2.265804   -2.207678   -0.746864
     39          6           0        2.144317    0.712861   -0.242255
     40          6           0       -1.588649    0.251038   -0.340653
     41          6           0        0.773978    0.990237   -0.028050
     42          6           0       -0.208235   -0.002391   -0.300142
     43          1           0       13.685480   -0.578863    1.240493
     44          1           0       13.194671   -2.256801    1.730936
     45          1           0      -14.193020   -0.233980    1.902925
     46          1           0      -14.312156   -0.561381    0.265019
     47          1           0       12.533218   -2.995238   -0.422147
     48          1           0      -12.974555    1.836191    1.587435
     49          1           0       13.879567   -0.382816   -1.270988
     50          1           0       12.775522   -1.491450   -2.331187
     51          1           0      -13.630236    1.200550   -1.375306
     52          1           0      -12.728678    2.733858   -0.720572
     53          1           0       11.811824   -0.772162    3.382326
     54          1           0       10.435977    0.048490    2.804639
     55          1           0       11.835380    0.722482    2.444494
     56          1           0       10.902918   -2.647349    0.227604
     57          1           0       11.048338   -3.096764    2.070996
     58          1           0        9.532452   -2.141218    1.624461
     59          1           0      -11.269567    0.305553    2.654926
     60          1           0      -10.575402   -1.356514    2.374513
     61          1           0      -12.187450   -1.130566    3.028050
     62          1           0      -13.318200   -2.829707    1.398013
     63          1           0      -11.538826   -3.099071    0.949825
     64          1           0      -12.726383   -2.615336   -0.314234
     65          1           0        8.967141   -0.106816    0.670963
     66          1           0      -10.367835   -2.067235   -0.380313
     67          1           0       10.092867    0.647541   -2.144531
     68          1           0       11.773660    1.236522   -2.675940
     69          1           0       11.286886   -0.559361   -3.117186
     70          1           0      -11.682670    1.265859   -2.990572
     71          1           0      -10.072300    0.704957   -2.139948
     72          1           0      -10.589135    2.472947   -1.947787
     73          1           0       14.897697   -3.033002    0.399697
     74          1           0      -15.186450    1.591243    1.571299
     75          1           0       10.193510    2.403864   -0.492247
     76          1           0       -8.882396    0.604618   -0.225279
     77          1           0        9.049773    4.472262    0.227834
     78          1           0        7.173729    4.079109    0.223609
     79          1           0        8.037087    3.736211    1.722207
     80          1           0       -8.366246   -3.245943    0.260903
     81          1           0       -8.409679   -2.973583   -1.585050
     82          1           0       -6.817062   -3.345284   -0.784277
     83          1           0        6.977912    0.521919   -0.343520
     84          1           0       -6.656385    0.630223   -0.522558
     85          1           0        5.484641    3.209143    0.511749
     86          1           0       -4.971851   -2.072697   -0.642095
     87          1           0        4.758541    0.178717   -0.332277
     88          1           0       -4.222649    0.985841   -0.791667
     89          1           0        3.361880    3.305822    1.449645
     90          1           0        1.746144    3.141646    0.971946
     91          1           0        2.961235    3.782904   -0.263200
     92          1           0       -2.673858   -2.781938   -0.053279
     93          1           0       -2.946959   -2.589879   -1.628741
     94          1           0       -1.130174   -2.303204   -1.078499
     95          1           0        2.173976   -0.378805   -0.579074
     96          1           0       -1.892600    1.303858   -0.104023
     97          1           0        0.360069    2.095921    0.414714
     98          1           0        0.093794   -1.014407   -0.804928
 ---------------------------------------------------------------------

 SCF Done:  E(RCAM-B3LYP) =  -1706.95992474     A.U. after   15 cycles

 Excitation energies and oscillator strengths:

 Excited State   1:      Singlet-A      2.3691 eV  523.33 nm  f=3.6049  <S**2>=0.000
     155 ->158         0.14501
     156 ->157         0.69116
 This state for optimization and/or second-order correction.
 Total Energy, E(TD-HF/TD-DFT) =  -1706.87286091
 Copying the excited state density for this state as the 1-particle RhoCI density.

 The electronic state is 1-A.
 Alpha  occ. eigenvalues --  -19.22990 -19.19968 -10.30996 -10.30615 -10.28827
 Alpha  occ. eigenvalues --  -10.28656 -10.28373 -10.28317 -10.27980 -10.27704
 Alpha  occ. eigenvalues --  -10.27595 -10.27539 -10.27488 -10.27423 -10.27289
 Alpha  occ. eigenvalues --  -10.27170 -10.27101 -10.27048 -10.26997 -10.26928
 Alpha  occ. eigenvalues --  -10.26826 -10.26727 -10.26721 -10.26542 -10.26346
 Alpha  occ. eigenvalues --  -10.26163 -10.25988 -10.25953 -10.25896 -10.25881
 Alpha  occ. eigenvalues --  -10.25843 -10.25826 -10.25537 -10.25475 -10.25318
 Alpha  occ. eigenvalues --  -10.25240 -10.25229 -10.25175 -10.25057 -10.24984
 Alpha  occ. eigenvalues --  -10.24724 -10.22814  -1.09588  -1.08725  -0.94054
 Alpha  occ. eigenvalues --   -0.93242  -0.91583  -0.90976  -0.90221  -0.89027
 Alpha  occ. eigenvalues --   -0.87586  -0.87345  -0.86848  -0.85302  -0.84224
 Alpha  occ. eigenvalues --   -0.83026  -0.81554  -0.80320  -0.79819  -0.77857
 Alpha  occ. eigenvalues --   -0.77262  -0.76710  -0.76096  -0.75946  -0.75475
 Alpha  occ. eigenvalues --   -0.75036  -0.74894  -0.74111  -0.72850  -0.70369
 Alpha  occ. eigenvalues --   -0.68497  -0.67122  -0.64984  -0.64596  -0.64052
 Alpha  occ. eigenvalues --   -0.63769  -0.62832  -0.60745  -0.60192  -0.59517
 Alpha  occ. eigenvalues --   -0.59407  -0.58119  -0.57377  -0.57016  -0.55826
 Alpha  occ. eigenvalues --   -0.55323  -0.54843  -0.54609  -0.53845  -0.53217
 Alpha  occ. eigenvalues --   -0.52510  -0.52446  -0.51995  -0.51840  -0.51423
 Alpha  occ. eigenvalues --   -0.51197  -0.50080  -0.49535  -0.49468  -0.49373
 Alpha  occ. eigenvalues --   -0.49078  -0.48784  -0.48540  -0.48216  -0.48193
 Alpha  occ. eigenvalues --   -0.47822  -0.47600  -0.47400  -0.46913  -0.46228
 Alpha  occ. eigenvalues --   -0.45870  -0.45640  -0.45469  -0.44970  -0.44858
 Alpha  occ. eigenvalues --   -0.44617  -0.44583  -0.44144  -0.43720  -0.43507
 Alpha  occ. eigenvalues --   -0.43246  -0.42689  -0.42510  -0.42412  -0.42031
 Alpha  occ. eigenvalues --   -0.41382  -0.41259  -0.41064  -0.40868  -0.40435
 Alpha  occ. eigenvalues --   -0.39929  -0.39914  -0.39816  -0.39515  -0.39303
 Alpha  occ. eigenvalues --   -0.39282  -0.39048  -0.38590  -0.38499  -0.38193
 Alpha  occ. eigenvalues --   -0.37911  -0.37390  -0.36652  -0.36112  -0.35784
 Alpha  occ. eigenvalues --   -0.34679  -0.34034  -0.33592  -0.32406  -0.32080
 Alpha  occ. eigenvalues --   -0.31538  -0.29499  -0.28190  -0.26216  -0.23991
 Alpha  occ. eigenvalues --   -0.19781
 Alpha virt. eigenvalues --   -0.05363  -0.00403   0.02587   0.05840   0.07473
 Alpha virt. eigenvalues --    0.09105   0.10283   0.10647   0.10936   0.11399
 Alpha virt. eigenvalues --    0.11719   0.12160   0.12556   0.12981   0.13175

 Mulliken charges:
               1
     1  O   -0.549069
     2  O   -0.561423
     3  C   -0.030731
     4  C    0.011964
     5  C   -0.185960
     6  C   -0.199404
     7  C    0.164869
     8  C    0.147708
     9  C    0.074714
    10  C    0.023552
    11  C   -0.221203
    12  C   -0.201819
    13  C    0.053935
    14  C    0.026102
    15  C   -0.282113
    16  C   -0.289393
    17  C   -0.283957
    18  C   -0.308287
    19  C   -0.109303
    20  C   -0.121890
    21  C   -0.345205
    22  C   -0.326130
    23  C   -0.109999
    24  C   -0.097910
    25  C    0.069048
    26  C    0.093530
    27  C   -0.354645
    28  C   -0.340468
    29  C   -0.118171
    30  C   -0.129512
    31  C   -0.103859
    32  C   -0.065876
    33  C   -0.100555
    34  C   -0.102360
    35  C    0.086961
    36  C    0.049561
    37  C   -0.370780
    38  C   -0.351174
    39  C   -0.129143
    40  C   -0.099669
    41  C   -0.069217
    42  C   -0.101870
    43  H    0.107398
    44  H    0.064228
    45  H    0.082113
    46  H    0.102484
    47  H    0.063835
    48  H    0.072023
    49  H    0.108031
    50  H    0.090035
    51  H    0.122043
    52  H    0.094457
    53  H    0.082677
    54  H    0.105712
    55  H    0.111763
    56  H    0.072881
    57  H    0.090491
    58  H    0.108443
    59  H    0.072202
    60  H    0.102910
    61  H    0.115809
    62  H    0.082178
    63  H    0.110627
    64  H    0.122921
    65  H    0.083924
    66  H    0.077790
    67  H    0.116577
    68  H    0.103299
    69  H    0.103874
    70  H    0.081513
    71  H    0.124622
    72  H    0.120329
    73  H    0.308445
    74  H    0.294413
    75  H    0.093040
    76  H    0.079688
    77  H    0.106652
    78  H    0.124902
    79  H    0.109365
    80  H    0.058869
    81  H    0.142764
    82  H    0.105982
    83  H    0.087177
    84  H    0.077548
    85  H    0.103836
    86  H    0.079752
    87  H    0.091629
    88  H    0.082818
    89  H    0.116745
    90  H    0.096682
    91  H    0.128265
    92  H    0.145878
    93  H    0.095141
    94  H    0.108670
    95  H    0.087970
    96  H    0.084510
    97  H    0.077924
    98  H    0.073295
 Sum of Mulliken charges =  -0.00000

 Dipole moment (field-independent basis, Debye):
    X=              0.5269    Y=             -1.3536    Z=              2.3834  Tot=              2.7911
 Quadrupole moment (field-independent basis, Debye-Ang):
   XX=           -281.5002   YY=           -246.7087   ZZ=           -262.5382
   XY=             24.7517   XZ=             10.9587   YZ=             -0.3999

 Normal termination of Gaussian 16 at Sun Jul  7 01:09:23 2019.
