 Gaussian 16, Revision A.03,
 Gaussian 16:  ES64L-G16RevA.03 25-Dec-2016

 -------------------------------------
 # td=(NStates=1) CAM-B3LYP/6-31G(d,p)
 -------------------------------------

 --
 TD
 --
 Symbolic Z-matrix:
 Charge =  0 Multiplicity = 1

                         Standard orientation:
 ---------------------------------------------------------------------
 Center     Atomic      Atomic             Coordinates (Angstroms)
 Number     Number       Type             X           Y           Z
 ---------------------------------------------------------------------
      1          8           0       14.716891   -2.183605   -0.384551
      2          8           0      -14.526854    2.393991    0.688568
      3          6           0       11.501481   -0.866320    1.311628
      4          6           0      -12.343118   -0.875937    0.854737
      5          6           0       13.013020   -1.148087    1.020936
      6          6           0      -13.621638    0.052164    0.681082
      7          6           0       13.321971   -1.816709   -0.269893
      8          6           0      -13.350010    1.590821    0.652843
      9          6           0       10.965812   -0.269526   -0.040009
     10          6           0      -11.383670   -0.224301   -0.187916
     11          6           0       12.978247   -0.800446   -1.333315
     12          6           0      -12.665205    1.897453   -0.575719
     13          6           0       11.612744   -0.326868   -1.258595
     14          6           0      -11.473961    0.877085   -0.874647
     15          6           0       11.354396    0.067871    2.392758
     16          6           0       10.856905   -2.201083    1.596378
     17          6           0      -11.674254   -0.770246    2.221160
     18          6           0      -12.665554   -2.331223    0.502853
     19          6           0        9.638370    0.305368    0.087102
     20          6           0      -10.113456   -1.088011   -0.220416
     21          6           0       11.136226    0.313709   -2.568159
     22          6           0      -10.534682    1.359092   -1.970026
     23          6           0        9.330079    1.673657   -0.155772
     24          6           0       -8.819110   -0.614615   -0.434951
     25          6           0        8.023088    2.223789    0.056950
     26          6           0       -7.640958   -1.380286   -0.528876
     27          6           0        8.045929    3.672143    0.335819
     28          6           0       -7.777651   -2.851874   -0.650685
     29          6           0        6.790342    1.545315   -0.169550
     30          6           0       -6.474118   -0.748232   -0.464276
     31          6           0        5.445166    1.949717    0.094523
     32          6           0       -5.171951   -1.387624   -0.682804
     33          6           0        4.434487    1.073513   -0.112413
     34          6           0       -4.041783   -0.650595   -0.363751
     35          6           0        3.013683    1.443239    0.199457
     36          6           0       -2.631735   -1.034407   -0.298775
     37          6           0        2.759010    2.886490    0.566664
     38          6           0       -2.358194   -2.545842   -0.684370
     39          6           0        2.004536    0.686471   -0.040833
     40          6           0       -1.666576   -0.085609   -0.104811
     41          6           0        0.591831    0.878276    0.163688
     42          6           0       -0.229818   -0.216396   -0.160210
     43          1           0       13.641881   -0.293883    1.113561
     44          1           0       13.223058   -1.683865    1.939099
     45          1           0      -14.239415   -0.095581    1.516467
     46          1           0      -14.203211   -0.161031   -0.169593
     47          1           0       12.476198   -2.608560   -0.233312
     48          1           0      -12.821898    1.861115    1.442337
     49          1           0       13.663365    0.044337   -1.378652
     50          1           0       13.108592   -1.517953   -2.243971
     51          1           0      -13.522271    1.729516   -1.500648
     52          1           0      -12.495901    2.924063   -0.528856
     53          1           0       12.006637   -0.168335    3.296386
     54          1           0       10.188706    0.134048    2.582426
     55          1           0       11.602299    1.130143    2.281904
     56          1           0       10.914369   -2.968562    0.893997
     57          1           0       11.351362   -2.517350    2.570267
     58          1           0        9.769307   -2.141663    1.863934
     59          1           0      -11.564920    0.277511    2.507050
     60          1           0      -10.660258   -1.165376    2.075052
     61          1           0      -12.136760   -1.437789    3.040576
     62          1           0      -13.650627   -2.678378    1.235117
     63          1           0      -11.691584   -2.842240    0.633885
     64          1           0      -12.960530   -2.542802   -0.418370
     65          1           0        8.806000   -0.155006    0.585283
     66          1           0      -10.386895   -2.106086   -0.036266
     67          1           0        9.978289    0.575512   -2.303506
     68          1           0       11.461675    1.289817   -3.017755
     69          1           0       11.183206   -0.302551   -3.611051
     70          1           0      -10.967581    1.817415   -2.799097
     71          1           0       -9.924780    0.582925   -2.312095
     72          1           0       -9.892621    2.340281   -1.707429
     73          1           0       14.772623   -2.485398    0.678561
     74          1           0      -14.978802    2.048360    1.536323
     75          1           0       10.119915    2.319504   -0.473449
     76          1           0       -8.615737    0.489238   -0.383188
     77          1           0        8.595557    4.325750   -0.195278
     78          1           0        7.241490    4.333774    0.295364
     79          1           0        8.256257    3.713315    1.391474
     80          1           0       -8.352012   -3.419013    0.264901
     81          1           0       -8.258612   -3.079190   -1.493689
     82          1           0       -6.793337   -3.228833   -0.760375
     83          1           0        6.977655    0.395358   -0.455646
     84          1           0       -6.327757    0.295103   -0.111551
     85          1           0        5.319761    3.136591    0.209713
     86          1           0       -5.024153   -2.540284   -0.720972
     87          1           0        4.648670    0.014143   -0.554692
     88          1           0       -4.294973    0.325440   -0.098642
     89          1           0        3.183660    2.904706    1.523310
     90          1           0        1.663581    3.131292    0.836983
     91          1           0        3.156224    3.594675   -0.033552
     92          1           0       -2.890954   -3.188677    0.076911
     93          1           0       -2.568573   -2.734436   -1.868239
     94          1           0       -1.294666   -2.492038   -0.428772
     95          1           0        2.276723   -0.236698   -0.389815
     96          1           0       -2.173137    1.075144   -0.013124
     97          1           0        0.211436    1.875798    0.217590
     98          1           0        0.293876   -1.148012   -0.325854
 ---------------------------------------------------------------------

 SCF Done:  E(RCAM-B3LYP) =  -1706.95065438     A.U. after   14 cycles

 Excitation energies and oscillator strengths:

 Excited State   1:      Singlet-A      2.6857 eV  461.64 nm  f=3.6757  <S**2>=0.000
     155 ->158        -0.21042
     156 ->157         0.66619
 This state for optimization and/or second-order correction.
 Total Energy, E(TD-HF/TD-DFT) =  -1706.85195507
 Copying the excited state density for this state as the 1-particle RhoCI density.

 The electronic state is 1-A.
 Alpha  occ. eigenvalues --  -19.23064 -19.21198 -10.30428 -10.28398 -10.28111
 Alpha  occ. eigenvalues --  -10.27988 -10.27915 -10.27870 -10.27831 -10.27751
 Alpha  occ. eigenvalues --  -10.27627 -10.27624 -10.27507 -10.27435 -10.27304
 Alpha  occ. eigenvalues --  -10.27008 -10.26961 -10.26940 -10.26904 -10.26691
 Alpha  occ. eigenvalues --  -10.26682 -10.26624 -10.26393 -10.26161 -10.25959
 Alpha  occ. eigenvalues --  -10.25948 -10.25915 -10.25877 -10.25840 -10.25831
 Alpha  occ. eigenvalues --  -10.25485 -10.25482 -10.25211 -10.25086 -10.24942
 Alpha  occ. eigenvalues --  -10.24778 -10.24600 -10.24444 -10.24306 -10.24117
 Alpha  occ. eigenvalues --  -10.23745 -10.23710  -1.08564  -1.07765  -0.94726
 Alpha  occ. eigenvalues --   -0.93255  -0.92336  -0.91721  -0.90738  -0.89872
 Alpha  occ. eigenvalues --   -0.88262  -0.87033  -0.86529  -0.85416  -0.84618
 Alpha  occ. eigenvalues --   -0.83738  -0.82155  -0.80363  -0.79324  -0.78145
 Alpha  occ. eigenvalues --   -0.77455  -0.76826  -0.76747  -0.76629  -0.75918
 Alpha  occ. eigenvalues --   -0.75599  -0.75420  -0.75180  -0.73867  -0.70580
 Alpha  occ. eigenvalues --   -0.69104  -0.67225  -0.65400  -0.64956  -0.64412
 Alpha  occ. eigenvalues --   -0.64184  -0.63051  -0.62252  -0.60457  -0.59878
 Alpha  occ. eigenvalues --   -0.59299  -0.58351  -0.58183  -0.57215  -0.56371
 Alpha  occ. eigenvalues --   -0.55634  -0.55210  -0.54988  -0.54299  -0.53857
 Alpha  occ. eigenvalues --   -0.53730  -0.52684  -0.52524  -0.51958  -0.51312
 Alpha  occ. eigenvalues --   -0.50767  -0.50346  -0.50072  -0.49697  -0.49407
 Alpha  occ. eigenvalues --   -0.48953  -0.48700  -0.48398  -0.48324  -0.48101
 Alpha  occ. eigenvalues --   -0.47749  -0.47576  -0.47397  -0.47063  -0.46720
 Alpha  occ. eigenvalues --   -0.45908  -0.45662  -0.45552  -0.45155  -0.44729
 Alpha  occ. eigenvalues --   -0.44402  -0.44004  -0.43966  -0.43535  -0.43444
 Alpha  occ. eigenvalues --   -0.43234  -0.43109  -0.43095  -0.42584  -0.42282
 Alpha  occ. eigenvalues --   -0.41926  -0.41717  -0.41417  -0.40851  -0.40743
 Alpha  occ. eigenvalues --   -0.40540  -0.40468  -0.39883  -0.39517  -0.39397
 Alpha  occ. eigenvalues --   -0.39335  -0.39080  -0.38727  -0.38592  -0.37988
 Alpha  occ. eigenvalues --   -0.37519  -0.37291  -0.36758  -0.36453  -0.36272
 Alpha  occ. eigenvalues --   -0.35338  -0.33673  -0.33473  -0.32451  -0.32153
 Alpha  occ. eigenvalues --   -0.31900  -0.29908  -0.28667  -0.26519  -0.23441
 Alpha  occ. eigenvalues --   -0.20952
 Alpha virt. eigenvalues --   -0.04549  -0.01285   0.02034   0.05380   0.07570
 Alpha virt. eigenvalues --    0.08783   0.10210   0.10439   0.11849   0.12009
 Alpha virt. eigenvalues --    0.12164   0.12532   0.12637   0.12849   0.13186

 Mulliken charges:
               1
     1  O   -0.558805
     2  O   -0.565664
     3  C   -0.008795
     4  C   -0.018591
     5  C   -0.219877
     6  C   -0.201876
     7  C    0.173608
     8  C    0.171373
     9  C    0.063879
    10  C    0.084910
    11  C   -0.208434
    12  C   -0.205192
    13  C    0.068458
    14  C    0.038255
    15  C   -0.301779
    16  C   -0.297084
    17  C   -0.298358
    18  C   -0.283719
    19  C   -0.154351
    20  C   -0.151342
    21  C   -0.366758
    22  C   -0.360917
    23  C   -0.096178
    24  C   -0.116999
    25  C    0.067055
    26  C    0.128880
    27  C   -0.384914
    28  C   -0.349999
    29  C   -0.123701
    30  C   -0.143114
    31  C   -0.075357
    32  C   -0.099284
    33  C   -0.113063
    34  C   -0.102906
    35  C    0.094227
    36  C    0.072822
    37  C   -0.373827
    38  C   -0.349716
    39  C   -0.119634
    40  C   -0.120515
    41  C   -0.071509
    42  C   -0.099396
    43  H    0.103225
    44  H    0.067580
    45  H    0.062587
    46  H    0.106626
    47  H    0.069351
    48  H    0.085863
    49  H    0.123662
    50  H    0.101774
    51  H    0.073573
    52  H    0.110906
    53  H    0.093671
    54  H    0.093916
    55  H    0.118025
    56  H    0.125249
    57  H    0.094666
    58  H    0.101369
    59  H    0.108722
    60  H    0.114571
    61  H    0.092778
    62  H    0.072200
    63  H    0.099968
    64  H    0.125771
    65  H    0.095389
    66  H    0.071275
    67  H    0.100253
    68  H    0.119519
    69  H    0.091061
    70  H    0.117334
    71  H    0.128130
    72  H    0.084709
    73  H    0.308222
    74  H    0.301871
    75  H    0.098160
    76  H    0.092703
    77  H    0.123178
    78  H    0.105838
    79  H    0.125820
    80  H    0.095689
    81  H    0.133152
    82  H    0.101535
    83  H    0.065671
    84  H    0.092387
    85  H    0.097249
    86  H    0.087222
    87  H    0.094364
    88  H    0.067159
    89  H    0.129673
    90  H    0.091408
    91  H    0.128435
    92  H    0.122954
    93  H    0.119961
    94  H    0.108194
    95  H    0.061147
    96  H    0.072900
    97  H    0.095958
    98  H    0.103617
 Sum of Mulliken charges =  -0.00000

 Dipole moment (field-independent basis, Debye):
    X=              0.8422    Y=             -0.2092    Z=              2.7301  Tot=              2.8647
 Quadrupole moment (field-independent basis, Debye-Ang):
   XX=           -301.0510   YY=           -248.5043   ZZ=           -259.6125
   XY=             31.9552   XZ=              8.8473   YZ=             -0.9824

 Normal termination of Gaussian 16 at Thu Jul 11 00:07:37 2019.
