 Gaussian 16, Revision A.03,
 Gaussian 16:  ES64L-G16RevA.03 25-Dec-2016

 -------------------------------------
 # td=(NStates=1) CAM-B3LYP/6-31G(d,p)
 -------------------------------------

 --
 TD
 --
 Symbolic Z-matrix:
 Charge =  0 Multiplicity = 1

                         Standard orientation:
 ---------------------------------------------------------------------
 Center     Atomic      Atomic             Coordinates (Angstroms)
 Number     Number       Type             X           Y           Z
 ---------------------------------------------------------------------
      1          8           0       14.639008   -2.333935   -0.401252
      2          8           0      -14.734077    2.037404    0.779359
      3          6           0       11.529879   -0.981792    1.359537
      4          6           0      -12.255337   -0.840760    0.793984
      5          6           0       13.033837   -1.147053    1.077100
      6          6           0      -13.674811   -0.147631    0.772437
      7          6           0       13.369109   -1.963584   -0.141529
      8          6           0      -13.539168    1.378908    0.752851
      9          6           0       10.919481   -0.220986    0.026086
     10          6           0      -11.341110   -0.288526   -0.218338
     11          6           0       12.977702   -0.986342   -1.370520
     12          6           0      -12.726836    1.829383   -0.454989
     13          6           0       11.560838   -0.293088   -1.141695
     14          6           0      -11.550851    0.849348   -0.870104
     15          6           0       11.507076    0.139115    2.420268
     16          6           0       10.759475   -2.174098    1.695776
     17          6           0      -11.631657   -0.796768    2.239267
     18          6           0      -12.601261   -2.365335    0.549498
     19          6           0        9.601420    0.448663    0.204061
     20          6           0      -10.082975   -1.132452   -0.486372
     21          6           0       11.034338    0.233334   -2.435265
     22          6           0      -10.636192    1.525773   -1.815737
     23          6           0        9.244274    1.552939   -0.190375
     24          6           0       -8.844093   -0.604754   -0.297090
     25          6           0        7.998239    2.207612   -0.194892
     26          6           0       -7.554626   -1.341105   -0.622187
     27          6           0        8.097548    3.647796    0.282991
     28          6           0       -7.626923   -2.752661   -1.011893
     29          6           0        6.871525    1.530071   -0.101296
     30          6           0       -6.484231   -0.549580   -0.411051
     31          6           0        5.490122    1.978221    0.000338
     32          6           0       -5.082146   -1.118026   -0.542569
     33          6           0        4.493869    1.182276   -0.283119
     34          6           0       -4.008868   -0.415124   -0.197052
     35          6           0        3.120023    1.577325    0.125124
     36          6           0       -2.626243   -0.850099   -0.326031
     37          6           0        2.858065    3.047371    0.534101
     38          6           0       -2.432589   -2.336112   -0.725456
     39          6           0        2.086245    0.680352   -0.190276
     40          6           0       -1.667941    0.060102   -0.071242
     41          6           0        0.702440    0.748840    0.062318
     42          6           0       -0.128036   -0.203948   -0.261943
     43          1           0       13.433013   -0.144967    1.117606
     44          1           0       13.470469   -1.672089    2.051120
     45          1           0      -14.414072   -0.658146    1.520948
     46          1           0      -14.122194   -0.323497   -0.294848
     47          1           0       12.718124   -2.847446    0.009149
     48          1           0      -13.039724    1.360742    1.701869
     49          1           0       13.866632   -0.305981   -1.461130
     50          1           0       12.856388   -1.612026   -2.231599
     51          1           0      -13.329641    1.867466   -1.297293
     52          1           0      -12.500762    2.721487   -0.109585
     53          1           0       11.777244   -0.459208    3.374929
     54          1           0       10.523052    0.731171    2.450176
     55          1           0       12.144397    0.982201    2.261148
     56          1           0       10.811740   -3.104637    1.069700
     57          1           0       11.319844   -2.455939    2.604736
     58          1           0        9.606694   -1.905042    2.004423
     59          1           0      -11.441700    0.222188    2.468128
     60          1           0      -10.780112   -1.174858    2.170996
     61          1           0      -12.440193   -1.206896    2.933952
     62          1           0      -13.444529   -2.835435    1.356581
     63          1           0      -11.703938   -2.881243    0.535414
     64          1           0      -13.268803   -2.502875   -0.386434
     65          1           0        8.774891   -0.158243    0.785306
     66          1           0      -10.002986   -2.161823   -0.762450
     67          1           0        9.790345    0.214957   -2.726483
     68          1           0       11.420020    1.232406   -3.015873
     69          1           0       11.051156   -0.545938   -3.099033
     70          1           0      -11.339823    2.067787   -2.566997
     71          1           0      -10.076689    0.813022   -2.319452
     72          1           0      -10.017996    2.388112   -1.431916
     73          1           0       14.932039   -2.777544    0.368295
     74          1           0      -15.379523    1.597764    1.536632
     75          1           0        9.947225    2.267875   -0.621871
     76          1           0       -8.831032    0.400191    0.130283
     77          1           0        8.719079    4.141808   -0.493556
     78          1           0        7.060943    4.142361    0.128707
     79          1           0        8.398115    3.982454    1.301244
     80          1           0       -8.221359   -3.353681   -0.131993
     81          1           0       -8.324663   -2.785451   -1.849996
     82          1           0       -6.750287   -3.605369   -1.213458
     83          1           0        6.931159    0.537225   -0.339235
     84          1           0       -6.670766    0.465118    0.001857
     85          1           0        5.189016    2.922074    0.487778
     86          1           0       -4.934088   -1.973308   -0.857168
     87          1           0        4.497794    0.266065   -0.732302
     88          1           0       -4.061732    0.474561    0.559007
     89          1           0        3.407633    3.254397    1.399197
     90          1           0        1.647631    3.075376    0.613334
     91          1           0        2.973047    3.752544   -0.384252
     92          1           0       -2.725469   -2.959635    0.173580
     93          1           0       -3.011933   -2.440096   -1.581691
     94          1           0       -1.327214   -2.419010   -1.137354
     95          1           0        2.327331   -0.293218   -0.489630
     96          1           0       -1.801888    1.036832    0.175206
     97          1           0        0.422346    1.636021    0.516463
     98          1           0        0.148640   -1.263963   -0.505313
 ---------------------------------------------------------------------

 SCF Done:  E(RCAM-B3LYP) =  -1706.90513621     A.U. after   13 cycles

 Excitation energies and oscillator strengths:

 Excited State   1:      Singlet-A      3.3033 eV  375.34 nm  f=3.4712  <S**2>=0.000
     155 ->158         0.18893
     156 ->157         0.67309
 This state for optimization and/or second-order correction.
 Total Energy, E(TD-HF/TD-DFT) =  -1706.78374239
 Copying the excited state density for this state as the 1-particle RhoCI density.

 The electronic state is 1-A.
 Alpha  occ. eigenvalues --  -19.21709 -19.21640 -10.30258 -10.28829 -10.28704
 Alpha  occ. eigenvalues --  -10.27825 -10.27677 -10.27651 -10.27350 -10.27030
 Alpha  occ. eigenvalues --  -10.26980 -10.26861 -10.26807 -10.26745 -10.26659
 Alpha  occ. eigenvalues --  -10.26530 -10.26483 -10.26397 -10.26115 -10.26102
 Alpha  occ. eigenvalues --  -10.26000 -10.25867 -10.25841 -10.25760 -10.25759
 Alpha  occ. eigenvalues --  -10.25756 -10.25718 -10.25419 -10.25414 -10.25363
 Alpha  occ. eigenvalues --  -10.25314 -10.25177 -10.25172 -10.25003 -10.24959
 Alpha  occ. eigenvalues --  -10.24900 -10.24879 -10.24687 -10.24327 -10.23656
 Alpha  occ. eigenvalues --  -10.23247 -10.23067  -1.12946  -1.09131  -0.93306
 Alpha  occ. eigenvalues --   -0.93213  -0.92099  -0.91701  -0.90951  -0.89935
 Alpha  occ. eigenvalues --   -0.88162  -0.86602  -0.86452  -0.84990  -0.84305
 Alpha  occ. eigenvalues --   -0.82918  -0.81778  -0.80265  -0.79769  -0.77911
 Alpha  occ. eigenvalues --   -0.76896  -0.76699  -0.76618  -0.76069  -0.75501
 Alpha  occ. eigenvalues --   -0.75144  -0.74911  -0.74556  -0.74205  -0.70091
 Alpha  occ. eigenvalues --   -0.68243  -0.66688  -0.65657  -0.64765  -0.64156
 Alpha  occ. eigenvalues --   -0.63080  -0.62702  -0.62476  -0.60942  -0.60288
 Alpha  occ. eigenvalues --   -0.59548  -0.59235  -0.58308  -0.57915  -0.56997
 Alpha  occ. eigenvalues --   -0.56288  -0.55527  -0.55121  -0.54536  -0.53763
 Alpha  occ. eigenvalues --   -0.53169  -0.52828  -0.52477  -0.52059  -0.51274
 Alpha  occ. eigenvalues --   -0.50586  -0.50520  -0.50165  -0.50015  -0.49446
 Alpha  occ. eigenvalues --   -0.48960  -0.48575  -0.48377  -0.48316  -0.48097
 Alpha  occ. eigenvalues --   -0.47845  -0.47671  -0.46898  -0.46570  -0.46416
 Alpha  occ. eigenvalues --   -0.46095  -0.45710  -0.45299  -0.44983  -0.44822
 Alpha  occ. eigenvalues --   -0.44154  -0.44089  -0.43769  -0.43681  -0.43623
 Alpha  occ. eigenvalues --   -0.42983  -0.42899  -0.42592  -0.42456  -0.42071
 Alpha  occ. eigenvalues --   -0.41934  -0.41806  -0.41175  -0.41020  -0.40766
 Alpha  occ. eigenvalues --   -0.40536  -0.40246  -0.39723  -0.39699  -0.38952
 Alpha  occ. eigenvalues --   -0.38729  -0.38379  -0.38346  -0.37209  -0.37045
 Alpha  occ. eigenvalues --   -0.36521  -0.36284  -0.35832  -0.35477  -0.35307
 Alpha  occ. eigenvalues --   -0.35041  -0.34531  -0.32906  -0.32134  -0.31976
 Alpha  occ. eigenvalues --   -0.30065  -0.29535  -0.28631  -0.27314  -0.25056
 Alpha  occ. eigenvalues --   -0.22131
 Alpha virt. eigenvalues --   -0.02794   0.00526   0.03670   0.06416   0.07938
 Alpha virt. eigenvalues --    0.09289   0.10079   0.11552   0.12029   0.12303
 Alpha virt. eigenvalues --    0.12573   0.12899   0.13281   0.13419   0.13923

 Mulliken charges:
               1
     1  O   -0.522073
     2  O   -0.564523
     3  C    0.003005
     4  C   -0.047042
     5  C   -0.190548
     6  C   -0.209712
     7  C    0.181296
     8  C    0.188647
     9  C    0.048426
    10  C    0.085684
    11  C   -0.218669
    12  C   -0.209162
    13  C    0.032801
    14  C    0.029496
    15  C   -0.301569
    16  C   -0.295787
    17  C   -0.272553
    18  C   -0.280458
    19  C   -0.141012
    20  C   -0.173299
    21  C   -0.353213
    22  C   -0.350064
    23  C   -0.017538
    24  C   -0.086793
    25  C    0.062981
    26  C    0.144791
    27  C   -0.362872
    28  C   -0.390469
    29  C   -0.111315
    30  C   -0.141271
    31  C   -0.100923
    32  C   -0.062348
    33  C   -0.047716
    34  C   -0.096709
    35  C    0.054235
    36  C    0.075737
    37  C   -0.362243
    38  C   -0.359505
    39  C   -0.130184
    40  C   -0.120809
    41  C   -0.045498
    42  C   -0.110805
    43  H    0.105711
    44  H    0.040547
    45  H    0.062642
    46  H    0.072592
    47  H    0.058368
    48  H    0.064440
    49  H    0.122468
    50  H    0.112623
    51  H    0.124900
    52  H    0.126258
    53  H    0.082738
    54  H    0.101458
    55  H    0.116774
    56  H    0.115931
    57  H    0.095588
    58  H    0.095914
    59  H    0.100359
    60  H    0.108560
    61  H    0.095226
    62  H    0.064141
    63  H    0.104328
    64  H    0.096750
    65  H    0.070886
    66  H    0.082050
    67  H    0.066307
    68  H    0.100980
    69  H    0.123475
    70  H    0.087626
    71  H    0.125894
    72  H    0.115756
    73  H    0.297645
    74  H    0.309437
    75  H    0.070164
    76  H    0.092398
    77  H    0.107324
    78  H    0.093212
    79  H    0.126320
    80  H    0.106799
    81  H    0.136120
    82  H    0.112089
    83  H    0.074408
    84  H    0.090093
    85  H    0.079142
    86  H    0.051220
    87  H    0.079604
    88  H    0.077991
    89  H    0.136588
    90  H    0.087651
    91  H    0.127798
    92  H    0.131879
    93  H    0.135717
    94  H    0.094807
    95  H    0.068604
    96  H    0.078530
    97  H    0.075572
    98  H    0.087180
 Sum of Mulliken charges =  -0.00000

 Dipole moment (field-independent basis, Debye):
    X=              0.1788    Y=             -1.7461    Z=              2.0771  Tot=              2.7194
 Quadrupole moment (field-independent basis, Debye-Ang):
   XX=           -278.8622   YY=           -247.9941   ZZ=           -260.3880
   XY=             11.4704   XZ=              3.5744   YZ=              1.6303

 Normal termination of Gaussian 16 at Wed Jul  3 00:07:59 2019.
