 Gaussian 16, Revision A.03,
 Gaussian 16:  ES64L-G16RevA.03 25-Dec-2016

 -------------------------------------
 # td=(NStates=1) CAM-B3LYP/6-31G(d,p)
 -------------------------------------

 --
 TD
 --
 Symbolic Z-matrix:
 Charge =  0 Multiplicity = 1

                         Standard orientation:
 ---------------------------------------------------------------------
 Center     Atomic      Atomic             Coordinates (Angstroms)
 Number     Number       Type             X           Y           Z
 ---------------------------------------------------------------------
      1          8           0       14.676600   -2.279964   -0.624622
      2          8           0      -14.727222    2.048046    0.493078
      3          6           0       11.406180   -1.175358    1.127880
      4          6           0      -12.279946   -0.850868    0.853244
      5          6           0       12.891359   -1.477709    0.974128
      6          6           0      -13.612950   -0.130166    0.654531
      7          6           0       13.226377   -2.002681   -0.422916
      8          6           0      -13.536637    1.375963    0.530831
      9          6           0       10.932174   -0.235256   -0.037600
     10          6           0      -11.304418   -0.333232   -0.175137
     11          6           0       12.893648   -0.819637   -1.412069
     12          6           0      -12.758352    1.649041   -0.816064
     13          6           0       11.561585   -0.172046   -1.221009
     14          6           0      -11.528099    0.816473   -0.866100
     15          6           0       11.233147   -0.290515    2.468236
     16          6           0       10.624721   -2.500434    1.267559
     17          6           0      -11.704846   -0.618159    2.279431
     18          6           0      -12.458398   -2.362930    0.587295
     19          6           0        9.598201    0.346220    0.195452
     20          6           0       -9.999709   -1.026189   -0.248613
     21          6           0       11.163817    0.675101   -2.385462
     22          6           0      -10.742379    1.217026   -2.035728
     23          6           0        9.281828    1.639231   -0.112894
     24          6           0       -8.769282   -0.461585   -0.356354
     25          6           0        8.063221    2.309668    0.020424
     26          6           0       -7.542472   -1.348550   -0.451496
     27          6           0        8.051498    3.775607    0.454299
     28          6           0       -7.700335   -2.821267   -0.685951
     29          6           0        6.815386    1.638660    0.029739
     30          6           0       -6.334275   -0.724063   -0.433108
     31          6           0        5.511524    2.044148    0.313782
     32          6           0       -4.986039   -1.237513   -0.519064
     33          6           0        4.423648    1.278100    0.139663
     34          6           0       -3.964390   -0.510511   -0.393582
     35          6           0        3.117224    1.774652    0.261617
     36          6           0       -2.555253   -0.892681   -0.488165
     37          6           0        2.725143    3.265948    0.650686
     38          6           0       -2.197069   -2.367395   -0.697437
     39          6           0        2.079415    0.735119    0.181349
     40          6           0       -1.625019    0.033484   -0.132697
     41          6           0        0.659971    0.950007    0.164385
     42          6           0       -0.168101   -0.064604   -0.105581
     43          1           0       13.303890   -0.494614    1.176734
     44          1           0       13.099420   -2.080887    1.734382
     45          1           0      -14.203181   -0.270624    1.652580
     46          1           0      -14.291095   -0.305324   -0.215592
     47          1           0       12.694152   -3.095315   -0.539220
     48          1           0      -12.917244    1.774751    1.463988
     49          1           0       13.752379   -0.029190   -1.403245
     50          1           0       13.024093   -1.276943   -2.396709
     51          1           0      -13.538193    1.433317   -1.653208
     52          1           0      -12.483673    2.752356   -0.810066
     53          1           0       11.723244   -0.807949    3.180583
     54          1           0       10.083794   -0.247789    2.852438
     55          1           0       11.689016    0.763010    2.303296
     56          1           0       10.587126   -3.045461    0.493925
     57          1           0       10.963477   -3.097242    2.135088
     58          1           0        9.444303   -2.431739    1.579379
     59          1           0      -11.615033    0.406431    2.560100
     60          1           0      -10.637222   -1.032259    2.487269
     61          1           0      -12.370113   -1.171488    3.027985
     62          1           0      -13.474740   -2.600133    1.188317
     63          1           0      -11.494461   -3.019016    0.841139
     64          1           0      -12.694209   -2.577468   -0.368706
     65          1           0        8.750772   -0.285587    0.693476
     66          1           0       -9.977563   -2.171165   -0.264093
     67          1           0       10.045338    0.883817   -2.274266
     68          1           0       11.767149    1.686565   -2.577357
     69          1           0       11.297913    0.204939   -3.359726
     70          1           0      -11.568325    1.567258   -2.805210
     71          1           0      -10.044526    0.558508   -2.288171
     72          1           0      -10.135232    2.188260   -1.722907
     73          1           0       14.922539   -2.889140    0.185147
     74          1           0      -14.974240    1.904343    1.510621
     75          1           0       10.262614    2.305170   -0.294342
     76          1           0       -8.554259    0.585902   -0.115692
     77          1           0        8.453468    4.417578   -0.499382
     78          1           0        6.962077    4.275116    0.971894
     79          1           0        8.865664    3.828476    1.274628
     80          1           0       -7.842430   -3.429134    0.327207
     81          1           0       -8.421057   -3.002745   -1.529824
     82          1           0       -6.785045   -3.106376   -1.011646
     83          1           0        6.902701    0.597030   -0.206263
     84          1           0       -6.294127    0.371506   -0.229720
     85          1           0        5.414906    3.140572    0.413558
     86          1           0       -5.053387   -2.397995   -0.963482
     87          1           0        4.281358    0.210145   -0.476142
     88          1           0       -4.050061    0.694001   -0.330348
     89          1           0        3.284297    3.515409    1.539743
     90          1           0        1.685020    3.413377    0.777518
     91          1           0        3.093856    3.916067   -0.250135
     92          1           0       -2.488236   -3.060988    0.280571
     93          1           0       -2.672328   -2.918141   -1.538431
     94          1           0       -1.239335   -2.581797   -0.915519
     95          1           0        2.384921   -0.401171    0.060007
     96          1           0       -1.959807    0.970555   -0.044061
     97          1           0        0.201861    1.838113    0.609655
     98          1           0        0.290176   -1.126150   -0.130444
 ---------------------------------------------------------------------

 SCF Done:  E(RCAM-B3LYP) =  -1706.96865425     A.U. after   14 cycles

 Excitation energies and oscillator strengths:

 Excited State   1:      Singlet-A      2.5080 eV  494.36 nm  f=3.3326  <S**2>=0.000
     155 ->158         0.14708
     156 ->157         0.68705
 This state for optimization and/or second-order correction.
 Total Energy, E(TD-HF/TD-DFT) =  -1706.87648717
 Copying the excited state density for this state as the 1-particle RhoCI density.

 The electronic state is 1-A.
 Alpha  occ. eigenvalues --  -19.22733 -19.21532 -10.32337 -10.30580 -10.29019
 Alpha  occ. eigenvalues --  -10.28416 -10.28184 -10.27896 -10.27771 -10.27708
 Alpha  occ. eigenvalues --  -10.27356 -10.27271 -10.27065 -10.27019 -10.26884
 Alpha  occ. eigenvalues --  -10.26871 -10.26870 -10.26681 -10.26680 -10.26525
 Alpha  occ. eigenvalues --  -10.26381 -10.26309 -10.26247 -10.26245 -10.26232
 Alpha  occ. eigenvalues --  -10.26095 -10.26013 -10.25939 -10.25848 -10.25804
 Alpha  occ. eigenvalues --  -10.25778 -10.25771 -10.25709 -10.25631 -10.25603
 Alpha  occ. eigenvalues --  -10.25505 -10.25487 -10.25459 -10.25221 -10.24946
 Alpha  occ. eigenvalues --  -10.24474 -10.24052  -1.10946  -1.06107  -0.93667
 Alpha  occ. eigenvalues --   -0.93557  -0.92105  -0.91364  -0.90266  -0.89386
 Alpha  occ. eigenvalues --   -0.87788  -0.87181  -0.87052  -0.85216  -0.84133
 Alpha  occ. eigenvalues --   -0.83089  -0.81804  -0.79791  -0.79219  -0.77906
 Alpha  occ. eigenvalues --   -0.76966  -0.76608  -0.76166  -0.75940  -0.75552
 Alpha  occ. eigenvalues --   -0.75172  -0.74966  -0.74627  -0.73193  -0.69920
 Alpha  occ. eigenvalues --   -0.68153  -0.66529  -0.64987  -0.64475  -0.63810
 Alpha  occ. eigenvalues --   -0.63445  -0.61946  -0.61670  -0.59601  -0.58990
 Alpha  occ. eigenvalues --   -0.58834  -0.58650  -0.57267  -0.57023  -0.56061
 Alpha  occ. eigenvalues --   -0.55563  -0.55291  -0.54444  -0.53899  -0.53345
 Alpha  occ. eigenvalues --   -0.52878  -0.52338  -0.51605  -0.51134  -0.50687
 Alpha  occ. eigenvalues --   -0.50617  -0.49797  -0.49456  -0.48735  -0.48589
 Alpha  occ. eigenvalues --   -0.48540  -0.48165  -0.48107  -0.48026  -0.47971
 Alpha  occ. eigenvalues --   -0.47622  -0.46769  -0.46713  -0.46343  -0.46001
 Alpha  occ. eigenvalues --   -0.45554  -0.45491  -0.45321  -0.44969  -0.44681
 Alpha  occ. eigenvalues --   -0.44368  -0.44259  -0.44025  -0.43365  -0.43210
 Alpha  occ. eigenvalues --   -0.42948  -0.42495  -0.42373  -0.42325  -0.42032
 Alpha  occ. eigenvalues --   -0.41645  -0.41530  -0.41384  -0.40976  -0.40534
 Alpha  occ. eigenvalues --   -0.40457  -0.40280  -0.40164  -0.40079  -0.39920
 Alpha  occ. eigenvalues --   -0.39810  -0.39327  -0.38360  -0.38198  -0.37854
 Alpha  occ. eigenvalues --   -0.37589  -0.37427  -0.37043  -0.36564  -0.36083
 Alpha  occ. eigenvalues --   -0.35391  -0.34160  -0.33771  -0.32286  -0.32055
 Alpha  occ. eigenvalues --   -0.31541  -0.29943  -0.28454  -0.26432  -0.23774
 Alpha  occ. eigenvalues --   -0.20158
 Alpha virt. eigenvalues --   -0.04844  -0.00448   0.02562   0.05509   0.07525
 Alpha virt. eigenvalues --    0.09171   0.09690   0.10334   0.10806   0.11025
 Alpha virt. eigenvalues --    0.11334   0.12285   0.12493   0.12511   0.13259

 Mulliken charges:
               1
     1  O   -0.572131
     2  O   -0.533376
     3  C   -0.029418
     4  C    0.007756
     5  C   -0.177007
     6  C   -0.178721
     7  C    0.162457
     8  C    0.143347
     9  C    0.048778
    10  C    0.078498
    11  C   -0.228445
    12  C   -0.236634
    13  C    0.080047
    14  C    0.054543
    15  C   -0.299171
    16  C   -0.295958
    17  C   -0.304526
    18  C   -0.294072
    19  C   -0.109928
    20  C   -0.148227
    21  C   -0.365848
    22  C   -0.328002
    23  C   -0.123507
    24  C   -0.090098
    25  C    0.094731
    26  C    0.085582
    27  C   -0.344817
    28  C   -0.363143
    29  C   -0.114588
    30  C   -0.132257
    31  C   -0.104027
    32  C   -0.065423
    33  C   -0.087050
    34  C   -0.116432
    35  C    0.078989
    36  C    0.115197
    37  C   -0.357049
    38  C   -0.362913
    39  C   -0.149315
    40  C   -0.119544
    41  C   -0.070193
    42  C   -0.088405
    43  H    0.105994
    44  H    0.081250
    45  H    0.053151
    46  H    0.106537
    47  H    0.070141
    48  H    0.045138
    49  H    0.121693
    50  H    0.114303
    51  H    0.110933
    52  H    0.109572
    53  H    0.107465
    54  H    0.090383
    55  H    0.101754
    56  H    0.122191
    57  H    0.098080
    58  H    0.071325
    59  H    0.111846
    60  H    0.103870
    61  H    0.090342
    62  H    0.078646
    63  H    0.091913
    64  H    0.122198
    65  H    0.096635
    66  H    0.085144
    67  H    0.121545
    68  H    0.099126
    69  H    0.109863
    70  H    0.095552
    71  H    0.119258
    72  H    0.085891
    73  H    0.302401
    74  H    0.310544
    75  H    0.083265
    76  H    0.092433
    77  H    0.101303
    78  H    0.088514
    79  H    0.115049
    80  H    0.112002
    81  H    0.122694
    82  H    0.111086
    83  H    0.067876
    84  H    0.068535
    85  H    0.082684
    86  H    0.077118
    87  H    0.090074
    88  H    0.078611
    89  H    0.132097
    90  H    0.119434
    91  H    0.112469
    92  H    0.095918
    93  H    0.110642
    94  H    0.119888
    95  H    0.081038
    96  H    0.069095
    97  H    0.094080
    98  H    0.079710
 Sum of Mulliken charges =  -0.00000

 Dipole moment (field-independent basis, Debye):
    X=              0.3858    Y=             -1.2067    Z=              2.4072  Tot=              2.7202
 Quadrupole moment (field-independent basis, Debye-Ang):
   XX=           -287.5911   YY=           -246.2496   ZZ=           -261.0324
   XY=              5.8000   XZ=              3.2398   YZ=              1.3058

 Normal termination of Gaussian 16 at Sun Jun 30 15:02:21 2019.
