 Gaussian 16, Revision A.03,
 Gaussian 16:  ES64L-G16RevA.03 25-Dec-2016

 -------------------------------------
 # td=(NStates=1) CAM-B3LYP/6-31G(d,p)
 -------------------------------------

 --
 TD
 --
 Symbolic Z-matrix:
 Charge =  0 Multiplicity = 1

                         Standard orientation:
 ---------------------------------------------------------------------
 Center     Atomic      Atomic             Coordinates (Angstroms)
 Number     Number       Type             X           Y           Z
 ---------------------------------------------------------------------
      1          8           0       14.737472   -1.994047   -0.519561
      2          8           0      -14.871483    1.922460    0.470263
      3          6           0       11.402780   -1.224887    1.051479
      4          6           0      -12.381244   -0.915306    0.850757
      5          6           0       12.890962   -1.631949    0.938364
      6          6           0      -13.707267   -0.110698    0.692552
      7          6           0       13.331831   -1.840744   -0.510367
      8          6           0      -13.555068    1.340625    0.631302
      9          6           0       10.911546   -0.302812   -0.049900
     10          6           0      -11.315453   -0.265115   -0.106065
     11          6           0       13.042592   -0.714705   -1.308145
     12          6           0      -12.764758    1.750152   -0.587329
     13          6           0       11.671237   -0.054472   -1.135712
     14          6           0      -11.629773    0.804658   -0.842116
     15          6           0       11.256839   -0.402605    2.390483
     16          6           0       10.510707   -2.502290    1.222720
     17          6           0      -11.828156   -0.784769    2.269139
     18          6           0      -12.632934   -2.339692    0.503936
     19          6           0        9.719485    0.332206    0.191313
     20          6           0      -10.049055   -1.017722   -0.320500
     21          6           0       11.283369    0.773977   -2.330472
     22          6           0      -10.766519    1.394701   -1.953127
     23          6           0        9.359707    1.577893    0.000825
     24          6           0       -8.766973   -0.518814   -0.293295
     25          6           0        8.032465    2.200912    0.179732
     26          6           0       -7.541394   -1.251240   -0.497998
     27          6           0        8.123328    3.522111    0.838863
     28          6           0       -7.629538   -2.791374   -0.734762
     29          6           0        6.911573    1.474360   -0.118386
     30          6           0       -6.433805   -0.567455   -0.340947
     31          6           0        5.577128    1.917928    0.106993
     32          6           0       -5.089184   -1.024324   -0.478112
     33          6           0        4.477649    1.203241   -0.134607
     34          6           0       -3.959808   -0.317765   -0.266205
     35          6           0        3.151727    1.574446    0.134647
     36          6           0       -2.569534   -0.774252   -0.392580
     37          6           0        2.925631    3.043886    0.750367
     38          6           0       -2.318205   -2.269826   -0.789109
     39          6           0        2.157210    0.698382   -0.068191
     40          6           0       -1.614757    0.145522   -0.180690
     41          6           0        0.644685    0.855454    0.104492
     42          6           0       -0.207403   -0.053763   -0.136989
     43          1           0       13.596527   -0.937443    1.414563
     44          1           0       13.232352   -2.601370    1.574706
     45          1           0      -14.454460   -0.481477    1.486515
     46          1           0      -14.130464   -0.476786   -0.431672
     47          1           0       12.696118   -2.685860   -0.749092
     48          1           0      -13.070643    1.651412    1.538005
     49          1           0       13.762730    0.160103   -0.883431
     50          1           0       13.316506   -0.866087   -2.405680
     51          1           0      -13.489741    1.895411   -1.423197
     52          1           0      -12.135306    2.669231   -0.501909
     53          1           0       11.811434   -0.611160    3.326308
     54          1           0       10.242191   -0.430290    2.526959
     55          1           0       11.518261    0.597398    2.306759
     56          1           0       10.869504   -3.223877    0.456636
     57          1           0       10.797670   -2.823886    2.109094
     58          1           0        9.449345   -2.249649    1.286342
     59          1           0      -11.681919    0.248736    2.535488
     60          1           0      -10.844322   -1.230098    2.344236
     61          1           0      -12.533108   -1.178869    2.914250
     62          1           0      -13.496945   -2.772906    0.836635
     63          1           0      -11.913521   -3.113640    0.571319
     64          1           0      -12.876562   -2.507429   -0.675107
     65          1           0        8.632574   -0.372694    0.455890
     66          1           0      -10.213288   -2.012108   -0.495089
     67          1           0       10.091721    0.835709   -2.558496
     68          1           0       11.699167    1.903811   -2.159153
     69          1           0       11.791248    0.500323   -3.310804
     70          1           0      -11.540438    1.589383   -2.901619
     71          1           0      -10.181726    0.552006   -2.320523
     72          1           0      -10.247661    2.196086   -1.780685
     73          1           0       14.986125   -2.709491   -0.028774
     74          1           0      -15.492714    1.872649    1.166124
     75          1           0       10.285538    2.343322   -0.065773
     76          1           0       -8.650569    0.582939    0.155053
     77          1           0        8.976373    4.001751    0.459746
     78          1           0        7.297858    4.257198    0.511186
     79          1           0        8.445177    3.525403    1.979745
     80          1           0       -8.153107   -3.307794    0.080936
     81          1           0       -8.295431   -3.004190   -1.674185
     82          1           0       -6.651228   -3.175370   -0.857183
     83          1           0        7.132485    0.595833   -0.655130
     84          1           0       -6.448299    0.445332   -0.166309
     85          1           0        5.290113    2.924506    0.307229
     86          1           0       -4.821752   -2.108759   -0.925006
     87          1           0        4.640189    0.206191   -0.388753
     88          1           0       -4.042385    0.791765    0.048340
     89          1           0        3.420551    2.991521    1.582252
     90          1           0        1.732167    2.935945    1.016768
     91          1           0        2.989869    3.945290   -0.131513
     92          1           0       -2.507328   -3.137624    0.002830
     93          1           0       -3.112603   -2.511009   -1.655639
     94          1           0       -1.267983   -2.478236   -1.082475
     95          1           0        2.477071   -0.221604   -0.316085
     96          1           0       -2.072632    0.933102    0.297562
     97          1           0        0.360199    2.063485    0.332737
     98          1           0        0.127416   -1.016688   -0.380711
 ---------------------------------------------------------------------

 SCF Done:  E(RCAM-B3LYP) =  -1706.97435872     A.U. after   14 cycles

 Excitation energies and oscillator strengths:

 Excited State   1:      Singlet-A      3.1030 eV  399.57 nm  f=3.8323  <S**2>=0.000
     155 ->158         0.22027
     156 ->157         0.66157
 This state for optimization and/or second-order correction.
 Total Energy, E(TD-HF/TD-DFT) =  -1706.86032722
 Copying the excited state density for this state as the 1-particle RhoCI density.

 The electronic state is 1-A.
 Alpha  occ. eigenvalues --  -19.20893 -19.19714 -10.29842 -10.29644 -10.28106
 Alpha  occ. eigenvalues --  -10.27805 -10.27636 -10.27609 -10.27554 -10.27435
 Alpha  occ. eigenvalues --  -10.27322 -10.27316 -10.27139 -10.27004 -10.26868
 Alpha  occ. eigenvalues --  -10.26860 -10.26845 -10.26777 -10.26630 -10.26377
 Alpha  occ. eigenvalues --  -10.26271 -10.26168 -10.26138 -10.26091 -10.25767
 Alpha  occ. eigenvalues --  -10.25651 -10.25496 -10.25420 -10.25376 -10.25356
 Alpha  occ. eigenvalues --  -10.25311 -10.25209 -10.25169 -10.25048 -10.25030
 Alpha  occ. eigenvalues --  -10.25030 -10.24394 -10.24343 -10.24085 -10.23771
 Alpha  occ. eigenvalues --  -10.23314 -10.22751  -1.11267  -1.08149  -0.94461
 Alpha  occ. eigenvalues --   -0.93501  -0.92419  -0.91872  -0.91034  -0.90061
 Alpha  occ. eigenvalues --   -0.87665  -0.87222  -0.87051  -0.86383  -0.85209
 Alpha  occ. eigenvalues --   -0.83553  -0.82226  -0.80471  -0.79802  -0.77536
 Alpha  occ. eigenvalues --   -0.77251  -0.76846  -0.76565  -0.76481  -0.75994
 Alpha  occ. eigenvalues --   -0.75616  -0.75238  -0.74984  -0.74806  -0.70563
 Alpha  occ. eigenvalues --   -0.69144  -0.67630  -0.66094  -0.64556  -0.64495
 Alpha  occ. eigenvalues --   -0.63670  -0.62430  -0.61340  -0.60778  -0.60340
 Alpha  occ. eigenvalues --   -0.60019  -0.59247  -0.59035  -0.57855  -0.56230
 Alpha  occ. eigenvalues --   -0.55628  -0.55326  -0.54885  -0.54299  -0.54073
 Alpha  occ. eigenvalues --   -0.53416  -0.53135  -0.52473  -0.51792  -0.51083
 Alpha  occ. eigenvalues --   -0.50785  -0.50493  -0.49850  -0.49669  -0.49298
 Alpha  occ. eigenvalues --   -0.48864  -0.48665  -0.48233  -0.48136  -0.47457
 Alpha  occ. eigenvalues --   -0.47274  -0.46934  -0.46542  -0.46141  -0.46043
 Alpha  occ. eigenvalues --   -0.45760  -0.45723  -0.45250  -0.45182  -0.44869
 Alpha  occ. eigenvalues --   -0.44519  -0.44259  -0.44072  -0.43304  -0.43155
 Alpha  occ. eigenvalues --   -0.43021  -0.42604  -0.42380  -0.42370  -0.42182
 Alpha  occ. eigenvalues --   -0.41777  -0.41540  -0.41108  -0.40727  -0.40514
 Alpha  occ. eigenvalues --   -0.40065  -0.40016  -0.39509  -0.39260  -0.39111
 Alpha  occ. eigenvalues --   -0.39037  -0.38947  -0.38689  -0.38052  -0.37831
 Alpha  occ. eigenvalues --   -0.37386  -0.37202  -0.36697  -0.36514  -0.36221
 Alpha  occ. eigenvalues --   -0.35436  -0.34797  -0.34076  -0.32341  -0.32184
 Alpha  occ. eigenvalues --   -0.31620  -0.30357  -0.28216  -0.26945  -0.24075
 Alpha  occ. eigenvalues --   -0.21729
 Alpha virt. eigenvalues --   -0.03351  -0.00393   0.03203   0.05778   0.08573
 Alpha virt. eigenvalues --    0.09892   0.10938   0.11332   0.12136   0.12388
 Alpha virt. eigenvalues --    0.12574   0.12599   0.12935   0.13862   0.13996

 Mulliken charges:
               1
     1  O   -0.543665
     2  O   -0.581396
     3  C   -0.039505
     4  C   -0.004480
     5  C   -0.208864
     6  C   -0.179143
     7  C    0.178777
     8  C    0.191232
     9  C    0.110814
    10  C    0.047922
    11  C   -0.202986
    12  C   -0.206262
    13  C    0.062084
    14  C    0.030525
    15  C   -0.317799
    16  C   -0.293584
    17  C   -0.295164
    18  C   -0.318003
    19  C   -0.113855
    20  C   -0.150493
    21  C   -0.356386
    22  C   -0.343801
    23  C   -0.123552
    24  C   -0.098038
    25  C    0.104804
    26  C    0.128945
    27  C   -0.374455
    28  C   -0.362742
    29  C   -0.122558
    30  C   -0.112676
    31  C   -0.092538
    32  C   -0.096762
    33  C   -0.087451
    34  C   -0.121363
    35  C    0.084290
    36  C    0.126320
    37  C   -0.344430
    38  C   -0.368526
    39  C   -0.129974
    40  C   -0.126146
    41  C   -0.072572
    42  C   -0.067513
    43  H    0.102402
    44  H    0.053780
    45  H    0.073217
    46  H    0.074003
    47  H    0.082855
    48  H    0.084402
    49  H    0.106156
    50  H    0.105367
    51  H    0.127001
    52  H    0.108146
    53  H    0.092350
    54  H    0.111731
    55  H    0.108398
    56  H    0.094267
    57  H    0.120155
    58  H    0.105561
    59  H    0.099686
    60  H    0.110368
    61  H    0.100198
    62  H    0.113472
    63  H    0.108377
    64  H    0.074135
    65  H    0.047944
    66  H    0.084848
    67  H    0.112035
    68  H    0.098469
    69  H    0.107303
    70  H    0.071151
    71  H    0.119426
    72  H    0.126377
    73  H    0.293828
    74  H    0.297561
    75  H    0.068087
    76  H    0.076900
    77  H    0.124701
    78  H    0.107023
    79  H    0.117427
    80  H    0.126084
    81  H    0.108433
    82  H    0.116685
    83  H    0.090809
    84  H    0.081019
    85  H    0.085140
    86  H    0.064124
    87  H    0.065912
    88  H    0.074017
    89  H    0.146258
    90  H    0.079840
    91  H    0.108108
    92  H    0.112912
    93  H    0.103468
    94  H    0.114109
    95  H    0.068847
    96  H    0.082749
    97  H    0.069131
    98  H    0.084215
 Sum of Mulliken charges =  -0.00000

 Dipole moment (field-independent basis, Debye):
    X=              0.6964    Y=             -1.6061    Z=              2.0240  Tot=              2.6760
 Quadrupole moment (field-independent basis, Debye-Ang):
   XX=           -262.2543   YY=           -243.8950   ZZ=           -261.2722
   XY=              6.1200   XZ=            -10.2434   YZ=              3.0736

 Normal termination of Gaussian 16 at Wed Jul  3 02:15:09 2019.
