 Gaussian 16, Revision A.03,
 Gaussian 16:  ES64L-G16RevA.03 25-Dec-2016

 -------------------------------------
 # td=(NStates=1) CAM-B3LYP/6-31G(d,p)
 -------------------------------------

 --
 TD
 --
 Symbolic Z-matrix:
 Charge =  0 Multiplicity = 1

                         Standard orientation:
 ---------------------------------------------------------------------
 Center     Atomic      Atomic             Coordinates (Angstroms)
 Number     Number       Type             X           Y           Z
 ---------------------------------------------------------------------
      1          8           0       14.646022   -2.338579   -0.748591
      2          8           0      -14.745653    2.097067    0.648182
      3          6           0       11.580565   -0.965783    1.298401
      4          6           0      -12.346247   -0.881746    0.662067
      5          6           0       13.026235   -1.331534    0.953168
      6          6           0      -13.701587   -0.154907    0.748300
      7          6           0       13.290658   -1.866055   -0.439704
      8          6           0      -13.579648    1.353515    0.624700
      9          6           0       11.016024   -0.280207    0.103079
     10          6           0      -11.333411   -0.285987   -0.265976
     11          6           0       13.046282   -0.729318   -1.433213
     12          6           0      -12.864624    1.850400   -0.610023
     13          6           0       11.631100   -0.267607   -1.169915
     14          6           0      -11.491623    0.954025   -0.811897
     15          6           0       11.657416   -0.041280    2.505330
     16          6           0       10.817414   -2.295723    1.620452
     17          6           0      -11.685763   -0.822891    2.173527
     18          6           0      -12.836491   -2.346318    0.301364
     19          6           0        9.620239    0.459476    0.253807
     20          6           0      -10.083359   -1.033828   -0.421275
     21          6           0       11.144779    0.420406   -2.477477
     22          6           0      -10.589370    1.520741   -1.873591
     23          6           0        9.348245    1.666314   -0.111853
     24          6           0       -8.876623   -0.549109   -0.272320
     25          6           0        8.017370    2.284458    0.134163
     26          6           0       -7.651364   -1.246371   -0.359458
     27          6           0        7.925503    3.658799    0.501488
     28          6           0       -7.798136   -2.738181   -0.819641
     29          6           0        6.979247    1.475415   -0.110807
     30          6           0       -6.474699   -0.638529   -0.215271
     31          6           0        5.607944    1.838519    0.147425
     32          6           0       -5.155528   -1.114129   -0.436906
     33          6           0        4.491994    1.194924   -0.152143
     34          6           0       -4.105417   -0.478686   -0.110376
     35          6           0        3.051422    1.487718    0.015054
     36          6           0       -2.661137   -0.817654   -0.164047
     37          6           0        2.798738    2.849473    0.619312
     38          6           0       -2.354471   -2.309418   -0.526317
     39          6           0        2.099296    0.644266   -0.277946
     40          6           0       -1.630293    0.060053    0.012002
     41          6           0        0.688105    0.795686   -0.059108
     42          6           0       -0.250877   -0.192416   -0.301341
     43          1           0       13.548992   -0.248184    1.183943
     44          1           0       13.271636   -1.940031    1.740192
     45          1           0      -13.907766   -0.344309    1.782849
     46          1           0      -14.550025   -0.640166   -0.052526
     47          1           0       12.417911   -2.598431   -0.588862
     48          1           0      -12.880392    1.607157    1.614631
     49          1           0       13.934579    0.193746   -1.358133
     50          1           0       13.086689   -1.217900   -2.398029
     51          1           0      -13.267336    1.595487   -1.508146
     52          1           0      -12.559755    2.885114   -0.424041
     53          1           0       11.925825   -0.766730    3.340776
     54          1           0       10.570644    0.323858    2.896583
     55          1           0       12.534071    0.726234    2.420754
     56          1           0       10.499935   -2.832871    0.805169
     57          1           0       11.294340   -2.777570    2.497835
     58          1           0        9.848500   -2.085924    2.126584
     59          1           0      -11.735687    0.154154    2.496279
     60          1           0      -10.640388   -1.412581    2.196190
     61          1           0      -12.387983   -1.442105    2.815027
     62          1           0      -13.750474   -2.612437    0.865816
     63          1           0      -12.226685   -3.337090    0.578449
     64          1           0      -13.039043   -2.662298   -0.927572
     65          1           0        9.007841   -0.144123    0.812607
     66          1           0      -10.396108   -1.940225   -0.741121
     67          1           0       10.060994    0.693922   -2.183839
     68          1           0       11.848868    1.219638   -2.793750
     69          1           0       10.989031   -0.211515   -3.365008
     70          1           0      -11.125949    1.939898   -2.718614
     71          1           0       -9.818330    0.871425   -2.215884
     72          1           0       -9.903902    2.355589   -1.726411
     73          1           0       15.130344   -2.726564    0.224668
     74          1           0      -15.128330    1.815105    1.608665
     75          1           0       10.234434    2.181226   -0.695018
     76          1           0       -8.742957    0.403853    0.106729
     77          1           0        8.546075    4.185017   -0.154463
     78          1           0        6.996402    4.078903    0.290693
     79          1           0        8.424903    3.916196    1.506642
     80          1           0       -8.475713   -3.473408   -0.237412
     81          1           0       -8.179536   -2.603625   -1.956877
     82          1           0       -6.821271   -3.204307   -1.051961
     83          1           0        7.072928    0.515310   -0.590799
     84          1           0       -6.575952    0.331367    0.245198
     85          1           0        5.412792    2.752254    0.437724
     86          1           0       -4.845183   -2.157900   -0.756736
     87          1           0        4.808217    0.281603   -0.652521
     88          1           0       -4.193972    0.626494    0.301939
     89          1           0        3.185925    2.805178    1.818045
     90          1           0        1.735645    3.085020    0.606555
     91          1           0        3.349153    3.590391    0.024647
     92          1           0       -2.879484   -3.076557    0.015501
     93          1           0       -2.791855   -2.645523   -1.411385
     94          1           0       -1.297065   -2.502874   -0.407698
     95          1           0        2.350542   -0.256256   -0.997751
     96          1           0       -1.799709    1.221816    0.303972
     97          1           0        0.365230    1.834970    0.115338
     98          1           0        0.057989   -1.156403   -0.580362
 ---------------------------------------------------------------------

 SCF Done:  E(RCAM-B3LYP) =  -1706.93691078     A.U. after   13 cycles

 Excitation energies and oscillator strengths:

 Excited State   1:      Singlet-A      3.1224 eV  397.08 nm  f=3.6502  <S**2>=0.000
     155 ->158        -0.17378
     156 ->157         0.67744
 This state for optimization and/or second-order correction.
 Total Energy, E(TD-HF/TD-DFT) =  -1706.82216545
 Copying the excited state density for this state as the 1-particle RhoCI density.

 The electronic state is 1-A.
 Alpha  occ. eigenvalues --  -19.22585 -19.22454 -10.31250 -10.30753 -10.28784
 Alpha  occ. eigenvalues --  -10.28191 -10.27879 -10.27831 -10.27621 -10.27231
 Alpha  occ. eigenvalues --  -10.27189 -10.27092 -10.27034 -10.26992 -10.26946
 Alpha  occ. eigenvalues --  -10.26919 -10.26899 -10.26670 -10.26669 -10.26615
 Alpha  occ. eigenvalues --  -10.26335 -10.26271 -10.26265 -10.26156 -10.26089
 Alpha  occ. eigenvalues --  -10.25952 -10.25789 -10.25662 -10.25385 -10.25293
 Alpha  occ. eigenvalues --  -10.25275 -10.25228 -10.25226 -10.25185 -10.25130
 Alpha  occ. eigenvalues --  -10.24987 -10.24908 -10.24767 -10.24523 -10.24346
 Alpha  occ. eigenvalues --  -10.24020 -10.23749  -1.09883  -1.05110  -0.93740
 Alpha  occ. eigenvalues --   -0.93235  -0.92583  -0.91993  -0.91331  -0.90083
 Alpha  occ. eigenvalues --   -0.87907  -0.86763  -0.86170  -0.85459  -0.84497
 Alpha  occ. eigenvalues --   -0.83636  -0.82208  -0.80212  -0.79410  -0.78165
 Alpha  occ. eigenvalues --   -0.77105  -0.76596  -0.76378  -0.75824  -0.75314
 Alpha  occ. eigenvalues --   -0.75233  -0.74780  -0.74480  -0.74396  -0.70702
 Alpha  occ. eigenvalues --   -0.68635  -0.66948  -0.65032  -0.64599  -0.64190
 Alpha  occ. eigenvalues --   -0.63854  -0.62961  -0.62284  -0.61134  -0.60294
 Alpha  occ. eigenvalues --   -0.59786  -0.58002  -0.57000  -0.56478  -0.56083
 Alpha  occ. eigenvalues --   -0.55655  -0.55454  -0.55115  -0.54049  -0.53877
 Alpha  occ. eigenvalues --   -0.52956  -0.52644  -0.52110  -0.51971  -0.50804
 Alpha  occ. eigenvalues --   -0.50632  -0.49991  -0.49609  -0.49207  -0.49081
 Alpha  occ. eigenvalues --   -0.48989  -0.48772  -0.48425  -0.47971  -0.47777
 Alpha  occ. eigenvalues --   -0.47704  -0.47031  -0.46812  -0.46727  -0.46476
 Alpha  occ. eigenvalues --   -0.46088  -0.45329  -0.45104  -0.44819  -0.44421
 Alpha  occ. eigenvalues --   -0.44380  -0.44287  -0.43870  -0.43760  -0.43634
 Alpha  occ. eigenvalues --   -0.43406  -0.43176  -0.42561  -0.42314  -0.42211
 Alpha  occ. eigenvalues --   -0.41702  -0.41420  -0.41157  -0.41063  -0.40551
 Alpha  occ. eigenvalues --   -0.40388  -0.40038  -0.39837  -0.39561  -0.39115
 Alpha  occ. eigenvalues --   -0.39110  -0.39044  -0.38703  -0.38341  -0.37646
 Alpha  occ. eigenvalues --   -0.37205  -0.36769  -0.36220  -0.35663  -0.35464
 Alpha  occ. eigenvalues --   -0.34953  -0.34742  -0.34129  -0.32842  -0.31678
 Alpha  occ. eigenvalues --   -0.31500  -0.29385  -0.27873  -0.26639  -0.24771
 Alpha  occ. eigenvalues --   -0.21871
 Alpha virt. eigenvalues --   -0.03477   0.00514   0.03207   0.05678   0.08034
 Alpha virt. eigenvalues --    0.08813   0.09480   0.09844   0.11131   0.11759
 Alpha virt. eigenvalues --    0.12040   0.12274   0.13009   0.13672   0.14168

 Mulliken charges:
               1
     1  O   -0.574860
     2  O   -0.539307
     3  C   -0.030952
     4  C    0.002139
     5  C   -0.171552
     6  C   -0.186245
     7  C    0.187154
     8  C    0.177824
     9  C    0.052049
    10  C    0.043160
    11  C   -0.182524
    12  C   -0.195675
    13  C    0.013715
    14  C    0.006317
    15  C   -0.294375
    16  C   -0.317213
    17  C   -0.312061
    18  C   -0.314443
    19  C   -0.085942
    20  C   -0.102666
    21  C   -0.363375
    22  C   -0.377784
    23  C   -0.118697
    24  C   -0.079174
    25  C    0.088718
    26  C    0.129047
    27  C   -0.374894
    28  C   -0.366830
    29  C   -0.104736
    30  C   -0.151546
    31  C   -0.059675
    32  C   -0.062025
    33  C   -0.120543
    34  C   -0.089659
    35  C    0.123285
    36  C    0.096784
    37  C   -0.356873
    38  C   -0.389529
    39  C   -0.132877
    40  C   -0.133544
    41  C   -0.097399
    42  C   -0.066496
    43  H    0.065129
    44  H    0.081024
    45  H    0.090609
    46  H    0.085090
    47  H    0.080899
    48  H    0.028031
    49  H    0.086503
    50  H    0.113913
    51  H    0.132792
    52  H    0.120405
    53  H    0.090273
    54  H    0.096996
    55  H    0.109235
    56  H    0.126472
    57  H    0.104608
    58  H    0.097936
    59  H    0.121983
    60  H    0.108460
    61  H    0.091448
    62  H    0.112302
    63  H    0.077751
    64  H    0.077977
    65  H    0.084246
    66  H    0.093434
    67  H    0.105967
    68  H    0.115613
    69  H    0.111799
    70  H    0.104140
    71  H    0.119743
    72  H    0.105724
    73  H    0.295098
    74  H    0.302236
    75  H    0.096916
    76  H    0.082108
    77  H    0.129114
    78  H    0.122058
    79  H    0.117574
    80  H    0.117193
    81  H    0.099442
    82  H    0.104195
    83  H    0.087334
    84  H    0.082958
    85  H    0.047549
    86  H    0.071915
    87  H    0.055006
    88  H    0.059330
    89  H    0.097686
    90  H    0.106723
    91  H    0.124758
    92  H    0.119064
    93  H    0.127041
    94  H    0.111016
    95  H    0.081423
    96  H    0.078478
    97  H    0.086411
    98  H    0.090152
 Sum of Mulliken charges =  -0.00000

 Dipole moment (field-independent basis, Debye):
    X=              0.3114    Y=             -0.6621    Z=              2.5275  Tot=              2.6313
 Quadrupole moment (field-independent basis, Debye-Ang):
   XX=           -276.2281   YY=           -248.6669   ZZ=           -258.6638
   XY=             23.0624   XZ=              6.9821   YZ=             -1.4353

 Normal termination of Gaussian 16 at Tue Jul  9 08:51:40 2019.
