 Gaussian 16, Revision A.03,
 Gaussian 16:  ES64L-G16RevA.03 25-Dec-2016

 -------------------------------------
 # td=(NStates=1) CAM-B3LYP/6-31G(d,p)
 -------------------------------------

 --
 TD
 --
 Symbolic Z-matrix:
 Charge =  0 Multiplicity = 1

                         Standard orientation:
 ---------------------------------------------------------------------
 Center     Atomic      Atomic             Coordinates (Angstroms)
 Number     Number       Type             X           Y           Z
 ---------------------------------------------------------------------
      1          8           0       14.791074   -2.127032   -0.378949
      2          8           0      -14.847557    1.975826    0.796726
      3          6           0       11.484248   -1.139612    1.194266
      4          6           0      -12.377437   -0.974672    0.817069
      5          6           0       13.020766   -1.489932    1.032196
      6          6           0      -13.709885   -0.254084    0.697050
      7          6           0       13.445937   -1.864362   -0.397275
      8          6           0      -13.652043    1.272098    0.772458
      9          6           0       11.046101   -0.293082   -0.075516
     10          6           0      -11.424452   -0.245853   -0.187825
     11          6           0       13.159875   -0.665862   -1.258608
     12          6           0      -12.916085    1.668773   -0.511231
     13          6           0       11.834428   -0.098104   -1.172007
     14          6           0      -11.648203    0.896358   -0.736824
     15          6           0       11.311745   -0.376859    2.498523
     16          6           0       10.741732   -2.518719    1.276847
     17          6           0      -11.797907   -0.891972    2.251523
     18          6           0      -12.485649   -2.437226    0.514982
     19          6           0        9.723900    0.344207    0.066821
     20          6           0      -10.115931   -1.025864   -0.529262
     21          6           0       11.324010    0.724297   -2.250748
     22          6           0      -10.783906    1.592840   -1.823677
     23          6           0        9.377716    1.652343   -0.004422
     24          6           0       -8.943254   -0.488879   -0.296791
     25          6           0        8.083660    2.238068    0.184646
     26          6           0       -7.612050   -1.210039   -0.517514
     27          6           0        8.112313    3.613232    0.585531
     28          6           0       -7.739130   -2.555289   -1.104153
     29          6           0        6.908257    1.455326    0.098513
     30          6           0       -6.494057   -0.617659   -0.240137
     31          6           0        5.517653    1.932567    0.197172
     32          6           0       -5.169673   -1.143436   -0.447159
     33          6           0        4.479319    1.126594   -0.051821
     34          6           0       -3.999174   -0.478228   -0.268144
     35          6           0        3.108847    1.626235   -0.030151
     36          6           0       -2.647259   -0.763190   -0.464944
     37          6           0        2.838291    2.921383    0.657683
     38          6           0       -2.397186   -2.125886   -0.967117
     39          6           0        2.097988    0.666710   -0.197751
     40          6           0       -1.706227    0.149954   -0.250140
     41          6           0        0.707443    0.870930   -0.005136
     42          6           0       -0.239061    0.005880   -0.435300
     43          1           0       13.492698   -0.599486    1.303421
     44          1           0       13.145020   -2.386961    1.760103
     45          1           0      -14.364204   -0.623696    1.567478
     46          1           0      -14.061427   -0.367203   -0.249254
     47          1           0       12.838296   -2.795946   -0.945993
     48          1           0      -12.955251    1.521280    1.803054
     49          1           0       13.936569    0.274674   -0.971288
     50          1           0       13.446851   -0.893415   -2.415227
     51          1           0      -13.872694    1.277482   -1.270680
     52          1           0      -12.649236    2.888970   -0.826746
     53          1           0       11.517990   -1.096498    3.399821
     54          1           0       10.338622    0.103945    2.648046
     55          1           0       11.956614    0.595923    2.429008
     56          1           0       10.846825   -3.266049    0.303700
     57          1           0       11.368514   -3.233437    1.853889
     58          1           0        9.778018   -2.394207    1.701305
     59          1           0      -11.861211    0.096210    2.963178
     60          1           0      -10.593539   -1.131855    2.202616
     61          1           0      -12.382799   -1.755935    2.800826
     62          1           0      -13.330042   -2.872955    1.089825
     63          1           0      -11.539320   -2.930976    0.672244
     64          1           0      -12.716617   -2.434501   -0.597575
     65          1           0        8.958419   -0.415196    0.327385
     66          1           0      -10.250624   -2.057635   -0.972088
     67          1           0       10.360684    0.979349   -2.140885
     68          1           0       12.108569    1.510783   -2.536108
     69          1           0       11.418671    0.189474   -3.208037
     70          1           0      -11.472926    2.175839   -2.503812
     71          1           0      -10.022128    0.909217   -2.277849
     72          1           0      -10.258658    2.288083   -1.239560
     73          1           0       14.838376   -2.848251    0.154218
     74          1           0      -15.474488    1.560939    1.410636
     75          1           0       10.239767    2.389953   -0.358169
     76          1           0       -8.971558    0.446503    0.285217
     77          1           0        8.685236    4.256413   -0.100547
     78          1           0        7.094949    4.207144    0.667048
     79          1           0        8.670534    3.764323    1.438938
     80          1           0       -8.100792   -3.206688   -0.111037
     81          1           0       -8.494076   -2.502991   -1.857067
     82          1           0       -6.944203   -3.166098   -1.461257
     83          1           0        6.864520    0.438726   -0.132476
     84          1           0       -6.389327    0.320860    0.113379
     85          1           0        5.385843    3.217672    0.335092
     86          1           0       -5.292474   -2.231669   -0.844625
     87          1           0        4.615594   -0.034945   -0.075581
     88          1           0       -4.244784    0.573078    0.117129
     89          1           0        3.261705    2.880656    1.752564
     90          1           0        1.766080    3.114796    0.908286
     91          1           0        3.153831    3.695336    0.043237
     92          1           0       -2.683027   -2.934513   -0.174458
     93          1           0       -2.830491   -2.196669   -1.959806
     94          1           0       -1.301474   -2.132759   -0.768660
     95          1           0        2.306489   -0.310059   -0.573278
     96          1           0       -2.120551    0.989702    0.017029
     97          1           0        0.316440    1.714775    0.400545
     98          1           0        0.124090   -0.945775   -0.969112
 ---------------------------------------------------------------------

 SCF Done:  E(RCAM-B3LYP) =  -1706.97915959     A.U. after   13 cycles

 Excitation energies and oscillator strengths:

 Excited State   1:      Singlet-A      2.8427 eV  436.14 nm  f=3.5232  <S**2>=0.000
     155 ->158        -0.18000
     156 ->157         0.67750
 This state for optimization and/or second-order correction.
 Total Energy, E(TD-HF/TD-DFT) =  -1706.87469113
 Copying the excited state density for this state as the 1-particle RhoCI density.

 The electronic state is 1-A.
 Alpha  occ. eigenvalues --  -19.22056 -19.21262 -10.31911 -10.31813 -10.28165
 Alpha  occ. eigenvalues --  -10.27949 -10.27616 -10.27589 -10.27472 -10.27414
 Alpha  occ. eigenvalues --  -10.27396 -10.27250 -10.27083 -10.27003 -10.26713
 Alpha  occ. eigenvalues --  -10.26660 -10.26415 -10.26299 -10.26267 -10.26214
 Alpha  occ. eigenvalues --  -10.26100 -10.26032 -10.26032 -10.26016 -10.25929
 Alpha  occ. eigenvalues --  -10.25916 -10.25876 -10.25854 -10.25803 -10.25737
 Alpha  occ. eigenvalues --  -10.25692 -10.25357 -10.25356 -10.25347 -10.25300
 Alpha  occ. eigenvalues --  -10.25203 -10.25201 -10.25081 -10.24914 -10.24903
 Alpha  occ. eigenvalues --  -10.24056 -10.23834  -1.13439  -1.10786  -0.94093
 Alpha  occ. eigenvalues --   -0.93457  -0.92745  -0.91591  -0.91177  -0.90315
 Alpha  occ. eigenvalues --   -0.87569  -0.87483  -0.87086  -0.85723  -0.84733
 Alpha  occ. eigenvalues --   -0.83321  -0.82345  -0.80608  -0.80354  -0.78311
 Alpha  occ. eigenvalues --   -0.76840  -0.76391  -0.75926  -0.75745  -0.75404
 Alpha  occ. eigenvalues --   -0.74957  -0.74865  -0.74116  -0.73935  -0.70283
 Alpha  occ. eigenvalues --   -0.69152  -0.67035  -0.65720  -0.64428  -0.63285
 Alpha  occ. eigenvalues --   -0.63127  -0.62413  -0.61733  -0.60320  -0.59638
 Alpha  occ. eigenvalues --   -0.59107  -0.58772  -0.58335  -0.57780  -0.56777
 Alpha  occ. eigenvalues --   -0.56422  -0.55839  -0.54754  -0.54516  -0.53603
 Alpha  occ. eigenvalues --   -0.53249  -0.52819  -0.52363  -0.51215  -0.51126
 Alpha  occ. eigenvalues --   -0.51091  -0.50583  -0.50319  -0.49888  -0.49621
 Alpha  occ. eigenvalues --   -0.49262  -0.48856  -0.48696  -0.48423  -0.48008
 Alpha  occ. eigenvalues --   -0.47609  -0.47384  -0.47249  -0.47067  -0.46480
 Alpha  occ. eigenvalues --   -0.46114  -0.45471  -0.45208  -0.45118  -0.44856
 Alpha  occ. eigenvalues --   -0.44738  -0.44204  -0.43876  -0.43776  -0.43422
 Alpha  occ. eigenvalues --   -0.43173  -0.42992  -0.42667  -0.42549  -0.42208
 Alpha  occ. eigenvalues --   -0.42001  -0.41512  -0.40886  -0.40301  -0.40158
 Alpha  occ. eigenvalues --   -0.40034  -0.39739  -0.39577  -0.39097  -0.39010
 Alpha  occ. eigenvalues --   -0.38986  -0.38556  -0.38481  -0.38402  -0.37972
 Alpha  occ. eigenvalues --   -0.37707  -0.36822  -0.36603  -0.36515  -0.35641
 Alpha  occ. eigenvalues --   -0.35338  -0.34335  -0.33737  -0.32411  -0.32179
 Alpha  occ. eigenvalues --   -0.31650  -0.29439  -0.28353  -0.26858  -0.24212
 Alpha  occ. eigenvalues --   -0.20950
 Alpha virt. eigenvalues --   -0.03838  -0.00013   0.03434   0.06544   0.07751
 Alpha virt. eigenvalues --    0.09214   0.10822   0.11131   0.11284   0.11735
 Alpha virt. eigenvalues --    0.12607   0.13104   0.13257   0.13387   0.13689

 Mulliken charges:
               1
     1  O   -0.510791
     2  O   -0.540737
     3  C   -0.004564
     4  C    0.014862
     5  C   -0.192948
     6  C   -0.184205
     7  C    0.180134
     8  C    0.193246
     9  C    0.024249
    10  C    0.003828
    11  C   -0.236280
    12  C   -0.212370
    13  C    0.132717
    14  C    0.096501
    15  C   -0.303129
    16  C   -0.303712
    17  C   -0.283821
    18  C   -0.302546
    19  C   -0.139451
    20  C   -0.156280
    21  C   -0.365840
    22  C   -0.357354
    23  C   -0.111477
    24  C   -0.079607
    25  C    0.113717
    26  C    0.100083
    27  C   -0.383639
    28  C   -0.366680
    29  C   -0.119340
    30  C   -0.095013
    31  C   -0.073250
    32  C   -0.082332
    33  C   -0.115227
    34  C   -0.138681
    35  C    0.080049
    36  C    0.130063
    37  C   -0.362538
    38  C   -0.359628
    39  C   -0.122223
    40  C   -0.100989
    41  C   -0.046520
    42  C   -0.121324
    43  H    0.113317
    44  H    0.068563
    45  H    0.066546
    46  H    0.103164
    47  H    0.051962
    48  H    0.032526
    49  H    0.090245
    50  H    0.085744
    51  H    0.080020
    52  H    0.074754
    53  H    0.094152
    54  H    0.114676
    55  H    0.093736
    56  H    0.081615
    57  H    0.094824
    58  H    0.111858
    59  H    0.090098
    60  H    0.090629
    61  H    0.080265
    62  H    0.103864
    63  H    0.118295
    64  H    0.096117
    65  H    0.089475
    66  H    0.094934
    67  H    0.130573
    68  H    0.099699
    69  H    0.103317
    70  H    0.109736
    71  H    0.116847
    72  H    0.129215
    73  H    0.296543
    74  H    0.306658
    75  H    0.083467
    76  H    0.096852
    77  H    0.114551
    78  H    0.097492
    79  H    0.138629
    80  H    0.094939
    81  H    0.126100
    82  H    0.122321
    83  H    0.079459
    84  H    0.063652
    85  H    0.065337
    86  H    0.059343
    87  H    0.092048
    88  H    0.059490
    89  H    0.118462
    90  H    0.105392
    91  H    0.129825
    92  H    0.108831
    93  H    0.132097
    94  H    0.100087
    95  H    0.078424
    96  H    0.063045
    97  H    0.073655
    98  H    0.085581
 Sum of Mulliken charges =  -0.00000

 Dipole moment (field-independent basis, Debye):
    X=             -0.3090    Y=             -1.8541    Z=              1.4138  Tot=              2.3520
 Quadrupole moment (field-independent basis, Debye-Ang):
   XX=           -263.1607   YY=           -247.1143   ZZ=           -261.9871
   XY=             16.4847   XZ=              1.7342   YZ=              1.3136

 Normal termination of Gaussian 16 at Mon Jul  1 16:14:51 2019.
