 Gaussian 16, Revision A.03,
 Gaussian 16:  ES64L-G16RevA.03 25-Dec-2016

 -------------------------------------
 # td=(NStates=1) CAM-B3LYP/6-31G(d,p)
 -------------------------------------

 --
 TD
 --
 Symbolic Z-matrix:
 Charge =  0 Multiplicity = 1

                         Standard orientation:
 ---------------------------------------------------------------------
 Center     Atomic      Atomic             Coordinates (Angstroms)
 Number     Number       Type             X           Y           Z
 ---------------------------------------------------------------------
      1          8           0       14.723757   -2.180031   -0.531338
      2          8           0      -14.824941    1.935997    0.450667
      3          6           0       11.466981   -1.235261    1.127798
      4          6           0      -12.301848   -0.901213    0.835845
      5          6           0       13.003134   -1.376976    0.989476
      6          6           0      -13.699794   -0.221633    0.693133
      7          6           0       13.383823   -1.919706   -0.405529
      8          6           0      -13.615056    1.304311    0.583977
      9          6           0       10.948763   -0.304229   -0.060739
     10          6           0      -11.286778   -0.413259   -0.311895
     11          6           0       13.127774   -0.851317   -1.431043
     12          6           0      -12.818785    1.630556   -0.686839
     13          6           0       11.704524   -0.170478   -1.134505
     14          6           0      -11.593736    0.762972   -0.943045
     15          6           0       11.307829   -0.407293    2.379375
     16          6           0       10.691593   -2.514076    1.148465
     17          6           0      -11.651893   -0.657896    2.211280
     18          6           0      -12.478537   -2.496947    0.725537
     19          6           0        9.620913    0.399667    0.231543
     20          6           0      -10.090415   -1.111324   -0.397387
     21          6           0       11.318672    0.631678   -2.426199
     22          6           0      -10.750218    1.376939   -2.073949
     23          6           0        9.385199    1.638647   -0.053951
     24          6           0       -8.852483   -0.549378   -0.394962
     25          6           0        8.030856    2.249183    0.095335
     26          6           0       -7.601822   -1.325091   -0.464052
     27          6           0        8.060293    3.708278    0.587528
     28          6           0       -7.692111   -2.764909   -0.819610
     29          6           0        6.827193    1.549252   -0.076158
     30          6           0       -6.413944   -0.602176   -0.332548
     31          6           0        5.549793    2.004462    0.192414
     32          6           0       -5.039975   -1.124777   -0.424103
     33          6           0        4.381358    1.243849    0.217122
     34          6           0       -4.032553   -0.313677   -0.124214
     35          6           0        2.977484    1.627507    0.300414
     36          6           0       -2.724600   -0.710732   -0.301585
     37          6           0        2.721039    3.070197    0.727007
     38          6           0       -2.396126   -2.120518   -0.907019
     39          6           0        1.983023    0.730218    0.040759
     40          6           0       -1.672776    0.174438   -0.100178
     41          6           0        0.715412    0.982004    0.153610
     42          6           0       -0.189540    0.035561   -0.216492
     43          1           0       13.451291   -0.407077    1.352034
     44          1           0       13.267875   -2.162231    1.634488
     45          1           0      -14.321367   -0.499858    1.619485
     46          1           0      -14.168062   -0.674009   -0.257871
     47          1           0       12.758149   -2.847574   -0.579577
     48          1           0      -13.253292    1.841309    1.473458
     49          1           0       13.966028   -0.237578   -1.321662
     50          1           0       13.094658   -1.107902   -2.429516
     51          1           0      -13.701461    1.635659   -1.364133
     52          1           0      -12.485460    2.675060   -0.540950
     53          1           0       11.775702   -0.802797    3.109703
     54          1           0       10.356643   -0.123730    2.571014
     55          1           0       12.003825    0.386728    2.123658
     56          1           0       10.812203   -3.113640    0.305338
     57          1           0       11.158716   -3.114154    2.103742
     58          1           0        9.560428   -2.618083    1.333876
     59          1           0      -11.550342    0.363539    2.397002
     60          1           0      -10.638648   -1.124624    2.209906
     61          1           0      -12.359256   -0.997114    3.019737
     62          1           0      -13.235107   -2.683318    1.614411
     63          1           0      -11.561618   -3.007450    1.123479
     64          1           0      -12.763086   -2.901862   -0.323116
     65          1           0        8.818404   -0.248616    0.415711
     66          1           0       -9.983467   -2.266190   -0.506635
     67          1           0       10.314856    1.143182   -2.224341
     68          1           0       12.102674    1.433869   -2.716686
     69          1           0       11.349113    0.002920   -3.249469
     70          1           0      -11.133424    1.680287   -2.995431
     71          1           0       -9.782548    0.900876   -2.239941
     72          1           0      -10.628877    2.401951   -1.499309
     73          1           0       15.127840   -2.724825    0.254107
     74          1           0      -15.311270    1.877453    1.332834
     75          1           0       10.221956    2.219667   -0.387804
     76          1           0       -8.941725    0.585818   -0.146727
     77          1           0        8.561956    4.321147   -0.283435
     78          1           0        7.070579    4.063170    0.950313
     79          1           0        8.921588    3.865777    1.490304
     80          1           0       -7.910974   -3.574942   -0.046409
     81          1           0       -8.294849   -2.824779   -1.771488
     82          1           0       -6.563454   -3.058144   -0.783657
     83          1           0        6.600865    0.354400   -0.259555
     84          1           0       -6.337301    0.511017   -0.317738
     85          1           0        5.578214    3.041095    0.538513
     86          1           0       -4.893283   -2.115008   -0.531112
     87          1           0        4.497964    0.129124   -0.074061
     88          1           0       -4.389014    0.709709    0.346679
     89          1           0        3.305023    3.254975    1.531392
     90          1           0        1.565453    3.276139    0.705932
     91          1           0        3.065882    3.765663   -0.172228
     92          1           0       -2.998390   -2.831229   -0.175102
     93          1           0       -2.588855   -2.167889   -1.990328
     94          1           0       -1.467389   -2.338738   -0.945858
     95          1           0        2.537908   -0.266971   -0.246744
     96          1           0       -2.138171    1.088612    0.443801
     97          1           0        0.377161    1.872953    0.666033
     98          1           0        0.171230   -0.770613   -0.568400
 ---------------------------------------------------------------------

 SCF Done:  E(RCAM-B3LYP) =  -1706.96468831     A.U. after   14 cycles

 Excitation energies and oscillator strengths:

 Excited State   1:      Singlet-A      2.4684 eV  502.28 nm  f=3.8312  <S**2>=0.000
     155 ->158         0.15656
     156 ->157         0.68667
 This state for optimization and/or second-order correction.
 Total Energy, E(TD-HF/TD-DFT) =  -1706.87397534
 Copying the excited state density for this state as the 1-particle RhoCI density.

 The electronic state is 1-A.
 Alpha  occ. eigenvalues --  -19.21442 -19.21183 -10.30092 -10.29725 -10.28942
 Alpha  occ. eigenvalues --  -10.28734 -10.27792 -10.27629 -10.27346 -10.27319
 Alpha  occ. eigenvalues --  -10.27222 -10.27207 -10.27194 -10.27157 -10.26961
 Alpha  occ. eigenvalues --  -10.26799 -10.26616 -10.26448 -10.26396 -10.26281
 Alpha  occ. eigenvalues --  -10.26263 -10.26136 -10.26031 -10.25763 -10.25758
 Alpha  occ. eigenvalues --  -10.25698 -10.25643 -10.25630 -10.25611 -10.25581
 Alpha  occ. eigenvalues --  -10.25478 -10.25431 -10.25414 -10.25311 -10.25130
 Alpha  occ. eigenvalues --  -10.24977 -10.24922 -10.24864 -10.24679 -10.24045
 Alpha  occ. eigenvalues --  -10.23911 -10.21363  -1.10543  -1.09742  -0.93210
 Alpha  occ. eigenvalues --   -0.92981  -0.92523  -0.91830  -0.90729  -0.89427
 Alpha  occ. eigenvalues --   -0.87923  -0.86460  -0.85818  -0.85504  -0.84744
 Alpha  occ. eigenvalues --   -0.82990  -0.81974  -0.79794  -0.79434  -0.78163
 Alpha  occ. eigenvalues --   -0.77752  -0.76574  -0.75924  -0.75642  -0.75306
 Alpha  occ. eigenvalues --   -0.75153  -0.74977  -0.74094  -0.73608  -0.70440
 Alpha  occ. eigenvalues --   -0.68438  -0.67229  -0.65817  -0.65159  -0.63782
 Alpha  occ. eigenvalues --   -0.63249  -0.62727  -0.62204  -0.61370  -0.59532
 Alpha  occ. eigenvalues --   -0.59330  -0.58857  -0.58704  -0.57589  -0.55904
 Alpha  occ. eigenvalues --   -0.55688  -0.55502  -0.54622  -0.54576  -0.53850
 Alpha  occ. eigenvalues --   -0.53255  -0.52831  -0.52347  -0.52074  -0.51151
 Alpha  occ. eigenvalues --   -0.50675  -0.50283  -0.50150  -0.49228  -0.49105
 Alpha  occ. eigenvalues --   -0.48908  -0.48697  -0.47904  -0.47782  -0.47574
 Alpha  occ. eigenvalues --   -0.47520  -0.47104  -0.46918  -0.46823  -0.46576
 Alpha  occ. eigenvalues --   -0.46148  -0.45616  -0.45486  -0.44927  -0.44689
 Alpha  occ. eigenvalues --   -0.44358  -0.43941  -0.43900  -0.43689  -0.42872
 Alpha  occ. eigenvalues --   -0.42660  -0.42498  -0.42397  -0.42238  -0.42151
 Alpha  occ. eigenvalues --   -0.42025  -0.41783  -0.41542  -0.40848  -0.40802
 Alpha  occ. eigenvalues --   -0.40411  -0.40201  -0.39600  -0.39375  -0.39190
 Alpha  occ. eigenvalues --   -0.38849  -0.38783  -0.38375  -0.38203  -0.38073
 Alpha  occ. eigenvalues --   -0.37615  -0.37253  -0.36857  -0.35911  -0.35646
 Alpha  occ. eigenvalues --   -0.35027  -0.33895  -0.32751  -0.32308  -0.31647
 Alpha  occ. eigenvalues --   -0.31460  -0.29809  -0.28565  -0.26725  -0.23715
 Alpha  occ. eigenvalues --   -0.19980
 Alpha virt. eigenvalues --   -0.05084  -0.00535   0.03175   0.06079   0.07915
 Alpha virt. eigenvalues --    0.09888   0.11152   0.11357   0.11677   0.11975
 Alpha virt. eigenvalues --    0.12470   0.12779   0.13131   0.13260   0.13589

 Mulliken charges:
               1
     1  O   -0.570587
     2  O   -0.563528
     3  C   -0.021394
     4  C   -0.016729
     5  C   -0.203319
     6  C   -0.178785
     7  C    0.193966
     8  C    0.177607
     9  C    0.031019
    10  C    0.067392
    11  C   -0.193826
    12  C   -0.230179
    13  C    0.012222
    14  C    0.030880
    15  C   -0.275679
    16  C   -0.299600
    17  C   -0.297223
    18  C   -0.299062
    19  C   -0.080715
    20  C   -0.146063
    21  C   -0.364233
    22  C   -0.343878
    23  C   -0.095693
    24  C   -0.095503
    25  C    0.034237
    26  C    0.079539
    27  C   -0.347166
    28  C   -0.375217
    29  C   -0.088204
    30  C   -0.125851
    31  C   -0.060782
    32  C   -0.065187
    33  C   -0.154835
    34  C   -0.101298
    35  C    0.103119
    36  C    0.078220
    37  C   -0.359576
    38  C   -0.339789
    39  C   -0.085355
    40  C   -0.144267
    41  C   -0.073954
    42  C   -0.072371
    43  H    0.099134
    44  H    0.080215
    45  H    0.063226
    46  H    0.098814
    47  H    0.067305
    48  H    0.068030
    49  H    0.126460
    50  H    0.106433
    51  H    0.131312
    52  H    0.104663
    53  H    0.098420
    54  H    0.108837
    55  H    0.093026
    56  H    0.117332
    57  H    0.064983
    58  H    0.100703
    59  H    0.107476
    60  H    0.111674
    61  H    0.086471
    62  H    0.082258
    63  H    0.101463
    64  H    0.100491
    65  H    0.096333
    66  H    0.084602
    67  H    0.105752
    68  H    0.095121
    69  H    0.121377
    70  H    0.123037
    71  H    0.117958
    72  H    0.085790
    73  H    0.303778
    74  H    0.307169
    75  H    0.099197
    76  H    0.086125
    77  H    0.116754
    78  H    0.120297
    79  H    0.099850
    80  H    0.121400
    81  H    0.136412
    82  H    0.094626
    83  H    0.070313
    84  H    0.085185
    85  H    0.064521
    86  H    0.077934
    87  H    0.063846
    88  H    0.088025
    89  H    0.134331
    90  H    0.099242
    91  H    0.108330
    92  H    0.102058
    93  H    0.121739
    94  H    0.113563
    95  H    0.077928
    96  H    0.062379
    97  H    0.095646
    98  H    0.062304
 Sum of Mulliken charges =  -0.00000

 Dipole moment (field-independent basis, Debye):
    X=              1.1276    Y=             -0.8012    Z=              2.4767  Tot=              2.8368
 Quadrupole moment (field-independent basis, Debye-Ang):
   XX=           -263.3199   YY=           -246.4877   ZZ=           -260.4431
   XY=              1.4455   XZ=             -2.7201   YZ=              2.9080

 Normal termination of Gaussian 16 at Sat Jul  6 14:59:48 2019.
