 Gaussian 16, Revision A.03,
 Gaussian 16:  ES64L-G16RevA.03 25-Dec-2016

 -------------------------------------
 # td=(NStates=1) CAM-B3LYP/6-31G(d,p)
 -------------------------------------

 --
 TD
 --
 Symbolic Z-matrix:
 Charge =  0 Multiplicity = 1

                         Standard orientation:
 ---------------------------------------------------------------------
 Center     Atomic      Atomic             Coordinates (Angstroms)
 Number     Number       Type             X           Y           Z
 ---------------------------------------------------------------------
      1          8           0       14.525784   -2.422974   -0.346828
      2          8           0      -14.890007    1.785039    0.642709
      3          6           0       11.412808   -1.055613    1.318045
      4          6           0      -12.242226   -1.006228    0.901885
      5          6           0       12.909123   -1.539701    1.160772
      6          6           0      -13.655297   -0.384986    0.804037
      7          6           0       13.202996   -2.049392   -0.263456
      8          6           0      -13.635785    1.308386    0.841213
      9          6           0       10.943976   -0.371797    0.000339
     10          6           0      -11.321006   -0.358988   -0.195629
     11          6           0       12.906996   -1.020973   -1.392476
     12          6           0      -12.755925    1.787979   -0.414174
     13          6           0       11.596356   -0.373678   -1.126161
     14          6           0      -11.563403    0.855188   -0.733344
     15          6           0       11.259304   -0.165323    2.463978
     16          6           0       10.657245   -2.367567    1.524278
     17          6           0      -11.550559   -0.876142    2.283411
     18          6           0      -12.503339   -2.461028    0.543228
     19          6           0        9.604375    0.353962    0.150859
     20          6           0      -10.066749   -1.092070   -0.511142
     21          6           0       11.039728    0.189454   -2.402426
     22          6           0      -10.635938    1.528715   -1.787366
     23          6           0        9.306230    1.658009   -0.067522
     24          6           0       -8.835076   -0.659523   -0.338121
     25          6           0        8.099313    2.334090    0.020199
     26          6           0       -7.478987   -1.346772   -0.557278
     27          6           0        8.183602    3.841618    0.336664
     28          6           0       -7.537475   -2.762405   -1.063591
     29          6           0        6.894200    1.641425   -0.112223
     30          6           0       -6.421478   -0.641581   -0.371713
     31          6           0        5.517581    2.198715    0.091695
     32          6           0       -5.076858   -1.122004   -0.425389
     33          6           0        4.444157    1.293223   -0.033774
     34          6           0       -3.983751   -0.242336   -0.296626
     35          6           0        3.148724    1.811055    0.089470
     36          6           0       -2.582520   -0.667211   -0.445761
     37          6           0        2.781087    3.254022    0.472203
     38          6           0       -2.343144   -2.146528   -0.817098
     39          6           0        2.185052    0.893470   -0.076626
     40          6           0       -1.639423    0.221183   -0.173955
     41          6           0        0.737409    1.120802   -0.058865
     42          6           0       -0.175389    0.077958   -0.294849
     43          1           0       13.598174   -0.659106    1.347396
     44          1           0       13.100611   -2.378254    1.713043
     45          1           0      -14.208718   -0.771834    1.541229
     46          1           0      -14.060133   -0.653544   -0.174767
     47          1           0       12.498916   -3.022689   -0.408650
     48          1           0      -13.108541    1.845033    1.735179
     49          1           0       13.596434   -0.040088   -1.422455
     50          1           0       12.966361   -1.570553   -2.473713
     51          1           0      -13.304217    1.664999   -1.331245
     52          1           0      -12.476181    2.773223   -0.466036
     53          1           0       11.623843   -0.446221    3.473936
     54          1           0       10.110467    0.059568    2.703873
     55          1           0       11.556285    0.862789    2.241873
     56          1           0       10.560724   -2.870284    0.557738
     57          1           0       11.073586   -3.074581    2.457360
     58          1           0        9.510890   -2.116583    1.685545
     59          1           0      -11.206473    0.279321    2.376886
     60          1           0      -10.575700   -1.541363    2.373474
     61          1           0      -12.307368   -1.232130    2.825387
     62          1           0      -13.293585   -2.761013    0.968445
     63          1           0      -11.518064   -3.153384    0.555522
     64          1           0      -12.814659   -2.676582   -0.522687
     65          1           0        8.636380   -0.278440    0.276574
     66          1           0      -10.238234   -2.181595   -0.665187
     67          1           0       10.026635    0.437399   -2.313692
     68          1           0       11.503298    1.104986   -2.596048
     69          1           0       10.936436   -0.544451   -3.292713
     70          1           0      -11.332207    2.022857   -2.525938
     71          1           0       -9.920162    0.682991   -2.145290
     72          1           0       -9.964052    2.218173   -1.262188
     73          1           0       14.670318   -3.212962    0.235710
     74          1           0      -15.498435    1.592703    1.353525
     75          1           0       10.218759    2.434979   -0.212662
     76          1           0       -8.752413    0.479660   -0.318498
     77          1           0        8.736810    4.359217   -0.135109
     78          1           0        7.172532    4.206917    0.269570
     79          1           0        8.528984    3.840534    1.353347
     80          1           0       -8.015993   -3.306391   -0.375018
     81          1           0       -8.023384   -2.784034   -2.090723
     82          1           0       -6.448150   -3.202454   -1.374312
     83          1           0        7.082972    0.530840   -0.421155
     84          1           0       -6.562232    0.335960    0.221892
     85          1           0        5.617735    3.209126    0.307384
     86          1           0       -4.736478   -2.074980   -0.708649
     87          1           0        4.669919    0.424278   -0.530749
     88          1           0       -4.243273    0.822971   -0.221128
     89          1           0        3.459296    3.678021    1.320771
     90          1           0        1.563436    3.109413    0.810201
     91          1           0        3.065757    4.014844   -0.376068
     92          1           0       -2.579960   -2.849605   -0.008978
     93          1           0       -2.777535   -2.365372   -1.749085
     94          1           0       -1.314709   -2.353546   -0.862560
     95          1           0        2.466393   -0.077666   -0.514101
     96          1           0       -1.702491    1.348807    0.263468
     97          1           0        0.332471    2.023473    0.250757
     98          1           0        0.057102   -1.004328   -0.344009
 ---------------------------------------------------------------------

 SCF Done:  E(RCAM-B3LYP) =  -1706.94205681     A.U. after   14 cycles

 Excitation energies and oscillator strengths:

 Excited State   1:      Singlet-A      2.7537 eV  450.24 nm  f=3.3660  <S**2>=0.000
     155 ->158         0.16679
     156 ->157         0.68258
 This state for optimization and/or second-order correction.
 Total Energy, E(TD-HF/TD-DFT) =  -1706.84085955
 Copying the excited state density for this state as the 1-particle RhoCI density.

 The electronic state is 1-A.
 Alpha  occ. eigenvalues --  -19.21425 -19.21245 -10.32237 -10.31222 -10.28887
 Alpha  occ. eigenvalues --  -10.27534 -10.27164 -10.27065 -10.27028 -10.26962
 Alpha  occ. eigenvalues --  -10.26892 -10.26841 -10.26820 -10.26785 -10.26752
 Alpha  occ. eigenvalues --  -10.26734 -10.26642 -10.26505 -10.26337 -10.26301
 Alpha  occ. eigenvalues --  -10.26225 -10.25975 -10.25949 -10.25928 -10.25919
 Alpha  occ. eigenvalues --  -10.25853 -10.25788 -10.25716 -10.25592 -10.25477
 Alpha  occ. eigenvalues --  -10.25357 -10.25303 -10.25284 -10.25238 -10.24929
 Alpha  occ. eigenvalues --  -10.24785 -10.24494 -10.24333 -10.24313 -10.24136
 Alpha  occ. eigenvalues --  -10.23666 -10.23590  -1.11459  -1.10337  -0.93451
 Alpha  occ. eigenvalues --   -0.92344  -0.92061  -0.91341  -0.90547  -0.89929
 Alpha  occ. eigenvalues --   -0.87461  -0.86797  -0.86079  -0.84549  -0.83660
 Alpha  occ. eigenvalues --   -0.82440  -0.81126  -0.80303  -0.78568  -0.77963
 Alpha  occ. eigenvalues --   -0.76823  -0.76666  -0.76517  -0.75839  -0.75599
 Alpha  occ. eigenvalues --   -0.75240  -0.74807  -0.74496  -0.73655  -0.70669
 Alpha  occ. eigenvalues --   -0.68661  -0.67888  -0.65898  -0.64688  -0.63599
 Alpha  occ. eigenvalues --   -0.63266  -0.62994  -0.61373  -0.60925  -0.60027
 Alpha  occ. eigenvalues --   -0.58340  -0.57800  -0.57754  -0.56758  -0.55674
 Alpha  occ. eigenvalues --   -0.55405  -0.54739  -0.54551  -0.54158  -0.53401
 Alpha  occ. eigenvalues --   -0.53223  -0.52372  -0.52188  -0.51313  -0.50992
 Alpha  occ. eigenvalues --   -0.50488  -0.50390  -0.49862  -0.49608  -0.49438
 Alpha  occ. eigenvalues --   -0.49096  -0.48686  -0.48536  -0.48392  -0.48129
 Alpha  occ. eigenvalues --   -0.48059  -0.47221  -0.46818  -0.46586  -0.46194
 Alpha  occ. eigenvalues --   -0.46000  -0.45639  -0.45342  -0.45014  -0.44985
 Alpha  occ. eigenvalues --   -0.44616  -0.44437  -0.44206  -0.43953  -0.43834
 Alpha  occ. eigenvalues --   -0.43282  -0.43144  -0.42676  -0.41934  -0.41803
 Alpha  occ. eigenvalues --   -0.41142  -0.40911  -0.40722  -0.40477  -0.40200
 Alpha  occ. eigenvalues --   -0.39939  -0.39885  -0.39411  -0.39279  -0.39216
 Alpha  occ. eigenvalues --   -0.38946  -0.38638  -0.38282  -0.38067  -0.37884
 Alpha  occ. eigenvalues --   -0.36995  -0.36757  -0.36119  -0.35627  -0.35281
 Alpha  occ. eigenvalues --   -0.34797  -0.34100  -0.33380  -0.31985  -0.31073
 Alpha  occ. eigenvalues --   -0.30965  -0.29575  -0.28450  -0.26698  -0.24024
 Alpha  occ. eigenvalues --   -0.20688
 Alpha virt. eigenvalues --   -0.04078   0.00088   0.03706   0.06893   0.08316
 Alpha virt. eigenvalues --    0.09610   0.11156   0.11423   0.12132   0.12628
 Alpha virt. eigenvalues --    0.12886   0.12958   0.13113   0.13408   0.13695

 Mulliken charges:
               1
     1  O   -0.546818
     2  O   -0.530700
     3  C    0.019120
     4  C   -0.018779
     5  C   -0.168016
     6  C   -0.210210
     7  C    0.170459
     8  C    0.166594
     9  C    0.034012
    10  C    0.057542
    11  C   -0.202927
    12  C   -0.223628
    13  C    0.057788
    14  C    0.022983
    15  C   -0.308884
    16  C   -0.295688
    17  C   -0.268187
    18  C   -0.299395
    19  C   -0.144367
    20  C   -0.160713
    21  C   -0.356434
    22  C   -0.359918
    23  C   -0.081430
    24  C   -0.086922
    25  C    0.066921
    26  C    0.120876
    27  C   -0.331717
    28  C   -0.357399
    29  C   -0.137499
    30  C   -0.136612
    31  C   -0.086821
    32  C   -0.091486
    33  C   -0.109582
    34  C   -0.107794
    35  C    0.144093
    36  C    0.077407
    37  C   -0.348928
    38  C   -0.378032
    39  C   -0.130966
    40  C   -0.116445
    41  C   -0.106280
    42  C   -0.088747
    43  H    0.096320
    44  H    0.079320
    45  H    0.085138
    46  H    0.115064
    47  H    0.049299
    48  H    0.064025
    49  H    0.106222
    50  H    0.099438
    51  H    0.122357
    52  H    0.112103
    53  H    0.100441
    54  H    0.085169
    55  H    0.106042
    56  H    0.111637
    57  H    0.082123
    58  H    0.081703
    59  H    0.094753
    60  H    0.099366
    61  H    0.105852
    62  H    0.102590
    63  H    0.080773
    64  H    0.097364
    65  H    0.081464
    66  H    0.070802
    67  H    0.121279
    68  H    0.120524
    69  H    0.096307
    70  H    0.099174
    71  H    0.113916
    72  H    0.118262
    73  H    0.305638
    74  H    0.306937
    75  H    0.057883
    76  H    0.075754
    77  H    0.121085
    78  H    0.097677
    79  H    0.127935
    80  H    0.134455
    81  H    0.119988
    82  H    0.088662
    83  H    0.070490
    84  H    0.087703
    85  H    0.081505
    86  H    0.080912
    87  H    0.099587
    88  H    0.083149
    89  H    0.111122
    90  H    0.092028
    91  H    0.118444
    92  H    0.130388
    93  H    0.135045
    94  H    0.110549
    95  H    0.083053
    96  H    0.071372
    97  H    0.084568
    98  H    0.078775
 Sum of Mulliken charges =  -0.00000

 Dipole moment (field-independent basis, Debye):
    X=             -0.9633    Y=             -1.2440    Z=              1.5242  Tot=              2.1906
 Quadrupole moment (field-independent basis, Debye-Ang):
   XX=           -256.0364   YY=           -240.4674   ZZ=           -262.6978
   XY=              8.0741   XZ=             -7.7868   YZ=              2.3324

 Normal termination of Gaussian 16 at Fri Jul  5 17:34:21 2019.
