 Gaussian 16, Revision A.03,
 Gaussian 16:  ES64L-G16RevA.03 25-Dec-2016

 -------------------------------------
 # td=(NStates=1) CAM-B3LYP/6-31G(d,p)
 -------------------------------------

 --
 TD
 --
 Symbolic Z-matrix:
 Charge =  0 Multiplicity = 1

                         Standard orientation:
 ---------------------------------------------------------------------
 Center     Atomic      Atomic             Coordinates (Angstroms)
 Number     Number       Type             X           Y           Z
 ---------------------------------------------------------------------
      1          8           0       14.672625   -2.071360   -0.555720
      2          8           0      -14.721302    2.097501    0.658366
      3          6           0       11.566807   -1.025729    1.227366
      4          6           0      -12.283688   -0.815172    0.831243
      5          6           0       13.046821   -1.272333    0.999878
      6          6           0      -13.635562   -0.151462    0.703072
      7          6           0       13.395269   -1.841655   -0.374131
      8          6           0      -13.489228    1.409937    0.634039
      9          6           0       10.988720   -0.178487   -0.060523
     10          6           0      -11.339013   -0.200759   -0.240047
     11          6           0       12.967017   -0.820301   -1.466381
     12          6           0      -12.745197    1.741400   -0.605156
     13          6           0       11.732967   -0.122563   -1.252089
     14          6           0      -11.534277    0.980389   -0.886351
     15          6           0       11.352069   -0.223675    2.377562
     16          6           0       10.879446   -2.379160    1.329729
     17          6           0      -11.750262   -0.858989    2.236075
     18          6           0      -12.696097   -2.323452    0.313892
     19          6           0        9.708556    0.379563    0.201986
     20          6           0      -10.073493   -0.968318   -0.328532
     21          6           0       11.238371    0.708457   -2.407446
     22          6           0      -10.659084    1.379371   -2.030868
     23          6           0        9.355215    1.626568   -0.253890
     24          6           0       -8.782255   -0.479455   -0.229122
     25          6           0        7.970816    2.247734    0.072045
     26          6           0       -7.670812   -1.237695   -0.587340
     27          6           0        8.005599    3.746837    0.343377
     28          6           0       -7.651882   -2.667836   -1.101451
     29          6           0        6.743670    1.562525   -0.057314
     30          6           0       -6.490979   -0.683018   -0.427620
     31          6           0        5.476376    1.845201    0.241122
     32          6           0       -5.133203   -1.169287   -0.428177
     33          6           0        4.480275    1.043335    0.170340
     34          6           0       -4.033694   -0.451003   -0.217731
     35          6           0        3.018392    1.423767    0.399179
     36          6           0       -2.637770   -0.907052   -0.123070
     37          6           0        2.792387    2.858990    0.549874
     38          6           0       -2.502278   -2.320842   -0.734111
     39          6           0        2.095580    0.470597    0.191185
     40          6           0       -1.674340    0.012558    0.026006
     41          6           0        0.636374    0.710028    0.304851
     42          6           0       -0.321976   -0.288208   -0.012167
     43          1           0       13.567640   -0.224244    1.029051
     44          1           0       13.376637   -1.714356    1.935565
     45          1           0      -14.349955   -0.373146    1.595190
     46          1           0      -14.203559   -0.472581   -0.270610
     47          1           0       12.700830   -2.722792   -0.336013
     48          1           0      -12.901253    1.649221    1.519057
     49          1           0       13.877031   -0.119166   -1.563177
     50          1           0       12.962080   -1.411994   -2.406514
     51          1           0      -13.443388    1.712310   -1.271151
     52          1           0      -12.421788    2.799651   -0.675361
     53          1           0       11.798897   -0.796745    3.232778
     54          1           0       10.286252   -0.282274    2.607847
     55          1           0       11.644271    0.747791    2.217776
     56          1           0       11.087478   -2.986793    0.499771
     57          1           0       11.173151   -2.877685    2.234830
     58          1           0        9.958396   -2.490195    1.442484
     59          1           0      -11.490259    0.222221    2.763962
     60          1           0      -10.857499   -1.342674    2.453625
     61          1           0      -12.477300   -1.276322    2.985683
     62          1           0      -13.546244   -2.748415    0.783018
     63          1           0      -11.919989   -2.994313    0.642516
     64          1           0      -12.847620   -2.313548   -0.843935
     65          1           0        9.040456   -0.228648    0.659686
     66          1           0      -10.231563   -2.093517   -0.644092
     67          1           0       10.215971    1.288822   -2.351024
     68          1           0       12.054170    1.453880   -2.821207
     69          1           0       11.402593    0.119791   -3.345019
     70          1           0      -11.271169    1.890454   -2.914036
     71          1           0       -9.880079    0.605587   -2.348908
     72          1           0      -10.206789    2.314348   -1.741349
     73          1           0       15.036804   -2.686922    0.247316
     74          1           0      -15.294917    1.931951    1.493578
     75          1           0        9.983393    2.360882   -0.593289
     76          1           0       -8.753082    0.569576    0.025895
     77          1           0        8.988346    4.130924   -0.203892
     78          1           0        7.062625    4.327012    0.027820
     79          1           0        8.281760    3.860310    1.391803
     80          1           0       -8.415932   -3.326984   -0.295090
     81          1           0       -7.996044   -2.701667   -1.989919
     82          1           0       -6.617089   -3.065791   -1.133587
     83          1           0        7.043853    0.495188   -0.230432
     84          1           0       -6.436878    0.289806   -0.024499
     85          1           0        5.381747    2.857875    0.615428
     86          1           0       -5.101235   -2.156565   -1.138904
     87          1           0        4.650830   -0.170538   -0.042895
     88          1           0       -4.286672    0.681566   -0.101158
     89          1           0        3.128923    2.983230    1.486187
     90          1           0        1.768032    3.300882    0.619542
     91          1           0        3.059745    3.352583   -0.190094
     92          1           0       -2.909802   -3.146793   -0.141694
     93          1           0       -2.906625   -2.368604   -1.765487
     94          1           0       -1.417203   -2.662250   -0.745670
     95          1           0        2.515421   -0.511212    0.077711
     96          1           0       -1.974609    1.121857    0.380920
     97          1           0        0.179792    1.646787    0.464345
     98          1           0        0.247008   -1.221712   -0.101358
 ---------------------------------------------------------------------

 SCF Done:  E(RCAM-B3LYP) =  -1706.92522743     A.U. after   14 cycles

 Excitation energies and oscillator strengths:

 Excited State   1:      Singlet-A      2.7757 eV  446.67 nm  f=3.7688  <S**2>=0.000
     155 ->158        -0.19697
     156 ->157         0.67069
 This state for optimization and/or second-order correction.
 Total Energy, E(TD-HF/TD-DFT) =  -1706.82322148
 Copying the excited state density for this state as the 1-particle RhoCI density.

 The electronic state is 1-A.
 Alpha  occ. eigenvalues --  -19.22926 -19.21105 -10.30307 -10.29418 -10.27853
 Alpha  occ. eigenvalues --  -10.27789 -10.27281 -10.27225 -10.27139 -10.27104
 Alpha  occ. eigenvalues --  -10.27022 -10.26818 -10.26575 -10.26421 -10.26386
 Alpha  occ. eigenvalues --  -10.26379 -10.26309 -10.26305 -10.26121 -10.26120
 Alpha  occ. eigenvalues --  -10.26055 -10.25994 -10.25961 -10.25876 -10.25868
 Alpha  occ. eigenvalues --  -10.25807 -10.25791 -10.25776 -10.25552 -10.25528
 Alpha  occ. eigenvalues --  -10.25474 -10.25447 -10.25435 -10.24900 -10.24836
 Alpha  occ. eigenvalues --  -10.24533 -10.24427 -10.23961 -10.23253 -10.23221
 Alpha  occ. eigenvalues --  -10.22992 -10.22212  -1.12548  -1.07978  -0.93845
 Alpha  occ. eigenvalues --   -0.93316  -0.92379  -0.91883  -0.90773  -0.89539
 Alpha  occ. eigenvalues --   -0.88367  -0.87034  -0.87023  -0.86054  -0.84340
 Alpha  occ. eigenvalues --   -0.83212  -0.82108  -0.79946  -0.79740  -0.78916
 Alpha  occ. eigenvalues --   -0.78868  -0.76562  -0.76099  -0.75931  -0.75697
 Alpha  occ. eigenvalues --   -0.75016  -0.74912  -0.74846  -0.73960  -0.69890
 Alpha  occ. eigenvalues --   -0.68951  -0.67311  -0.65669  -0.65288  -0.64369
 Alpha  occ. eigenvalues --   -0.63287  -0.62810  -0.61679  -0.60410  -0.60002
 Alpha  occ. eigenvalues --   -0.59368  -0.58919  -0.58412  -0.57830  -0.57178
 Alpha  occ. eigenvalues --   -0.56150  -0.55326  -0.55018  -0.54475  -0.54128
 Alpha  occ. eigenvalues --   -0.53437  -0.53234  -0.52573  -0.52146  -0.51532
 Alpha  occ. eigenvalues --   -0.51206  -0.50626  -0.50312  -0.49844  -0.49640
 Alpha  occ. eigenvalues --   -0.48751  -0.48466  -0.48321  -0.48211  -0.47820
 Alpha  occ. eigenvalues --   -0.47607  -0.47371  -0.47305  -0.46993  -0.45952
 Alpha  occ. eigenvalues --   -0.45663  -0.45499  -0.45247  -0.45120  -0.44827
 Alpha  occ. eigenvalues --   -0.44786  -0.44392  -0.43869  -0.43348  -0.43154
 Alpha  occ. eigenvalues --   -0.42878  -0.42678  -0.42379  -0.42026  -0.41897
 Alpha  occ. eigenvalues --   -0.41576  -0.41288  -0.40907  -0.40615  -0.40373
 Alpha  occ. eigenvalues --   -0.40294  -0.40225  -0.40167  -0.40071  -0.39521
 Alpha  occ. eigenvalues --   -0.39080  -0.38992  -0.38731  -0.38671  -0.37640
 Alpha  occ. eigenvalues --   -0.37444  -0.36763  -0.36400  -0.36036  -0.35962
 Alpha  occ. eigenvalues --   -0.35373  -0.34689  -0.32830  -0.32092  -0.31036
 Alpha  occ. eigenvalues --   -0.30495  -0.28968  -0.27795  -0.25847  -0.23379
 Alpha  occ. eigenvalues --   -0.20668
 Alpha virt. eigenvalues --   -0.03906  -0.00477   0.02610   0.05570   0.07949
 Alpha virt. eigenvalues --    0.09796   0.10143   0.10905   0.11584   0.11657
 Alpha virt. eigenvalues --    0.12370   0.12886   0.13258   0.13428   0.13637

 Mulliken charges:
               1
     1  O   -0.540212
     2  O   -0.583200
     3  C   -0.013624
     4  C    0.022237
     5  C   -0.202648
     6  C   -0.186562
     7  C    0.214204
     8  C    0.178693
     9  C    0.009155
    10  C    0.015321
    11  C   -0.257877
    12  C   -0.209783
    13  C    0.119847
    14  C    0.093549
    15  C   -0.282979
    16  C   -0.298710
    17  C   -0.308206
    18  C   -0.319067
    19  C   -0.084820
    20  C   -0.162342
    21  C   -0.377484
    22  C   -0.369331
    23  C   -0.120120
    24  C   -0.100938
    25  C    0.028004
    26  C    0.144804
    27  C   -0.370993
    28  C   -0.343926
    29  C   -0.111111
    30  C   -0.146204
    31  C   -0.037819
    32  C   -0.071315
    33  C   -0.120213
    34  C   -0.127845
    35  C    0.085136
    36  C    0.097045
    37  C   -0.348350
    38  C   -0.370540
    39  C   -0.134800
    40  C   -0.113205
    41  C   -0.100427
    42  C   -0.069385
    43  H    0.071861
    44  H    0.073179
    45  H    0.060683
    46  H    0.087609
    47  H    0.054947
    48  H    0.073794
    49  H    0.117592
    50  H    0.116011
    51  H    0.130667
    52  H    0.093894
    53  H    0.083393
    54  H    0.097825
    55  H    0.116655
    56  H    0.109080
    57  H    0.087738
    58  H    0.102416
    59  H    0.074767
    60  H    0.125168
    61  H    0.097102
    62  H    0.108828
    63  H    0.098324
    64  H    0.102270
    65  H    0.103013
    66  H    0.082510
    67  H    0.125258
    68  H    0.094388
    69  H    0.102674
    70  H    0.093416
    71  H    0.129687
    72  H    0.116850
    73  H    0.315020
    74  H    0.313079
    75  H    0.101014
    76  H    0.094477
    77  H    0.091269
    78  H    0.114814
    79  H    0.133080
    80  H    0.075338
    81  H    0.136933
    82  H    0.108470
    83  H    0.056382
    84  H    0.061587
    85  H    0.084968
    86  H    0.058764
    87  H    0.068421
    88  H    0.073776
    89  H    0.136700
    90  H    0.095115
    91  H    0.134825
    92  H    0.124153
    93  H    0.129868
    94  H    0.095468
    95  H    0.079779
    96  H    0.090419
    97  H    0.079404
    98  H    0.091317
 Sum of Mulliken charges =  -0.00000

 Dipole moment (field-independent basis, Debye):
    X=              1.8772    Y=             -0.8017    Z=              1.9786  Tot=              2.8428
 Quadrupole moment (field-independent basis, Debye-Ang):
   XX=           -250.9694   YY=           -245.7051   ZZ=           -257.8925
   XY=             -0.1822   XZ=              2.4633   YZ=             -0.5246

 Normal termination of Gaussian 16 at Wed Jul 10 04:00:05 2019.
