 Gaussian 16, Revision A.03,
 Gaussian 16:  ES64L-G16RevA.03 25-Dec-2016

 -------------------------------------
 # td=(NStates=1) CAM-B3LYP/6-31G(d,p)
 -------------------------------------

 --
 TD
 --
 Symbolic Z-matrix:
 Charge =  0 Multiplicity = 1

                         Standard orientation:
 ---------------------------------------------------------------------
 Center     Atomic      Atomic             Coordinates (Angstroms)
 Number     Number       Type             X           Y           Z
 ---------------------------------------------------------------------
      1          8           0       14.709257   -2.187535   -0.539011
      2          8           0      -15.015141    1.758433    0.543859
      3          6           0       11.550135   -1.129066    1.217573
      4          6           0      -12.376354   -0.928886    0.744729
      5          6           0       13.049492   -1.446467    1.033412
      6          6           0      -13.798034   -0.347943    0.695551
      7          6           0       13.339168   -1.978210   -0.275762
      8          6           0      -13.580390    1.211741    0.766334
      9          6           0       10.936794   -0.317631    0.085226
     10          6           0      -11.381618   -0.257400   -0.179188
     11          6           0       12.886269   -0.963294   -1.338319
     12          6           0      -12.875717    1.816264   -0.336488
     13          6           0       11.598500   -0.306685   -1.081378
     14          6           0      -11.547912    1.006493   -0.669413
     15          6           0       11.587534   -0.301509    2.498434
     16          6           0       10.716113   -2.433494    1.454775
     17          6           0      -11.917182   -0.913612    2.185174
     18          6           0      -12.580437   -2.405051    0.326329
     19          6           0        9.714218    0.466464    0.363922
     20          6           0      -10.104627   -0.974206   -0.319077
     21          6           0       11.048350    0.388146   -2.345042
     22          6           0      -10.577512    1.685747   -1.469275
     23          6           0        9.435642    1.758859    0.068264
     24          6           0       -8.889852   -0.466858   -0.207356
     25          6           0        8.018290    2.207022    0.239218
     26          6           0       -7.667203   -1.254820   -0.438999
     27          6           0        8.038951    3.769741    0.561731
     28          6           0       -7.707219   -2.762311   -0.999784
     29          6           0        6.920102    1.628225   -0.073382
     30          6           0       -6.478221   -0.555104   -0.256556
     31          6           0        5.636763    2.083557    0.052823
     32          6           0       -5.100100   -1.124968   -0.458099
     33          6           0        4.567293    1.307880   -0.220191
     34          6           0       -3.999281   -0.398594   -0.342292
     35          6           0        3.165689    1.659828   -0.021947
     36          6           0       -2.594453   -0.804872   -0.499580
     37          6           0        2.818680    2.987000    0.443900
     38          6           0       -2.399965   -2.297560   -0.733447
     39          6           0        2.207455    0.768050   -0.315200
     40          6           0       -1.570733    0.111289   -0.324180
     41          6           0        0.752449    0.881858   -0.309766
     42          6           0       -0.176880   -0.129765   -0.320126
     43          1           0       13.634933   -0.551294    0.935551
     44          1           0       13.465630   -2.074309    1.828226
     45          1           0      -14.370694   -0.676018    1.452256
     46          1           0      -14.397866   -0.572778   -0.280870
     47          1           0       12.656659   -2.855375   -0.457503
     48          1           0      -13.009547    1.651956    1.648381
     49          1           0       13.608105    0.054227   -1.425540
     50          1           0       13.084547   -1.505608   -2.426383
     51          1           0      -13.445673    1.887213   -1.238349
     52          1           0      -12.444538    2.893269   -0.196123
     53          1           0       12.090044   -0.719072    3.369792
     54          1           0       10.504064    0.035711    2.780061
     55          1           0       11.983683    0.705078    2.264537
     56          1           0       10.773109   -3.083268    0.565133
     57          1           0       11.326070   -2.907083    2.342373
     58          1           0        9.588462   -2.285250    1.889113
     59          1           0      -11.902766    0.169727    2.675667
     60          1           0      -10.844979   -1.079232    2.167001
     61          1           0      -12.589243   -1.601400    2.844239
     62          1           0      -13.402490   -3.081223    0.856448
     63          1           0      -11.792025   -2.839177    0.625193
     64          1           0      -12.781482   -2.801753   -0.691041
     65          1           0        8.773053   -0.110577    0.861797
     66          1           0      -10.398567   -2.028071   -0.462868
     67          1           0       10.223526    1.047120   -2.359216
     68          1           0       11.802132    1.170687   -2.896830
     69          1           0       10.717976   -0.505063   -3.217248
     70          1           0      -11.173723    2.116581   -2.254430
     71          1           0       -9.669905    1.021804   -1.818509
     72          1           0      -10.191850    2.683046   -0.886251
     73          1           0       15.254913   -2.701360    0.307236
     74          1           0      -15.339205    1.448867    1.324958
     75          1           0       10.194556    2.345276   -0.263115
     76          1           0       -8.838574    0.553424    0.071034
     77          1           0        8.838033    4.034370   -0.098717
     78          1           0        7.150674    4.351505    0.629274
     79          1           0        8.524109    3.829815    1.575316
     80          1           0       -8.164275   -3.473695   -0.221828
     81          1           0       -8.482701   -2.723835   -1.929676
     82          1           0       -6.859398   -3.357809   -1.419815
     83          1           0        6.979134    0.672174   -0.523159
     84          1           0       -6.355327    0.631715   -0.142416
     85          1           0        5.464569    2.978998    0.568404
     86          1           0       -4.931352   -2.130902   -0.777726
     87          1           0        4.785753    0.340233   -0.669986
     88          1           0       -4.027508    0.657952   -0.258302
     89          1           0        3.360056    3.345777    1.331994
     90          1           0        1.726975    3.213304    0.598149
     91          1           0        3.199994    3.837625   -0.255048
     92          1           0       -2.577876   -2.986672    0.169226
     93          1           0       -3.079953   -2.491995   -1.678650
     94          1           0       -1.203232   -2.292586   -0.589707
     95          1           0        2.454107   -0.289943   -0.476242
     96          1           0       -1.843776    1.248488   -0.217658
     97          1           0        0.240519    1.914474   -0.206533
     98          1           0        0.174991   -1.121399   -0.595686
 ---------------------------------------------------------------------

 SCF Done:  E(RCAM-B3LYP) =  -1706.96330841     A.U. after   13 cycles

 Excitation energies and oscillator strengths:

 Excited State   1:      Singlet-A      2.8768 eV  430.98 nm  f=3.6277  <S**2>=0.000
     155 ->158        -0.16857
     156 ->157         0.67974
 This state for optimization and/or second-order correction.
 Total Energy, E(TD-HF/TD-DFT) =  -1706.85758820
 Copying the excited state density for this state as the 1-particle RhoCI density.

 The electronic state is 1-A.
 Alpha  occ. eigenvalues --  -19.22706 -19.19502 -10.30730 -10.30205 -10.28999
 Alpha  occ. eigenvalues --  -10.28555 -10.27980 -10.27766 -10.27730 -10.27671
 Alpha  occ. eigenvalues --  -10.27550 -10.27536 -10.27509 -10.27441 -10.27408
 Alpha  occ. eigenvalues --  -10.27403 -10.27342 -10.27245 -10.26999 -10.26824
 Alpha  occ. eigenvalues --  -10.26591 -10.26367 -10.26340 -10.26298 -10.26118
 Alpha  occ. eigenvalues --  -10.26086 -10.26045 -10.26006 -10.25988 -10.25920
 Alpha  occ. eigenvalues --  -10.25835 -10.25492 -10.25348 -10.25312 -10.25259
 Alpha  occ. eigenvalues --  -10.25172 -10.25151 -10.25036 -10.24836 -10.24637
 Alpha  occ. eigenvalues --  -10.23949 -10.23845  -1.07879  -1.07507  -0.94304
 Alpha  occ. eigenvalues --   -0.94072  -0.92763  -0.91440  -0.90615  -0.89527
 Alpha  occ. eigenvalues --   -0.87820  -0.87457  -0.86806  -0.85974  -0.84753
 Alpha  occ. eigenvalues --   -0.83583  -0.82192  -0.80173  -0.79772  -0.77746
 Alpha  occ. eigenvalues --   -0.76905  -0.76629  -0.76189  -0.75591  -0.75552
 Alpha  occ. eigenvalues --   -0.75234  -0.74901  -0.74678  -0.73964  -0.70406
 Alpha  occ. eigenvalues --   -0.68412  -0.67154  -0.65492  -0.64579  -0.64067
 Alpha  occ. eigenvalues --   -0.63442  -0.63325  -0.61791  -0.61352  -0.60575
 Alpha  occ. eigenvalues --   -0.60164  -0.58291  -0.58088  -0.57406  -0.56169
 Alpha  occ. eigenvalues --   -0.55792  -0.55213  -0.54989  -0.54618  -0.53364
 Alpha  occ. eigenvalues --   -0.53237  -0.52522  -0.52317  -0.51612  -0.50424
 Alpha  occ. eigenvalues --   -0.49944  -0.49868  -0.49691  -0.49363  -0.48839
 Alpha  occ. eigenvalues --   -0.48623  -0.48085  -0.47981  -0.47786  -0.47579
 Alpha  occ. eigenvalues --   -0.47403  -0.47000  -0.46844  -0.46529  -0.46299
 Alpha  occ. eigenvalues --   -0.46148  -0.45360  -0.45239  -0.45185  -0.44929
 Alpha  occ. eigenvalues --   -0.44673  -0.44124  -0.43812  -0.43474  -0.42988
 Alpha  occ. eigenvalues --   -0.42856  -0.42636  -0.42524  -0.42211  -0.41667
 Alpha  occ. eigenvalues --   -0.41554  -0.41254  -0.41182  -0.40857  -0.40256
 Alpha  occ. eigenvalues --   -0.39959  -0.39946  -0.39721  -0.39549  -0.39242
 Alpha  occ. eigenvalues --   -0.39179  -0.38929  -0.38865  -0.38453  -0.38184
 Alpha  occ. eigenvalues --   -0.38076  -0.37559  -0.37301  -0.36533  -0.35674
 Alpha  occ. eigenvalues --   -0.35595  -0.35040  -0.33857  -0.32350  -0.32279
 Alpha  occ. eigenvalues --   -0.30978  -0.29839  -0.28333  -0.26689  -0.24411
 Alpha  occ. eigenvalues --   -0.21271
 Alpha virt. eigenvalues --   -0.04077   0.00024   0.02562   0.05360   0.07632
 Alpha virt. eigenvalues --    0.08530   0.09447   0.11031   0.11805   0.11960
 Alpha virt. eigenvalues --    0.12075   0.12641   0.12810   0.13361   0.13632

 Mulliken charges:
               1
     1  O   -0.572659
     2  O   -0.555287
     3  C   -0.031282
     4  C   -0.029709
     5  C   -0.178627
     6  C   -0.152866
     7  C    0.199458
     8  C    0.093450
     9  C    0.061764
    10  C    0.054559
    11  C   -0.222950
    12  C   -0.193093
    13  C    0.077092
    14  C    0.047741
    15  C   -0.301476
    16  C   -0.284792
    17  C   -0.298948
    18  C   -0.321140
    19  C   -0.121633
    20  C   -0.129145
    21  C   -0.337578
    22  C   -0.372862
    23  C   -0.088795
    24  C   -0.099783
    25  C    0.029742
    26  C    0.088441
    27  C   -0.367768
    28  C   -0.359127
    29  C   -0.074921
    30  C   -0.137807
    31  C   -0.051719
    32  C   -0.085838
    33  C   -0.127774
    34  C   -0.074911
    35  C    0.170363
    36  C    0.073950
    37  C   -0.398348
    38  C   -0.355605
    39  C   -0.153920
    40  C   -0.124904
    41  C   -0.096175
    42  C   -0.079150
    43  H    0.110073
    44  H    0.079240
    45  H    0.095227
    46  H    0.106112
    47  H    0.068552
    48  H    0.097939
    49  H    0.094193
    50  H    0.104249
    51  H    0.132484
    52  H    0.093835
    53  H    0.101839
    54  H    0.084760
    55  H    0.104615
    56  H    0.111379
    57  H    0.082257
    58  H    0.095330
    59  H    0.083498
    60  H    0.118617
    61  H    0.100029
    62  H    0.072607
    63  H    0.116635
    64  H    0.108666
    65  H    0.084907
    66  H    0.088603
    67  H    0.127631
    68  H    0.082519
    69  H    0.074750
    70  H    0.115756
    71  H    0.123442
    72  H    0.087052
    73  H    0.302458
    74  H    0.291903
    75  H    0.095918
    76  H    0.107761
    77  H    0.121792
    78  H    0.113138
    79  H    0.109740
    80  H    0.115982
    81  H    0.105279
    82  H    0.123840
    83  H    0.072664
    84  H    0.085044
    85  H    0.070787
    86  H    0.073900
    87  H    0.080883
    88  H    0.064129
    89  H    0.123606
    90  H    0.113752
    91  H    0.106018
    92  H    0.123683
    93  H    0.122797
    94  H    0.089057
    95  H    0.079684
    96  H    0.078913
    97  H    0.072340
    98  H    0.092165
 Sum of Mulliken charges =  -0.00000

 Dipole moment (field-independent basis, Debye):
    X=              1.8426    Y=             -1.2363    Z=              2.2159  Tot=              3.1359
 Quadrupole moment (field-independent basis, Debye-Ang):
   XX=           -273.4557   YY=           -246.6423   ZZ=           -262.8784
   XY=             16.8714   XZ=              5.7417   YZ=              0.1635

 Normal termination of Gaussian 16 at Sat Jun 29 06:53:54 2019.
