 Gaussian 16, Revision A.03,
 Gaussian 16:  ES64L-G16RevA.03 25-Dec-2016

 -------------------------------------
 # td=(NStates=1) CAM-B3LYP/6-31G(d,p)
 -------------------------------------

 --
 TD
 --
 Symbolic Z-matrix:
 Charge =  0 Multiplicity = 1

                         Standard orientation:
 ---------------------------------------------------------------------
 Center     Atomic      Atomic             Coordinates (Angstroms)
 Number     Number       Type             X           Y           Z
 ---------------------------------------------------------------------
      1          8           0       14.635009   -2.358054   -0.546979
      2          8           0      -14.926457    1.826213    0.615852
      3          6           0       11.489515   -1.004409    1.179465
      4          6           0      -12.300165   -0.963295    0.841621
      5          6           0       13.011890   -1.394208    1.033937
      6          6           0      -13.666050   -0.316509    0.786732
      7          6           0       13.318034   -1.986659   -0.235872
      8          6           0      -13.709210    1.141175    0.724078
      9          6           0       11.028382   -0.375543   -0.026312
     10          6           0      -11.406305   -0.305970   -0.287540
     11          6           0       12.935664   -0.981353   -1.410564
     12          6           0      -12.900817    1.627629   -0.549145
     13          6           0       11.638031   -0.313573   -1.192323
     14          6           0      -11.678744    0.869941   -0.822900
     15          6           0       11.416806   -0.026682    2.484533
     16          6           0       10.621250   -2.328678    1.624481
     17          6           0      -11.570226   -0.840433    2.243191
     18          6           0      -12.441456   -2.441634    0.572853
     19          6           0        9.698439    0.219393    0.149180
     20          6           0      -10.101175   -1.008871   -0.278172
     21          6           0       11.102307    0.351286   -2.459927
     22          6           0      -10.868108    1.508811   -1.828757
     23          6           0        9.313601    1.513791   -0.130578
     24          6           0       -8.778078   -0.452984   -0.353113
     25          6           0        8.139769    2.195702    0.009157
     26          6           0       -7.588478   -1.129465   -0.563035
     27          6           0        8.185191    3.679659    0.402315
     28          6           0       -7.515363   -2.583002   -1.122898
     29          6           0        6.882149    1.623843   -0.129698
     30          6           0       -6.407460   -0.543354   -0.206600
     31          6           0        5.645140    2.098454    0.112485
     32          6           0       -5.063045   -1.034529   -0.301701
     33          6           0        4.612422    1.279694   -0.083313
     34          6           0       -3.929327   -0.355587   -0.135412
     35          6           0        3.104028    1.657649    0.158329
     36          6           0       -2.695615   -0.706750   -0.384159
     37          6           0        2.823804    3.082462    0.633577
     38          6           0       -2.416862   -2.122220   -0.872242
     39          6           0        2.145353    0.775629   -0.081993
     40          6           0       -1.657493    0.115383   -0.237028
     41          6           0        0.683747    0.952393    0.077137
     42          6           0       -0.254889    0.076825   -0.314778
     43          1           0       13.649614   -0.570606    1.357310
     44          1           0       13.363510   -2.011709    1.733022
     45          1           0      -14.124030   -0.746828    1.661626
     46          1           0      -14.044107   -0.751778   -0.179989
     47          1           0       12.631643   -2.860698   -0.588047
     48          1           0      -13.233451    1.310113    1.808936
     49          1           0       13.582767   -0.221695   -1.419325
     50          1           0       13.134122   -1.411968   -2.221906
     51          1           0      -13.506954    1.319674   -1.604727
     52          1           0      -12.864963    2.846673   -0.552645
     53          1           0       11.996557   -0.423727    3.349524
     54          1           0       10.329368   -0.032189    2.794568
     55          1           0       11.932142    0.935542    2.232388
     56          1           0       10.708540   -3.263683    1.002400
     57          1           0       10.970002   -2.555828    2.662053
     58          1           0        9.630973   -1.998275    1.457816
     59          1           0      -11.586581    0.185340    2.492926
     60          1           0      -10.589372   -1.350057    2.246242
     61          1           0      -12.191817   -1.451595    3.031940
     62          1           0      -13.227211   -3.131005    1.112888
     63          1           0      -11.550038   -2.996784    0.633544
     64          1           0      -12.911232   -2.502390   -0.360640
     65          1           0        8.858728   -0.272155    0.558609
     66          1           0      -10.021542   -2.158940   -0.520578
     67          1           0       10.058826    0.723669   -2.424827
     68          1           0       11.807460    1.105892   -2.714129
     69          1           0       11.253269   -0.335145   -3.369754
     70          1           0      -11.646004    1.682407   -2.743220
     71          1           0      -10.048141    0.871840   -2.330525
     72          1           0      -10.392530    2.600071   -1.389838
     73          1           0       15.156106   -2.549150    0.674078
     74          1           0      -15.749845    1.506659    1.285621
     75          1           0       10.214395    2.156480   -0.377151
     76          1           0       -8.820900    0.544115    0.067278
     77          1           0        9.081385    4.194403    0.055370
     78          1           0        7.155267    4.047854    0.094495
     79          1           0        8.406858    3.684527    1.560514
     80          1           0       -8.134107   -3.260929   -0.435846
     81          1           0       -8.129137   -2.820337   -2.038992
     82          1           0       -6.555005   -2.839906   -1.350587
     83          1           0        6.913113    0.568161   -0.335355
     84          1           0       -6.623538    0.459994   -0.067439
     85          1           0        5.432257    3.126798    0.466358
     86          1           0       -5.027777   -2.130983   -0.496293
     87          1           0        4.765659    0.375876   -0.293972
     88          1           0       -4.207562    0.592434    0.226954
     89          1           0        3.032123    3.389979    1.707113
     90          1           0        1.785518    3.210743    0.567697
     91          1           0        2.813517    4.043661   -0.024489
     92          1           0       -2.664189   -2.988735   -0.143900
     93          1           0       -2.978576   -2.388901   -1.841865
     94          1           0       -1.327068   -2.363498   -1.252331
     95          1           0        2.521005   -0.155962   -0.440654
     96          1           0       -2.228483    1.080094   -0.029630
     97          1           0        0.238805    1.860541    0.696975
     98          1           0        0.212276   -0.947414   -0.690629
 ---------------------------------------------------------------------

 SCF Done:  E(RCAM-B3LYP) =  -1706.85669063     A.U. after   15 cycles

 Excitation energies and oscillator strengths:

 Excited State   1:      Singlet-A      2.5822 eV  480.15 nm  f=3.8955  <S**2>=0.000
     155 ->158        -0.19827
     156 ->157         0.67089
 This state for optimization and/or second-order correction.
 Total Energy, E(TD-HF/TD-DFT) =  -1706.76179569
 Copying the excited state density for this state as the 1-particle RhoCI density.

 The electronic state is 1-A.
 Alpha  occ. eigenvalues --  -19.23733 -19.22344 -10.31577 -10.30134 -10.28425
 Alpha  occ. eigenvalues --  -10.28281 -10.28251 -10.28037 -10.27515 -10.27372
 Alpha  occ. eigenvalues --  -10.27318 -10.27307 -10.27233 -10.26856 -10.26454
 Alpha  occ. eigenvalues --  -10.26451 -10.26435 -10.26386 -10.26374 -10.26361
 Alpha  occ. eigenvalues --  -10.26276 -10.26244 -10.26152 -10.26135 -10.25878
 Alpha  occ. eigenvalues --  -10.25780 -10.25713 -10.25678 -10.25495 -10.25420
 Alpha  occ. eigenvalues --  -10.25391 -10.25289 -10.25144 -10.25074 -10.24964
 Alpha  occ. eigenvalues --  -10.24759 -10.24639 -10.24618 -10.24410 -10.24305
 Alpha  occ. eigenvalues --  -10.23824 -10.21947  -1.07856  -1.06785  -0.94256
 Alpha  occ. eigenvalues --   -0.94095  -0.93798  -0.92223  -0.91025  -0.90162
 Alpha  occ. eigenvalues --   -0.88096  -0.87712  -0.86883  -0.85985  -0.84462
 Alpha  occ. eigenvalues --   -0.83820  -0.82402  -0.79744  -0.79521  -0.77788
 Alpha  occ. eigenvalues --   -0.77232  -0.76825  -0.76621  -0.75972  -0.75942
 Alpha  occ. eigenvalues --   -0.75476  -0.75186  -0.74642  -0.74340  -0.71106
 Alpha  occ. eigenvalues --   -0.69574  -0.67541  -0.66144  -0.65573  -0.65237
 Alpha  occ. eigenvalues --   -0.64098  -0.63120  -0.61665  -0.61087  -0.60248
 Alpha  occ. eigenvalues --   -0.59218  -0.58544  -0.57810  -0.57439  -0.56065
 Alpha  occ. eigenvalues --   -0.55872  -0.55609  -0.55107  -0.54759  -0.53934
 Alpha  occ. eigenvalues --   -0.53307  -0.52895  -0.52064  -0.51594  -0.50991
 Alpha  occ. eigenvalues --   -0.50686  -0.50389  -0.50280  -0.49222  -0.48999
 Alpha  occ. eigenvalues --   -0.48669  -0.48399  -0.48164  -0.47801  -0.47555
 Alpha  occ. eigenvalues --   -0.47233  -0.47046  -0.46861  -0.46605  -0.46514
 Alpha  occ. eigenvalues --   -0.46240  -0.45914  -0.45561  -0.45207  -0.44848
 Alpha  occ. eigenvalues --   -0.44345  -0.44239  -0.44092  -0.43966  -0.43866
 Alpha  occ. eigenvalues --   -0.43560  -0.42584  -0.42476  -0.42179  -0.42017
 Alpha  occ. eigenvalues --   -0.41725  -0.41603  -0.41219  -0.40971  -0.40711
 Alpha  occ. eigenvalues --   -0.40509  -0.40290  -0.39914  -0.39690  -0.39352
 Alpha  occ. eigenvalues --   -0.38821  -0.38613  -0.38277  -0.38114  -0.37636
 Alpha  occ. eigenvalues --   -0.37110  -0.36867  -0.36777  -0.36606  -0.35771
 Alpha  occ. eigenvalues --   -0.35095  -0.34599  -0.33782  -0.32306  -0.31533
 Alpha  occ. eigenvalues --   -0.30579  -0.30012  -0.28634  -0.26762  -0.23016
 Alpha  occ. eigenvalues --   -0.20679
 Alpha virt. eigenvalues --   -0.05049  -0.01424   0.02245   0.02548   0.06379
 Alpha virt. eigenvalues --    0.07975   0.09163   0.09529   0.11231   0.11804
 Alpha virt. eigenvalues --    0.12350   0.12770   0.13257   0.13476   0.13940

 Mulliken charges:
               1
     1  O   -0.536428
     2  O   -0.572789
     3  C   -0.042592
     4  C   -0.023216
     5  C   -0.193566
     6  C   -0.197910
     7  C    0.199002
     8  C    0.234279
     9  C    0.090964
    10  C    0.062435
    11  C   -0.210824
    12  C   -0.226273
    13  C    0.062019
    14  C    0.098810
    15  C   -0.309119
    16  C   -0.309383
    17  C   -0.296813
    18  C   -0.298814
    19  C   -0.132998
    20  C   -0.154271
    21  C   -0.363637
    22  C   -0.339044
    23  C   -0.127413
    24  C   -0.126064
    25  C    0.086401
    26  C    0.126007
    27  C   -0.353706
    28  C   -0.369414
    29  C   -0.127311
    30  C   -0.123410
    31  C   -0.038490
    32  C   -0.102888
    33  C   -0.097792
    34  C   -0.115256
    35  C    0.105418
    36  C    0.195928
    37  C   -0.394211
    38  C   -0.388239
    39  C   -0.124210
    40  C   -0.142253
    41  C   -0.085616
    42  C   -0.082384
    43  H    0.093335
    44  H    0.076876
    45  H    0.086900
    46  H    0.083950
    47  H    0.068580
    48  H    0.046188
    49  H    0.118418
    50  H    0.106829
    51  H    0.097201
    52  H    0.111550
    53  H    0.095995
    54  H    0.108432
    55  H    0.108110
    56  H    0.103843
    57  H    0.104559
    58  H    0.112731
    59  H    0.107774
    60  H    0.116846
    61  H    0.078566
    62  H    0.077989
    63  H    0.109775
    64  H    0.105189
    65  H    0.084057
    66  H    0.071753
    67  H    0.127811
    68  H    0.120413
    69  H    0.099147
    70  H    0.082572
    71  H    0.120295
    72  H    0.088298
    73  H    0.249960
    74  H    0.307372
    75  H    0.068540
    76  H    0.090400
    77  H    0.114940
    78  H    0.113119
    79  H    0.109409
    80  H    0.109376
    81  H    0.113734
    82  H    0.119024
    83  H    0.071607
    84  H    0.074747
    85  H    0.096671
    86  H    0.081146
    87  H    0.052333
    88  H    0.082512
    89  H    0.119745
    90  H    0.112409
    91  H    0.108703
    92  H    0.110904
    93  H    0.108272
    94  H    0.097898
    95  H    0.086257
    96  H    0.065292
    97  H    0.092639
    98  H    0.074077
 Sum of Mulliken charges =  -0.00000

 Dipole moment (field-independent basis, Debye):
    X=             -0.1301    Y=             -0.5550    Z=              2.3073  Tot=              2.3766
 Quadrupole moment (field-independent basis, Debye-Ang):
   XX=           -241.4603   YY=           -253.7096   ZZ=           -259.7571
   XY=             19.4761   XZ=             12.2778   YZ=              0.7102

 Normal termination of Gaussian 16 at Fri Jun 28 06:07:25 2019.
