 Gaussian 16, Revision A.03,
 Gaussian 16:  ES64L-G16RevA.03 25-Dec-2016

 -------------------------------------
 # td=(NStates=1) CAM-B3LYP/6-31G(d,p)
 -------------------------------------

 --
 TD
 --
 Symbolic Z-matrix:
 Charge =  0 Multiplicity = 1

                         Standard orientation:
 ---------------------------------------------------------------------
 Center     Atomic      Atomic             Coordinates (Angstroms)
 Number     Number       Type             X           Y           Z
 ---------------------------------------------------------------------
      1          8           0       14.697133   -2.312619   -0.281662
      2          8           0      -14.486653    2.358620    0.910798
      3          6           0       11.567368   -0.927440    1.323561
      4          6           0      -12.401193   -0.866785    0.738758
      5          6           0       12.893678   -1.407797    1.118538
      6          6           0      -13.668578   -0.070320    0.734595
      7          6           0       13.314457   -2.058974   -0.202734
      8          6           0      -13.341633    1.542966    0.820334
      9          6           0       11.028906   -0.296441   -0.031106
     10          6           0      -11.404721   -0.210152   -0.182680
     11          6           0       13.131261   -0.912289   -1.291675
     12          6           0      -12.578522    1.927705   -0.455362
     13          6           0       11.700829   -0.200362   -1.190120
     14          6           0      -11.460479    0.995119   -0.807955
     15          6           0       11.423369    0.192988    2.417386
     16          6           0       10.587857   -2.105762    1.683685
     17          6           0      -11.977253   -1.028794    2.216110
     18          6           0      -12.744278   -2.316288    0.166730
     19          6           0        9.631350    0.323472    0.137394
     20          6           0      -10.135748   -1.112216   -0.494684
     21          6           0       11.167233    0.329609   -2.396955
     22          6           0      -10.534840    1.596109   -1.798904
     23          6           0        9.373076    1.590904   -0.205697
     24          6           0       -8.892559   -0.736847   -0.206252
     25          6           0        8.101282    2.227718   -0.045850
     26          6           0       -7.607356   -1.421797   -0.437713
     27          6           0        8.115474    3.777106    0.098517
     28          6           0       -7.724260   -2.914314   -0.954282
     29          6           0        6.879626    1.595384   -0.120778
     30          6           0       -6.492206   -0.760965   -0.385953
     31          6           0        5.515409    2.093530    0.019035
     32          6           0       -5.095224   -1.192772   -0.483211
     33          6           0        4.406236    1.403061   -0.103266
     34          6           0       -4.017647   -0.525885   -0.161782
     35          6           0        2.992572    1.634112   -0.013825
     36          6           0       -2.655629   -1.018551   -0.358508
     37          6           0        2.730911    3.041592    0.535369
     38          6           0       -2.383922   -2.511948   -0.692028
     39          6           0        2.070441    0.597491   -0.109374
     40          6           0       -1.701489   -0.028014   -0.128288
     41          6           0        0.639109    0.708013    0.076713
     42          6           0       -0.222619   -0.239348   -0.344960
     43          1           0       13.603694   -0.412595    1.217251
     44          1           0       12.998577   -2.218606    1.846277
     45          1           0      -14.155225   -0.373523    1.449662
     46          1           0      -14.126577   -0.093870   -0.252923
     47          1           0       12.642679   -3.081805   -0.360388
     48          1           0      -12.627579    1.613413    1.792793
     49          1           0       14.078424   -0.236617   -1.262846
     50          1           0       13.406938   -1.234117   -2.283818
     51          1           0      -13.340773    1.740110   -1.298256
     52          1           0      -12.359135    3.012299   -0.512471
     53          1           0       11.932110   -0.200109    3.458012
     54          1           0       10.344173    0.150761    2.752813
     55          1           0       11.785156    1.143766    2.062605
     56          1           0       10.588398   -2.684517    0.824900
     57          1           0       10.858754   -2.512662    2.810742
     58          1           0        9.568277   -1.791112    1.820271
     59          1           0      -11.932217   -0.100742    2.940488
     60          1           0      -10.940864   -1.473292    2.053175
     61          1           0      -12.632016   -1.784856    2.702361
     62          1           0      -13.810279   -2.852850    0.376799
     63          1           0      -11.942253   -2.970657    0.558398
     64          1           0      -13.036077   -1.978256   -1.003742
     65          1           0        8.709971    0.020580    0.813095
     66          1           0      -10.462422   -2.080005   -0.715675
     67          1           0       10.120391    0.743172   -2.354427
     68          1           0       11.801438    1.062862   -3.023908
     69          1           0       11.245018   -0.494333   -3.083792
     70          1           0      -11.187253    2.130042   -2.540575
     71          1           0       -9.824121    0.825953   -2.253991
     72          1           0      -10.065184    2.435481   -1.425537
     73          1           0       15.010384   -3.101924    0.254184
     74          1           0      -15.121714    1.669498    1.654438
     75          1           0       10.026761    2.334108   -0.592137
     76          1           0       -8.725083    0.357885    0.037183
     77          1           0        8.908840    4.199933   -0.556776
     78          1           0        7.167758    4.116766   -0.171634
     79          1           0        8.595405    3.797304    1.088603
     80          1           0       -8.301725   -3.530417   -0.210635
     81          1           0       -8.220760   -2.815293   -2.118144
     82          1           0       -6.776072   -3.562820   -1.192343
     83          1           0        7.106587    0.370434   -0.089634
     84          1           0       -6.451014    0.272562    0.063607
     85          1           0        5.383591    3.263138    0.141179
     86          1           0       -4.993896   -2.177715   -0.889805
     87          1           0        4.322514    0.285789   -0.350745
     88          1           0       -4.183643    0.530303    0.240473
     89          1           0        3.388816    3.212174    1.455968
     90          1           0        1.637570    3.151825    0.817524
     91          1           0        2.871162    3.856358   -0.174229
     92          1           0       -2.904836   -3.007441    0.037078
     93          1           0       -2.686779   -2.693037   -1.917137
     94          1           0       -1.368389   -2.709712   -0.321604
     95          1           0        2.463907   -0.483701   -0.105126
     96          1           0       -2.059241    1.112693   -0.055341
     97          1           0        0.301243    1.712524    0.420238
     98          1           0        0.301030   -1.110073   -0.502242
 ---------------------------------------------------------------------

 SCF Done:  E(RCAM-B3LYP) =  -1706.90329235     A.U. after   14 cycles

 Excitation energies and oscillator strengths:

 Excited State   1:      Singlet-A      2.9934 eV  414.20 nm  f=3.3645  <S**2>=0.000
     155 ->158        -0.18348
     156 ->157         0.67473
 This state for optimization and/or second-order correction.
 Total Energy, E(TD-HF/TD-DFT) =  -1706.79328817
 Copying the excited state density for this state as the 1-particle RhoCI density.

 The electronic state is 1-A.
 Alpha  occ. eigenvalues --  -19.23342 -19.22003 -10.32489 -10.31358 -10.28462
 Alpha  occ. eigenvalues --  -10.28062 -10.28056 -10.27997 -10.27646 -10.27627
 Alpha  occ. eigenvalues --  -10.27583 -10.27410 -10.27321 -10.27253 -10.27191
 Alpha  occ. eigenvalues --  -10.27031 -10.27026 -10.26808 -10.26649 -10.26456
 Alpha  occ. eigenvalues --  -10.26445 -10.26400 -10.26290 -10.26225 -10.26198
 Alpha  occ. eigenvalues --  -10.26092 -10.26065 -10.25985 -10.25983 -10.25932
 Alpha  occ. eigenvalues --  -10.25687 -10.25577 -10.25506 -10.25402 -10.25183
 Alpha  occ. eigenvalues --  -10.25124 -10.25122 -10.25064 -10.25036 -10.24920
 Alpha  occ. eigenvalues --  -10.24873 -10.23342  -1.09299  -1.07359  -0.93321
 Alpha  occ. eigenvalues --   -0.93288  -0.91662  -0.91255  -0.90342  -0.89493
 Alpha  occ. eigenvalues --   -0.87651  -0.87467  -0.87076  -0.84625  -0.83752
 Alpha  occ. eigenvalues --   -0.82245  -0.81368  -0.80051  -0.79203  -0.77617
 Alpha  occ. eigenvalues --   -0.76385  -0.75914  -0.75700  -0.75491  -0.75255
 Alpha  occ. eigenvalues --   -0.75114  -0.74902  -0.74281  -0.73942  -0.70093
 Alpha  occ. eigenvalues --   -0.68366  -0.66964  -0.65657  -0.64993  -0.63782
 Alpha  occ. eigenvalues --   -0.62707  -0.62353  -0.61924  -0.60121  -0.59189
 Alpha  occ. eigenvalues --   -0.57769  -0.57344  -0.56693  -0.56254  -0.55775
 Alpha  occ. eigenvalues --   -0.55393  -0.55153  -0.54267  -0.53952  -0.53277
 Alpha  occ. eigenvalues --   -0.52627  -0.51905  -0.51664  -0.51303  -0.51013
 Alpha  occ. eigenvalues --   -0.50487  -0.50146  -0.49675  -0.49550  -0.49222
 Alpha  occ. eigenvalues --   -0.48954  -0.48739  -0.48199  -0.47977  -0.47769
 Alpha  occ. eigenvalues --   -0.47715  -0.47343  -0.47267  -0.46867  -0.46145
 Alpha  occ. eigenvalues --   -0.45567  -0.45360  -0.45278  -0.44901  -0.44713
 Alpha  occ. eigenvalues --   -0.44423  -0.44150  -0.43865  -0.43414  -0.43327
 Alpha  occ. eigenvalues --   -0.42926  -0.42721  -0.42453  -0.41798  -0.41603
 Alpha  occ. eigenvalues --   -0.41565  -0.41151  -0.40830  -0.40506  -0.40383
 Alpha  occ. eigenvalues --   -0.39898  -0.39747  -0.39650  -0.39373  -0.39020
 Alpha  occ. eigenvalues --   -0.38752  -0.38239  -0.37870  -0.37779  -0.37294
 Alpha  occ. eigenvalues --   -0.36989  -0.36504  -0.36178  -0.35678  -0.35536
 Alpha  occ. eigenvalues --   -0.35043  -0.34567  -0.33836  -0.32124  -0.31816
 Alpha  occ. eigenvalues --   -0.30621  -0.29626  -0.28132  -0.26787  -0.24455
 Alpha  occ. eigenvalues --   -0.21528
 Alpha virt. eigenvalues --   -0.03574   0.00196   0.03087   0.06152   0.06847
 Alpha virt. eigenvalues --    0.08004   0.09081   0.11237   0.11457   0.11662
 Alpha virt. eigenvalues --    0.12029   0.12151   0.12470   0.12855   0.13116

 Mulliken charges:
               1
     1  O   -0.554433
     2  O   -0.541030
     3  C    0.017286
     4  C   -0.016702
     5  C   -0.163933
     6  C   -0.161367
     7  C    0.183236
     8  C    0.175683
     9  C    0.014699
    10  C    0.020452
    11  C   -0.241344
    12  C   -0.243712
    13  C    0.102279
    14  C    0.101432
    15  C   -0.287055
    16  C   -0.307963
    17  C   -0.309371
    18  C   -0.303860
    19  C   -0.156796
    20  C   -0.162488
    21  C   -0.388505
    22  C   -0.364768
    23  C   -0.055081
    24  C   -0.080412
    25  C    0.033844
    26  C    0.125201
    27  C   -0.353839
    28  C   -0.353830
    29  C   -0.111791
    30  C   -0.141622
    31  C   -0.122149
    32  C   -0.082806
    33  C   -0.070111
    34  C   -0.092468
    35  C    0.106192
    36  C    0.080707
    37  C   -0.375785
    38  C   -0.346937
    39  C   -0.155304
    40  C   -0.141816
    41  C   -0.067387
    42  C   -0.083920
    43  H    0.085467
    44  H    0.074683
    45  H    0.065080
    46  H    0.093589
    47  H    0.055220
    48  H    0.049482
    49  H    0.112645
    50  H    0.104568
    51  H    0.107958
    52  H    0.110228
    53  H    0.072535
    54  H    0.103024
    55  H    0.117606
    56  H    0.114841
    57  H    0.078362
    58  H    0.108944
    59  H    0.099218
    60  H    0.103297
    61  H    0.102741
    62  H    0.087766
    63  H    0.114909
    64  H    0.092789
    65  H    0.102638
    66  H    0.093148
    67  H    0.127306
    68  H    0.102017
    69  H    0.121067
    70  H    0.102276
    71  H    0.119630
    72  H    0.130234
    73  H    0.309088
    74  H    0.297158
    75  H    0.087753
    76  H    0.086748
    77  H    0.104482
    78  H    0.120021
    79  H    0.132714
    80  H    0.119525
    81  H    0.095102
    82  H    0.103424
    83  H    0.055173
    84  H    0.068665
    85  H    0.079917
    86  H    0.068638
    87  H    0.060714
    88  H    0.077961
    89  H    0.123626
    90  H    0.093762
    91  H    0.122880
    92  H    0.139882
    93  H    0.114714
    94  H    0.117055
    95  H    0.090450
    96  H    0.091974
    97  H    0.078598
    98  H    0.084282
 Sum of Mulliken charges =  -0.00000

 Dipole moment (field-independent basis, Debye):
    X=              0.1931    Y=             -2.3685    Z=              1.2672  Tot=              2.6931
 Quadrupole moment (field-independent basis, Debye-Ang):
   XX=           -255.9246   YY=           -247.4739   ZZ=           -261.3209
   XY=             14.1412   XZ=             -1.7051   YZ=             -3.1758

 Normal termination of Gaussian 16 at Wed Jul  3 07:33:04 2019.
