 Gaussian 16, Revision A.03,
 Gaussian 16:  ES64L-G16RevA.03 25-Dec-2016

 -------------------------------------
 # td=(NStates=1) CAM-B3LYP/6-31G(d,p)
 -------------------------------------

 --
 TD
 --
 Symbolic Z-matrix:
 Charge =  0 Multiplicity = 1

                         Standard orientation:
 ---------------------------------------------------------------------
 Center     Atomic      Atomic             Coordinates (Angstroms)
 Number     Number       Type             X           Y           Z
 ---------------------------------------------------------------------
      1          8           0       14.704281   -2.234636   -0.283787
      2          8           0      -14.704039    2.140740    0.904458
      3          6           0       11.548530   -1.065530    1.209450
      4          6           0      -12.315211   -0.912942    0.890319
      5          6           0       13.037171   -1.322860    1.098670
      6          6           0      -13.566612   -0.050435    0.876317
      7          6           0       13.351141   -1.838533   -0.310563
      8          6           0      -13.454683    1.440810    0.939448
      9          6           0       11.021148   -0.252127    0.129391
     10          6           0      -11.350209   -0.335297   -0.096736
     11          6           0       13.006998   -0.710264   -1.307819
     12          6           0      -12.698742    1.873993   -0.210614
     13          6           0       11.699432   -0.157710   -1.058444
     14          6           0      -11.576867    0.966118   -0.683508
     15          6           0       11.301775   -0.314976    2.549238
     16          6           0       10.757095   -2.420263    1.324450
     17          6           0      -11.821293   -0.954239    2.266302
     18          6           0      -12.606703   -2.298258    0.504576
     19          6           0        9.735587    0.305157    0.368509
     20          6           0      -10.110567   -1.108917   -0.506365
     21          6           0       11.143969    0.663012   -2.174590
     22          6           0      -10.698410    1.618287   -1.876017
     23          6           0        9.287606    1.635260    0.052925
     24          6           0       -8.829564   -0.670081   -0.283623
     25          6           0        8.039415    2.218392    0.180855
     26          6           0       -7.659929   -1.397351   -0.597425
     27          6           0        8.037315    3.713199    0.470228
     28          6           0       -7.836149   -2.888434   -1.065781
     29          6           0        6.844318    1.536214    0.049244
     30          6           0       -6.491738   -0.721590   -0.335169
     31          6           0        5.572591    1.957180    0.164601
     32          6           0       -5.121080   -1.220367   -0.571360
     33          6           0        4.472116    1.175713   -0.182048
     34          6           0       -4.034606   -0.395246   -0.419704
     35          6           0        3.092906    1.531225   -0.107146
     36          6           0       -2.713323   -0.817770   -0.579963
     37          6           0        2.660175    2.924438    0.349760
     38          6           0       -2.326435   -2.272679   -0.927961
     39          6           0        2.143472    0.648816   -0.423583
     40          6           0       -1.626826    0.078791   -0.475828
     41          6           0        0.761303    0.863735   -0.296465
     42          6           0       -0.228453   -0.159293   -0.409346
     43          1           0       13.406054   -0.264418    1.324222
     44          1           0       13.396480   -1.991996    1.876326
     45          1           0      -14.399005   -0.518552    1.617439
     46          1           0      -13.954148   -0.149644   -0.147274
     47          1           0       12.845612   -2.667706   -0.553286
     48          1           0      -12.861376    1.598697    1.912043
     49          1           0       13.754535    0.103854   -1.307264
     50          1           0       12.882872   -1.052583   -2.388517
     51          1           0      -13.572552    1.929146   -0.991477
     52          1           0      -12.352564    2.952264   -0.242345
     53          1           0       11.737426   -0.816949    3.510563
     54          1           0       10.292098   -0.262486    3.015391
     55          1           0       11.698708    0.850648    2.539002
     56          1           0       10.896724   -3.040861    0.437120
     57          1           0       11.036269   -3.218400    2.165147
     58          1           0        9.701342   -2.113360    1.360174
     59          1           0      -11.310291   -0.020519    2.555325
     60          1           0      -10.940784   -1.758133    2.401028
     61          1           0      -12.580921   -1.193174    3.050913
     62          1           0      -13.446169   -2.676160    1.012889
     63          1           0      -11.673634   -2.934019    0.653415
     64          1           0      -12.995076   -2.506336   -0.452191
     65          1           0        8.981665   -0.415405    0.677100
     66          1           0      -10.039165   -2.088255   -0.890130
     67          1           0       10.174629    1.342583   -2.067749
     68          1           0       11.966422    1.554095   -2.302564
     69          1           0       11.036263    0.122945   -3.107917
     70          1           0      -11.273630    2.242112   -2.650085
     71          1           0      -10.118030    1.008434   -2.535854
     72          1           0       -9.796778    2.157955   -1.425935
     73          1           0       14.998461   -2.915963    0.486894
     74          1           0      -15.133321    1.811389    1.848871
     75          1           0       10.024220    2.223685   -0.357576
     76          1           0       -8.670425    0.182682    0.320756
     77          1           0        8.623894    4.080851   -0.457701
     78          1           0        7.164474    4.043385    0.393597
     79          1           0        8.462442    3.974813    1.502235
     80          1           0       -8.580780   -3.497553   -0.401096
     81          1           0       -8.342205   -2.969210   -2.107704
     82          1           0       -7.002145   -3.333711   -1.044441
     83          1           0        7.008438    0.582472   -0.104939
     84          1           0       -6.645780    0.395608   -0.036736
     85          1           0        5.459143    3.054534    0.394709
     86          1           0       -5.026511   -2.343165   -0.885906
     87          1           0        4.596112    0.190202   -0.502034
     88          1           0       -4.124003    0.595462   -0.284758
     89          1           0        3.156578    2.865012    1.623310
     90          1           0        1.581954    3.268513    0.201696
     91          1           0        3.192258    3.672481   -0.286346
     92          1           0       -2.908337   -3.066963   -0.420258
     93          1           0       -2.431602   -2.355475   -2.147489
     94          1           0       -1.318684   -2.712099   -1.016868
     95          1           0        2.384195   -0.498382   -0.492172
     96          1           0       -2.028122    1.134692   -0.521923
     97          1           0        0.362635    2.037877   -0.254505
     98          1           0        0.022230   -1.034811   -0.605835
 ---------------------------------------------------------------------

 SCF Done:  E(RCAM-B3LYP) =  -1706.91941903     A.U. after   15 cycles

 Excitation energies and oscillator strengths:

 Excited State   1:      Singlet-A      2.1821 eV  568.18 nm  f=3.8123  <S**2>=0.000
     155 ->158        -0.15719
     156 ->157         0.68876
 This state for optimization and/or second-order correction.
 Total Energy, E(TD-HF/TD-DFT) =  -1706.83922774
 Copying the excited state density for this state as the 1-particle RhoCI density.

 The electronic state is 1-A.
 Alpha  occ. eigenvalues --  -19.22849 -19.20627 -10.30234 -10.29907 -10.28572
 Alpha  occ. eigenvalues --  -10.28448 -10.28026 -10.27677 -10.27657 -10.27311
 Alpha  occ. eigenvalues --  -10.27271 -10.27241 -10.27079 -10.27060 -10.26992
 Alpha  occ. eigenvalues --  -10.26944 -10.26793 -10.26718 -10.26675 -10.26462
 Alpha  occ. eigenvalues --  -10.26425 -10.26396 -10.26368 -10.26281 -10.26225
 Alpha  occ. eigenvalues --  -10.26172 -10.26063 -10.25991 -10.25742 -10.25663
 Alpha  occ. eigenvalues --  -10.25631 -10.25599 -10.25414 -10.25389 -10.25367
 Alpha  occ. eigenvalues --  -10.25325 -10.25044 -10.24999 -10.24990 -10.24787
 Alpha  occ. eigenvalues --  -10.23876 -10.23516  -1.08271  -1.07409  -0.95047
 Alpha  occ. eigenvalues --   -0.94227  -0.92605  -0.91621  -0.91048  -0.90117
 Alpha  occ. eigenvalues --   -0.87773  -0.87069  -0.86878  -0.85618  -0.84261
 Alpha  occ. eigenvalues --   -0.83412  -0.81398  -0.79581  -0.79236  -0.77840
 Alpha  occ. eigenvalues --   -0.77024  -0.76583  -0.76501  -0.75878  -0.75660
 Alpha  occ. eigenvalues --   -0.75407  -0.74913  -0.74672  -0.73493  -0.71450
 Alpha  occ. eigenvalues --   -0.69759  -0.67741  -0.66641  -0.65264  -0.64184
 Alpha  occ. eigenvalues --   -0.64052  -0.63185  -0.61564  -0.60782  -0.60305
 Alpha  occ. eigenvalues --   -0.59522  -0.58693  -0.58545  -0.57788  -0.55741
 Alpha  occ. eigenvalues --   -0.55660  -0.55319  -0.55178  -0.54946  -0.54253
 Alpha  occ. eigenvalues --   -0.53573  -0.53010  -0.52651  -0.51804  -0.50830
 Alpha  occ. eigenvalues --   -0.50660  -0.50279  -0.49907  -0.49691  -0.49297
 Alpha  occ. eigenvalues --   -0.48755  -0.48712  -0.48446  -0.48066  -0.47329
 Alpha  occ. eigenvalues --   -0.47195  -0.46876  -0.46634  -0.46290  -0.45919
 Alpha  occ. eigenvalues --   -0.45817  -0.45473  -0.45359  -0.44861  -0.44780
 Alpha  occ. eigenvalues --   -0.44618  -0.44300  -0.43836  -0.43725  -0.43634
 Alpha  occ. eigenvalues --   -0.43163  -0.43002  -0.42854  -0.42328  -0.41695
 Alpha  occ. eigenvalues --   -0.41406  -0.41282  -0.41126  -0.40581  -0.40421
 Alpha  occ. eigenvalues --   -0.40090  -0.40002  -0.39833  -0.39509  -0.39261
 Alpha  occ. eigenvalues --   -0.38975  -0.38938  -0.38654  -0.38259  -0.37994
 Alpha  occ. eigenvalues --   -0.37801  -0.37627  -0.37315  -0.37160  -0.36443
 Alpha  occ. eigenvalues --   -0.35059  -0.34910  -0.33239  -0.32244  -0.31687
 Alpha  occ. eigenvalues --   -0.31326  -0.29091  -0.27789  -0.25943  -0.23305
 Alpha  occ. eigenvalues --   -0.19319
 Alpha virt. eigenvalues --   -0.05894  -0.01345   0.02439   0.05287   0.06868
 Alpha virt. eigenvalues --    0.08730   0.10118   0.10196   0.10300   0.10917
 Alpha virt. eigenvalues --    0.12358   0.12939   0.13017   0.13254   0.13557

 Mulliken charges:
               1
     1  O   -0.605677
     2  O   -0.551572
     3  C   -0.025887
     4  C    0.008229
     5  C   -0.192596
     6  C   -0.198132
     7  C    0.231538
     8  C    0.180223
     9  C    0.085478
    10  C    0.027351
    11  C   -0.231761
    12  C   -0.239564
    13  C    0.073050
    14  C    0.064569
    15  C   -0.304453
    16  C   -0.304682
    17  C   -0.284308
    18  C   -0.295890
    19  C   -0.112856
    20  C   -0.149251
    21  C   -0.358591
    22  C   -0.362532
    23  C   -0.118205
    24  C   -0.083602
    25  C    0.039932
    26  C    0.121255
    27  C   -0.328752
    28  C   -0.354812
    29  C   -0.056816
    30  C   -0.146462
    31  C   -0.093699
    32  C   -0.110475
    33  C   -0.112350
    34  C   -0.083000
    35  C    0.128667
    36  C    0.124901
    37  C   -0.334317
    38  C   -0.383005
    39  C   -0.138320
    40  C   -0.148578
    41  C   -0.078179
    42  C   -0.044897
    43  H    0.098259
    44  H    0.078788
    45  H    0.055054
    46  H    0.099234
    47  H    0.089191
    48  H    0.065196
    49  H    0.130125
    50  H    0.100728
    51  H    0.114643
    52  H    0.113300
    53  H    0.079098
    54  H    0.106086
    55  H    0.079308
    56  H    0.101040
    57  H    0.086150
    58  H    0.103121
    59  H    0.103363
    60  H    0.079342
    61  H    0.098140
    62  H    0.099624
    63  H    0.097210
    64  H    0.106026
    65  H    0.093536
    66  H    0.077322
    67  H    0.114740
    68  H    0.085161
    69  H    0.114694
    70  H    0.103940
    71  H    0.124611
    72  H    0.109242
    73  H    0.312285
    74  H    0.308150
    75  H    0.082382
    76  H    0.081090
    77  H    0.101791
    78  H    0.111750
    79  H    0.119492
    80  H    0.110041
    81  H    0.118769
    82  H    0.110928
    83  H    0.055397
    84  H    0.085222
    85  H    0.083713
    86  H    0.094585
    87  H    0.080845
    88  H    0.081229
    89  H    0.082940
    90  H    0.111356
    91  H    0.116123
    92  H    0.112044
    93  H    0.095125
    94  H    0.122029
    95  H    0.077492
    96  H    0.065675
    97  H    0.067613
    98  H    0.053688
 Sum of Mulliken charges =  -0.00000

 Dipole moment (field-independent basis, Debye):
    X=              1.3147    Y=             -1.7822    Z=              1.1039  Tot=              2.4745
 Quadrupole moment (field-independent basis, Debye-Ang):
   XX=           -281.4417   YY=           -244.8440   ZZ=           -259.2577
   XY=             10.7273   XZ=             -3.3412   YZ=             -0.9080

 Normal termination of Gaussian 16 at Sun Jul  7 20:54:28 2019.
