 Gaussian 16, Revision A.03,
 Gaussian 16:  ES64L-G16RevA.03 25-Dec-2016

 -------------------------------------
 # td=(NStates=1) CAM-B3LYP/6-31G(d,p)
 -------------------------------------

 --
 TD
 --
 Symbolic Z-matrix:
 Charge =  0 Multiplicity = 1

                         Standard orientation:
 ---------------------------------------------------------------------
 Center     Atomic      Atomic             Coordinates (Angstroms)
 Number     Number       Type             X           Y           Z
 ---------------------------------------------------------------------
      1          8           0       14.687473   -2.291430   -0.433583
      2          8           0      -14.867888    1.915742    0.542331
      3          6           0       11.365976   -1.100428    1.161500
      4          6           0      -12.336953   -0.955959    0.730614
      5          6           0       12.942729   -1.447269    0.994517
      6          6           0      -13.608049   -0.270058    0.704310
      7          6           0       13.329830   -1.979340   -0.278436
      8          6           0      -13.604495    1.345253    0.651954
      9          6           0       10.938786   -0.268563   -0.024515
     10          6           0      -11.396285   -0.365643   -0.296775
     11          6           0       12.990453   -1.014375   -1.468379
     12          6           0      -12.742292    1.751533   -0.549878
     13          6           0       11.625665   -0.317687   -1.197352
     14          6           0      -11.485313    0.834218   -0.855766
     15          6           0       11.159154   -0.432829    2.475311
     16          6           0       10.589471   -2.521491    1.108724
     17          6           0      -11.744690   -0.787277    2.133227
     18          6           0      -12.443181   -2.451866    0.631006
     19          6           0        9.661274    0.430738    0.153253
     20          6           0      -10.073310   -1.001948   -0.504195
     21          6           0       11.228782    0.573539   -2.376851
     22          6           0      -10.543425    1.489565   -1.815933
     23          6           0        9.287172    1.631064   -0.089541
     24          6           0       -8.742581   -0.615763   -0.344472
     25          6           0        8.005181    2.263627    0.172327
     26          6           0       -7.559712   -1.426479   -0.548724
     27          6           0        8.167599    3.769963    0.478183
     28          6           0       -7.726246   -2.768334   -1.085677
     29          6           0        6.876229    1.606150   -0.012899
     30          6           0       -6.411464   -0.770271   -0.313639
     31          6           0        5.515252    2.146296    0.186842
     32          6           0       -5.028394   -1.213576   -0.423246
     33          6           0        4.442559    1.345055    0.082335
     34          6           0       -3.917969   -0.457731   -0.194830
     35          6           0        3.017298    1.795718    0.271394
     36          6           0       -2.524607   -0.828657   -0.216746
     37          6           0        2.737067    3.292084    0.401216
     38          6           0       -2.228116   -2.230821   -0.611217
     39          6           0        2.062395    0.772878    0.105971
     40          6           0       -1.622442    0.226578   -0.009177
     41          6           0        0.585318    1.106134    0.177181
     42          6           0       -0.242126    0.082020   -0.089136
     43          1           0       13.424769   -0.510795    1.111141
     44          1           0       13.186260   -2.087551    1.849822
     45          1           0      -14.220105   -0.559038    1.511070
     46          1           0      -14.297353   -0.592365    0.013916
     47          1           0       12.693763   -2.745509   -0.539371
     48          1           0      -13.050967    1.911713    1.560860
     49          1           0       13.813290   -0.392864   -1.448282
     50          1           0       12.866952   -1.539524   -2.497022
     51          1           0      -13.330738    1.706937   -1.437919
     52          1           0      -12.522725    2.746126   -0.529865
     53          1           0       11.478636   -1.015810    3.528407
     54          1           0        9.968386   -0.436820    2.469248
     55          1           0       11.700901    0.672089    2.323478
     56          1           0       10.691527   -2.860106    0.030192
     57          1           0       11.244929   -3.132400    1.761631
     58          1           0        9.528541   -2.270942    1.590690
     59          1           0      -11.362986    0.190466    2.361688
     60          1           0      -10.809921   -1.377070    2.045393
     61          1           0      -12.397973   -1.242645    2.658671
     62          1           0      -13.107123   -2.898674    1.096927
     63          1           0      -11.445592   -3.045655    0.694779
     64          1           0      -12.953443   -2.662933   -0.518142
     65          1           0        8.852863   -0.312237    0.310664
     66          1           0      -10.001300   -2.065075   -0.646126
     67          1           0       10.127137    0.974370   -2.308812
     68          1           0       11.857375    1.285175   -2.432367
     69          1           0       11.456492    0.209470   -3.385221
     70          1           0      -11.255246    1.980793   -2.560432
     71          1           0       -9.778343    0.999421   -2.234624
     72          1           0       -9.953436    2.304288   -1.593414
     73          1           0       14.777131   -3.090655    0.333002
     74          1           0      -15.608794    1.699104    1.314650
     75          1           0        9.927296    2.345142   -0.581724
     76          1           0       -8.596365    0.366955   -0.064854
     77          1           0        8.871615    4.215147   -0.187247
     78          1           0        7.223494    4.414739    0.314443
     79          1           0        8.394899    3.848400    1.466383
     80          1           0       -8.383108   -3.409005   -0.408554
     81          1           0       -8.063580   -2.865445   -2.070246
     82          1           0       -6.732305   -3.288249   -1.059978
     83          1           0        6.815232    0.671112   -0.379212
     84          1           0       -6.433543    0.293904    0.118242
     85          1           0        5.475651    3.138734    0.706168
     86          1           0       -4.670077   -2.177451   -0.424096
     87          1           0        4.528830    0.246740   -0.190188
     88          1           0       -4.275430    0.640800   -0.061186
     89          1           0        3.307977    3.579174    1.311642
     90          1           0        1.682656    3.637085    0.508869
     91          1           0        3.147224    3.854969   -0.360996
     92          1           0       -2.580613   -2.950088   -0.024699
     93          1           0       -2.576091   -2.313286   -1.671497
     94          1           0       -1.206201   -2.500839   -0.571540
     95          1           0        2.454610   -0.307671    0.199678
     96          1           0       -2.128503    1.103718    0.283378
     97          1           0        0.258891    2.194674    0.007129
     98          1           0        0.148643   -0.991339   -0.039410
 ---------------------------------------------------------------------

 SCF Done:  E(RCAM-B3LYP) =  -1706.93156984     A.U. after   14 cycles

 Excitation energies and oscillator strengths:

 Excited State   1:      Singlet-A      2.8560 eV  434.12 nm  f=3.5182  <S**2>=0.000
     155 ->158         0.16083
     156 ->157         0.68328
 This state for optimization and/or second-order correction.
 Total Energy, E(TD-HF/TD-DFT) =  -1706.82661504
 Copying the excited state density for this state as the 1-particle RhoCI density.

 The electronic state is 1-A.
 Alpha  occ. eigenvalues --  -19.22593 -19.22028 -10.31720 -10.28572 -10.28068
 Alpha  occ. eigenvalues --  -10.27963 -10.27518 -10.27440 -10.27417 -10.27226
 Alpha  occ. eigenvalues --  -10.26816 -10.26803 -10.26642 -10.26542 -10.26536
 Alpha  occ. eigenvalues --  -10.26440 -10.26423 -10.26401 -10.26201 -10.26144
 Alpha  occ. eigenvalues --  -10.26065 -10.25792 -10.25724 -10.25700 -10.25452
 Alpha  occ. eigenvalues --  -10.25358 -10.25337 -10.25130 -10.25101 -10.24989
 Alpha  occ. eigenvalues --  -10.24939 -10.24900 -10.24862 -10.24743 -10.24713
 Alpha  occ. eigenvalues --  -10.24500 -10.24145 -10.23734 -10.23583 -10.23493
 Alpha  occ. eigenvalues --  -10.23378 -10.22167  -1.08649  -1.08010  -0.94063
 Alpha  occ. eigenvalues --   -0.93417  -0.92083  -0.91321  -0.90896  -0.89489
 Alpha  occ. eigenvalues --   -0.87820  -0.87189  -0.86108  -0.85342  -0.84047
 Alpha  occ. eigenvalues --   -0.82952  -0.82211  -0.80601  -0.79798  -0.78884
 Alpha  occ. eigenvalues --   -0.77429  -0.76983  -0.76915  -0.76585  -0.76365
 Alpha  occ. eigenvalues --   -0.76211  -0.75349  -0.74561  -0.74351  -0.70157
 Alpha  occ. eigenvalues --   -0.68408  -0.67157  -0.65677  -0.65398  -0.64598
 Alpha  occ. eigenvalues --   -0.63189  -0.62325  -0.61385  -0.60597  -0.60390
 Alpha  occ. eigenvalues --   -0.59403  -0.58795  -0.58016  -0.57171  -0.56381
 Alpha  occ. eigenvalues --   -0.55760  -0.55265  -0.54924  -0.54286  -0.54036
 Alpha  occ. eigenvalues --   -0.53747  -0.52851  -0.51974  -0.51539  -0.51315
 Alpha  occ. eigenvalues --   -0.51097  -0.50609  -0.49996  -0.49647  -0.49398
 Alpha  occ. eigenvalues --   -0.49136  -0.48969  -0.48792  -0.48570  -0.48294
 Alpha  occ. eigenvalues --   -0.47835  -0.47507  -0.47238  -0.47178  -0.46932
 Alpha  occ. eigenvalues --   -0.46063  -0.45853  -0.45560  -0.45191  -0.45015
 Alpha  occ. eigenvalues --   -0.44436  -0.44252  -0.43910  -0.43458  -0.43004
 Alpha  occ. eigenvalues --   -0.42970  -0.42839  -0.42575  -0.42366  -0.42228
 Alpha  occ. eigenvalues --   -0.41872  -0.41795  -0.41579  -0.41377  -0.40766
 Alpha  occ. eigenvalues --   -0.40628  -0.40227  -0.40120  -0.39733  -0.39653
 Alpha  occ. eigenvalues --   -0.39115  -0.38851  -0.38350  -0.38069  -0.37532
 Alpha  occ. eigenvalues --   -0.37205  -0.36749  -0.36062  -0.35386  -0.35112
 Alpha  occ. eigenvalues --   -0.34725  -0.34449  -0.33560  -0.32419  -0.31594
 Alpha  occ. eigenvalues --   -0.31336  -0.29478  -0.27967  -0.26513  -0.24173
 Alpha  occ. eigenvalues --   -0.20770
 Alpha virt. eigenvalues --   -0.03730   0.00585   0.03522   0.06161   0.08339
 Alpha virt. eigenvalues --    0.09282   0.09383   0.09808   0.11394   0.11471
 Alpha virt. eigenvalues --    0.12120   0.12554   0.13042   0.13458   0.13958

 Mulliken charges:
               1
     1  O   -0.555145
     2  O   -0.575367
     3  C   -0.050858
     4  C   -0.027082
     5  C   -0.177680
     6  C   -0.198775
     7  C    0.172909
     8  C    0.198412
     9  C    0.062496
    10  C    0.090987
    11  C   -0.232835
    12  C   -0.230423
    13  C    0.040346
    14  C    0.051849
    15  C   -0.265653
    16  C   -0.290057
    17  C   -0.258026
    18  C   -0.280599
    19  C   -0.116493
    20  C   -0.170106
    21  C   -0.357960
    22  C   -0.357255
    23  C   -0.097049
    24  C   -0.090312
    25  C    0.051808
    26  C    0.148840
    27  C   -0.370148
    28  C   -0.387073
    29  C   -0.087675
    30  C   -0.148657
    31  C   -0.098419
    32  C   -0.082017
    33  C   -0.112859
    34  C   -0.127769
    35  C    0.092400
    36  C    0.087264
    37  C   -0.369747
    38  C   -0.379645
    39  C   -0.144738
    40  C   -0.099285
    41  C   -0.101340
    42  C   -0.073477
    43  H    0.098838
    44  H    0.073415
    45  H    0.069233
    46  H    0.102606
    47  H    0.077251
    48  H    0.050420
    49  H    0.129676
    50  H    0.101848
    51  H    0.119549
    52  H    0.111559
    53  H    0.082719
    54  H    0.092152
    55  H    0.090785
    56  H    0.112538
    57  H    0.100346
    58  H    0.090195
    59  H    0.104600
    60  H    0.093997
    61  H    0.100297
    62  H    0.110938
    63  H    0.102657
    64  H    0.050993
    65  H    0.089459
    66  H    0.058311
    67  H    0.104528
    68  H    0.132061
    69  H    0.090316
    70  H    0.091920
    71  H    0.124735
    72  H    0.120258
    73  H    0.298565
    74  H    0.316490
    75  H    0.084677
    76  H    0.065807
    77  H    0.122666
    78  H    0.098048
    79  H    0.141743
    80  H    0.113356
    81  H    0.141288
    82  H    0.105974
    83  H    0.072186
    84  H    0.083143
    85  H    0.082097
    86  H    0.069191
    87  H    0.083883
    88  H    0.059005
    89  H    0.120078
    90  H    0.108350
    91  H    0.136946
    92  H    0.135589
    93  H    0.131668
    94  H    0.106624
    95  H    0.088503
    96  H    0.087303
    97  H    0.098524
    98  H    0.087308
 Sum of Mulliken charges =  -0.00000

 Dipole moment (field-independent basis, Debye):
    X=             -0.2507    Y=             -0.9785    Z=              2.0010  Tot=              2.2414
 Quadrupole moment (field-independent basis, Debye-Ang):
   XX=           -268.7914   YY=           -240.4620   ZZ=           -261.9876
   XY=              8.4389   XZ=             -6.1476   YZ=             -2.1701

 Normal termination of Gaussian 16 at Sun Jul  7 10:35:28 2019.
