 Gaussian 16, Revision A.03,
 Gaussian 16:  ES64L-G16RevA.03 25-Dec-2016

 -------------------------------------
 # td=(NStates=1) CAM-B3LYP/6-31G(d,p)
 -------------------------------------

 --
 TD
 --
 Symbolic Z-matrix:
 Charge =  0 Multiplicity = 1

                         Standard orientation:
 ---------------------------------------------------------------------
 Center     Atomic      Atomic             Coordinates (Angstroms)
 Number     Number       Type             X           Y           Z
 ---------------------------------------------------------------------
      1          8           0       14.611423   -2.274920   -0.418934
      2          8           0      -14.792574    1.998570    0.649913
      3          6           0       11.328181   -1.083029    1.246641
      4          6           0      -12.297939   -0.891991    0.862703
      5          6           0       12.898544   -1.489441    1.099218
      6          6           0      -13.607333   -0.183812    0.878574
      7          6           0       13.185598   -2.080562   -0.302032
      8          6           0      -13.485106    1.295542    0.647864
      9          6           0       10.849679   -0.440421    0.023522
     10          6           0      -11.318698   -0.370663   -0.224480
     11          6           0       12.878052   -1.101473   -1.458806
     12          6           0      -12.714977    1.643192   -0.606252
     13          6           0       11.601251   -0.364351   -1.137913
     14          6           0      -11.434957    0.894180   -0.851303
     15          6           0       11.548024    0.097717    2.343849
     16          6           0       10.446261   -2.260870    1.690265
     17          6           0      -11.624070   -0.811073    2.146353
     18          6           0      -12.716691   -2.394743    0.543392
     19          6           0        9.517490    0.300873    0.118325
     20          6           0      -10.092183   -1.123968   -0.373392
     21          6           0       11.048224    0.209960   -2.446984
     22          6           0      -10.648750    1.516346   -1.908508
     23          6           0        9.322037    1.606601   -0.129311
     24          6           0       -8.857603   -0.666669   -0.217171
     25          6           0        8.062151    2.359020    0.089552
     26          6           0       -7.581995   -1.325763   -0.452145
     27          6           0        8.210385    3.775636    0.524377
     28          6           0       -7.579385   -2.729773   -0.977572
     29          6           0        6.912580    1.657476    0.042898
     30          6           0       -6.425036   -0.631173   -0.214154
     31          6           0        5.605469    2.067337    0.142054
     32          6           0       -5.074824   -1.120682   -0.324457
     33          6           0        4.502201    1.290273   -0.003759
     34          6           0       -4.029015   -0.343970   -0.250229
     35          6           0        3.101753    1.760750   -0.025159
     36          6           0       -2.622911   -0.788735   -0.438339
     37          6           0        2.923810    3.224580    0.421693
     38          6           0       -2.225888   -2.211253   -0.794433
     39          6           0        2.113060    0.892200   -0.244452
     40          6           0       -1.703815    0.113898   -0.218143
     41          6           0        0.623087    0.989784   -0.200575
     42          6           0       -0.201895   -0.027999   -0.266628
     43          1           0       13.496839   -0.598575    1.045492
     44          1           0       13.283125   -2.217718    1.929762
     45          1           0      -14.248765   -0.381984    1.827651
     46          1           0      -14.247523   -0.436378   -0.071757
     47          1           0       12.475826   -2.981824   -0.631729
     48          1           0      -13.066834    1.450054    1.446896
     49          1           0       13.569331   -0.388568   -1.367888
     50          1           0       12.882203   -1.573763   -2.481629
     51          1           0      -13.594448    1.400115   -1.406372
     52          1           0      -12.768126    2.717496   -0.581702
     53          1           0       12.134300   -0.306995    3.000444
     54          1           0       10.654086    0.164239    2.847857
     55          1           0       12.341099    0.901926    2.041724
     56          1           0       10.597654   -3.017087    0.977646
     57          1           0       11.021009   -2.722832    2.627196
     58          1           0        9.463292   -1.993763    2.032375
     59          1           0      -11.418920    0.190925    2.413071
     60          1           0      -10.710235   -1.424170    2.193711
     61          1           0      -12.359496   -1.267875    2.800979
     62          1           0      -13.554473   -2.728319    1.166550
     63          1           0      -11.835631   -3.105222    0.762565
     64          1           0      -13.116189   -2.420295   -0.549348
     65          1           0        8.702290   -0.035998    0.805078
     66          1           0      -10.006256   -2.208905   -0.561654
     67          1           0       10.090199    0.469101   -2.227450
     68          1           0       11.627596    1.265213   -2.631765
     69          1           0       11.220667   -0.527418   -3.253499
     70          1           0      -11.069293    2.040891   -2.636168
     71          1           0       -9.953887    0.769507   -2.322139
     72          1           0       -9.803700    2.167175   -1.372660
     73          1           0       14.776151   -3.182836    0.120193
     74          1           0      -15.197985    1.666247    1.558675
     75          1           0       10.183805    2.232951   -0.453295
     76          1           0       -8.520084    0.191042    0.294924
     77          1           0        8.491044    4.413180   -0.392133
     78          1           0        7.293781    4.334003    0.888037
     79          1           0        8.769743    3.715505    1.480540
     80          1           0       -7.943745   -3.474228   -0.086674
     81          1           0       -8.079337   -2.879002   -1.859326
     82          1           0       -6.378700   -3.014668   -1.057078
     83          1           0        6.961433    0.593917   -0.500067
     84          1           0       -6.457663    0.402054    0.043965
     85          1           0        5.381452    3.128633    0.348554
     86          1           0       -5.020771   -2.214271   -0.709082
     87          1           0        4.558629    0.180901   -0.352834
     88          1           0       -4.389368    0.618594    0.179009
     89          1           0        3.517858    3.361875    1.349921
     90          1           0        1.943660    3.404127    0.596431
     91          1           0        3.140335    3.937820   -0.287409
     92          1           0       -2.560934   -2.909334    0.092565
     93          1           0       -2.935563   -2.562221   -1.656385
     94          1           0       -1.189067   -2.303009   -0.855079
     95          1           0        2.381787   -0.166482   -0.356886
     96          1           0       -2.138476    1.171582   -0.114900
     97          1           0        0.250235    1.883907   -0.071030
     98          1           0        0.196644   -1.036173   -0.402205
 ---------------------------------------------------------------------

 SCF Done:  E(RCAM-B3LYP) =  -1706.96494430     A.U. after   13 cycles

 Excitation energies and oscillator strengths:

 Excited State   1:      Singlet-A      3.1874 eV  388.99 nm  f=3.6050  <S**2>=0.000
     155 ->158         0.24528
     156 ->157         0.64859
 This state for optimization and/or second-order correction.
 Total Energy, E(TD-HF/TD-DFT) =  -1706.84781038
 Copying the excited state density for this state as the 1-particle RhoCI density.

 The electronic state is 1-A.
 Alpha  occ. eigenvalues --  -19.22121 -19.21451 -10.30912 -10.27694 -10.27661
 Alpha  occ. eigenvalues --  -10.27519 -10.27307 -10.27203 -10.27197 -10.27109
 Alpha  occ. eigenvalues --  -10.27053 -10.27007 -10.26984 -10.26821 -10.26817
 Alpha  occ. eigenvalues --  -10.26654 -10.26565 -10.26393 -10.26287 -10.26197
 Alpha  occ. eigenvalues --  -10.26143 -10.26110 -10.26076 -10.26055 -10.26035
 Alpha  occ. eigenvalues --  -10.26029 -10.26021 -10.26016 -10.25706 -10.25658
 Alpha  occ. eigenvalues --  -10.25656 -10.25618 -10.25591 -10.25507 -10.25322
 Alpha  occ. eigenvalues --  -10.25055 -10.24784 -10.24473 -10.24280 -10.24145
 Alpha  occ. eigenvalues --  -10.23776 -10.23297  -1.07440  -1.06314  -0.94210
 Alpha  occ. eigenvalues --   -0.92846  -0.92440  -0.91621  -0.90912  -0.89962
 Alpha  occ. eigenvalues --   -0.88052  -0.87450  -0.86469  -0.85965  -0.84627
 Alpha  occ. eigenvalues --   -0.83638  -0.82373  -0.81006  -0.79580  -0.78045
 Alpha  occ. eigenvalues --   -0.77581  -0.76636  -0.76576  -0.76546  -0.76125
 Alpha  occ. eigenvalues --   -0.75737  -0.74946  -0.74764  -0.74302  -0.70274
 Alpha  occ. eigenvalues --   -0.68607  -0.66841  -0.65554  -0.64529  -0.64140
 Alpha  occ. eigenvalues --   -0.63914  -0.62851  -0.61565  -0.61208  -0.59653
 Alpha  occ. eigenvalues --   -0.58990  -0.58779  -0.58125  -0.57276  -0.55747
 Alpha  occ. eigenvalues --   -0.55275  -0.54909  -0.54559  -0.53934  -0.53540
 Alpha  occ. eigenvalues --   -0.52758  -0.52559  -0.52369  -0.51689  -0.50752
 Alpha  occ. eigenvalues --   -0.50571  -0.50528  -0.50334  -0.50005  -0.49863
 Alpha  occ. eigenvalues --   -0.49711  -0.49171  -0.48952  -0.48873  -0.48492
 Alpha  occ. eigenvalues --   -0.48268  -0.47686  -0.47092  -0.46764  -0.46484
 Alpha  occ. eigenvalues --   -0.45969  -0.45810  -0.45472  -0.45386  -0.45073
 Alpha  occ. eigenvalues --   -0.44402  -0.44191  -0.43884  -0.43814  -0.43404
 Alpha  occ. eigenvalues --   -0.43105  -0.42610  -0.42372  -0.42273  -0.41909
 Alpha  occ. eigenvalues --   -0.41522  -0.41352  -0.40966  -0.40953  -0.40693
 Alpha  occ. eigenvalues --   -0.40254  -0.40145  -0.39770  -0.39648  -0.39515
 Alpha  occ. eigenvalues --   -0.39328  -0.39010  -0.38189  -0.37959  -0.37639
 Alpha  occ. eigenvalues --   -0.37569  -0.37382  -0.37235  -0.36814  -0.36464
 Alpha  occ. eigenvalues --   -0.35364  -0.34850  -0.33893  -0.32550  -0.31373
 Alpha  occ. eigenvalues --   -0.31102  -0.29666  -0.27680  -0.26441  -0.23873
 Alpha  occ. eigenvalues --   -0.21959
 Alpha virt. eigenvalues --   -0.03068  -0.00566   0.03064   0.05513   0.07414
 Alpha virt. eigenvalues --    0.09665   0.10503   0.11026   0.11238   0.11482
 Alpha virt. eigenvalues --    0.12588   0.12973   0.13286   0.13569   0.14294

 Mulliken charges:
               1
     1  O   -0.553185
     2  O   -0.575994
     3  C   -0.049391
     4  C   -0.013583
     5  C   -0.179883
     6  C   -0.203020
     7  C    0.122257
     8  C    0.180220
     9  C    0.104221
    10  C    0.048011
    11  C   -0.196443
    12  C   -0.236348
    13  C   -0.001938
    14  C    0.084454
    15  C   -0.301875
    16  C   -0.305197
    17  C   -0.281004
    18  C   -0.298981
    19  C   -0.142830
    20  C   -0.177858
    21  C   -0.334137
    22  C   -0.359874
    23  C   -0.086402
    24  C   -0.045175
    25  C    0.075677
    26  C    0.097230
    27  C   -0.371504
    28  C   -0.358319
    29  C   -0.125477
    30  C   -0.141180
    31  C   -0.078586
    32  C   -0.060162
    33  C   -0.123058
    34  C   -0.121333
    35  C    0.117652
    36  C    0.120809
    37  C   -0.373345
    38  C   -0.355401
    39  C   -0.157608
    40  C   -0.138828
    41  C   -0.041537
    42  C   -0.091849
    43  H    0.112121
    44  H    0.078299
    45  H    0.063791
    46  H    0.084908
    47  H    0.061709
    48  H    0.081349
    49  H    0.132094
    50  H    0.109232
    51  H    0.098963
    52  H    0.121011
    53  H    0.114992
    54  H    0.098401
    55  H    0.102440
    56  H    0.123428
    57  H    0.077448
    58  H    0.119347
    59  H    0.109910
    60  H    0.109705
    61  H    0.092702
    62  H    0.104889
    63  H    0.087395
    64  H    0.103685
    65  H    0.091434
    66  H    0.087050
    67  H    0.123733
    68  H    0.081967
    69  H    0.104347
    70  H    0.128089
    71  H    0.120290
    72  H    0.102502
    73  H    0.302596
    74  H    0.302594
    75  H    0.084916
    76  H    0.068435
    77  H    0.123838
    78  H    0.108537
    79  H    0.133880
    80  H    0.099544
    81  H    0.138386
    82  H    0.077281
    83  H    0.081366
    84  H    0.077630
    85  H    0.081905
    86  H    0.066228
    87  H    0.071665
    88  H    0.087522
    89  H    0.121266
    90  H    0.110880
    91  H    0.129126
    92  H    0.107456
    93  H    0.115291
    94  H    0.119847
    95  H    0.070344
    96  H    0.077756
    97  H    0.064381
    98  H    0.080878
 Sum of Mulliken charges =  -0.00000

 Dipole moment (field-independent basis, Debye):
    X=              1.0645    Y=             -1.3802    Z=              2.3670  Tot=              2.9395
 Quadrupole moment (field-independent basis, Debye-Ang):
   XX=           -292.5476   YY=           -243.7390   ZZ=           -258.8350
   XY=              7.8107   XZ=             -0.7340   YZ=              0.4263

 Normal termination of Gaussian 16 at Sat Jun 29 04:19:53 2019.
