 Gaussian 16, Revision A.03,
 Gaussian 16:  ES64L-G16RevA.03 25-Dec-2016

 -------------------------------------
 # td=(NStates=1) CAM-B3LYP/6-31G(d,p)
 -------------------------------------

 --
 TD
 --
 Symbolic Z-matrix:
 Charge =  0 Multiplicity = 1

                         Standard orientation:
 ---------------------------------------------------------------------
 Center     Atomic      Atomic             Coordinates (Angstroms)
 Number     Number       Type             X           Y           Z
 ---------------------------------------------------------------------
      1          8           0       14.643609   -2.201559   -0.401182
      2          8           0      -14.825009    1.944428    0.408090
      3          6           0       11.567893   -0.787520    1.340307
      4          6           0      -12.290919   -0.778421    0.857453
      5          6           0       13.050392   -1.132269    1.115822
      6          6           0      -13.638442   -0.105444    0.801790
      7          6           0       13.293200   -1.897567   -0.159123
      8          6           0      -13.509905    1.350461    0.654034
      9          6           0       10.992348   -0.220878    0.047695
     10          6           0      -11.318056   -0.234326   -0.113915
     11          6           0       12.833870   -1.129814   -1.403582
     12          6           0      -12.751872    1.680589   -0.669713
     13          6           0       11.477583   -0.509968   -1.253500
     14          6           0      -11.517557    0.885495   -0.943899
     15          6           0       11.528870    0.240679    2.311607
     16          6           0       10.785521   -2.063526    1.838020
     17          6           0      -11.630820   -0.634363    2.233996
     18          6           0      -12.529728   -2.288246    0.695980
     19          6           0        9.674342    0.395228    0.092279
     20          6           0      -10.085680   -1.045331   -0.293421
     21          6           0       10.848166   -0.072632   -2.609535
     22          6           0      -10.664320    1.379939   -2.064909
     23          6           0        9.277386    1.705397   -0.363939
     24          6           0       -8.851439   -0.570143   -0.166781
     25          6           0        8.040551    2.264234   -0.049897
     26          6           0       -7.606077   -1.335105   -0.360321
     27          6           0        8.068676    3.778175    0.131268
     28          6           0       -7.645717   -2.788989   -0.753142
     29          6           0        6.853188    1.517188   -0.054214
     30          6           0       -6.444536   -0.671033   -0.177392
     31          6           0        5.546760    1.991851    0.201324
     32          6           0       -5.084764   -1.248723   -0.535997
     33          6           0        4.423274    1.205352   -0.075015
     34          6           0       -4.012426   -0.405912   -0.273323
     35          6           0        3.062794    1.560290    0.176210
     36          6           0       -2.659571   -0.867866   -0.449737
     37          6           0        2.754725    3.004570    0.745354
     38          6           0       -2.265568   -2.282144   -0.845159
     39          6           0        2.090757    0.623946   -0.194518
     40          6           0       -1.637530   -0.005824   -0.122830
     41          6           0        0.619951    0.843432   -0.006006
     42          6           0       -0.189835   -0.220022   -0.216095
     43          1           0       13.547843   -0.301054    0.932807
     44          1           0       13.696475   -1.562329    2.065003
     45          1           0      -14.239095   -0.372217    1.728409
     46          1           0      -14.376089   -0.488664   -0.036138
     47          1           0       12.790518   -2.831503    0.022960
     48          1           0      -13.124074    1.889068    1.455390
     49          1           0       13.851876   -0.654162   -1.587688
     50          1           0       13.017614   -1.774058   -2.350684
     51          1           0      -13.584823    1.573395   -1.448090
     52          1           0      -12.598584    2.834915   -0.853123
     53          1           0       12.131006   -0.074056    3.210980
     54          1           0       10.455378    0.376717    2.655591
     55          1           0       11.873947    1.244998    1.915568
     56          1           0       10.787586   -2.994328    1.088152
     57          1           0       11.253884   -2.253521    2.813055
     58          1           0        9.700134   -1.721648    1.806817
     59          1           0      -11.514236    0.480955    2.527567
     60          1           0      -10.835331   -1.023283    2.471332
     61          1           0      -11.989742   -1.174290    3.255229
     62          1           0      -13.314122   -2.677628    1.465552
     63          1           0      -11.649108   -2.880187    0.855326
     64          1           0      -12.984956   -2.561563   -0.182975
     65          1           0        9.029328   -0.185637    0.779646
     66          1           0      -10.445622   -2.174590   -0.076276
     67          1           0        9.722785   -0.019510   -2.685945
     68          1           0       11.334082    0.683622   -2.984254
     69          1           0       10.971427   -0.876756   -3.379162
     70          1           0      -11.040619    1.656906   -3.075467
     71          1           0       -9.866986    0.698067   -2.327608
     72          1           0      -10.206754    2.165900   -1.708177
     73          1           0       15.086295   -2.400921    0.689034
     74          1           0      -15.336284    1.824242    1.173988
     75          1           0       10.110696    2.193551   -0.497478
     76          1           0       -8.610895    0.552834   -0.076117
     77          1           0        8.583278    4.023084   -0.692910
     78          1           0        6.986421    4.116269    0.130518
     79          1           0        8.542684    4.277385    1.003207
     80          1           0       -8.058180   -3.340874    0.164968
     81          1           0       -8.179025   -2.678625   -1.812763
     82          1           0       -6.722951   -3.313595   -0.824035
     83          1           0        6.990456    0.570075   -0.476306
     84          1           0       -6.547048    0.285781    0.032361
     85          1           0        5.310429    2.934554    0.736673
     86          1           0       -4.973497   -2.291117   -0.775456
     87          1           0        4.665151    0.146426   -0.643031
     88          1           0       -4.290734    0.583697    0.064819
     89          1           0        3.144787    3.053876    1.680113
     90          1           0        1.749072    3.381873    0.611971
     91          1           0        3.679964    3.559796    0.087143
     92          1           0       -2.842608   -2.983371    0.008070
     93          1           0       -2.645356   -2.704038   -1.777770
     94          1           0       -1.179059   -2.499410   -1.114108
     95          1           0        2.455928   -0.477344   -0.614573
     96          1           0       -1.791493    0.918424    0.240225
     97          1           0       -0.005107    1.686701    0.251389
     98          1           0        0.201618   -1.150335   -0.502069
 ---------------------------------------------------------------------

 SCF Done:  E(RCAM-B3LYP) =  -1706.88921950     A.U. after   14 cycles

 Excitation energies and oscillator strengths:

 Excited State   1:      Singlet-A      2.5400 eV  488.13 nm  f=3.3917  <S**2>=0.000
     155 ->158         0.18468
     156 ->157         0.67487
 This state for optimization and/or second-order correction.
 Total Energy, E(TD-HF/TD-DFT) =  -1706.79587698
 Copying the excited state density for this state as the 1-particle RhoCI density.

 The electronic state is 1-A.
 Alpha  occ. eigenvalues --  -19.22523 -19.19884 -10.29609 -10.29167 -10.28470
 Alpha  occ. eigenvalues --  -10.28414 -10.27886 -10.27834 -10.27557 -10.27486
 Alpha  occ. eigenvalues --  -10.27486 -10.27274 -10.27095 -10.26998 -10.26981
 Alpha  occ. eigenvalues --  -10.26935 -10.26871 -10.26836 -10.26574 -10.26570
 Alpha  occ. eigenvalues --  -10.26413 -10.26381 -10.26364 -10.26325 -10.26252
 Alpha  occ. eigenvalues --  -10.25995 -10.25855 -10.25823 -10.25797 -10.25590
 Alpha  occ. eigenvalues --  -10.25432 -10.25330 -10.25169 -10.25142 -10.25119
 Alpha  occ. eigenvalues --  -10.25104 -10.24877 -10.24715 -10.24644 -10.24579
 Alpha  occ. eigenvalues --  -10.24202 -10.23599  -1.08579  -1.07508  -0.94398
 Alpha  occ. eigenvalues --   -0.94152  -0.91510  -0.91167  -0.90301  -0.89367
 Alpha  occ. eigenvalues --   -0.87283  -0.87098  -0.86776  -0.84924  -0.84395
 Alpha  occ. eigenvalues --   -0.82731  -0.81764  -0.80157  -0.79935  -0.77545
 Alpha  occ. eigenvalues --   -0.77231  -0.76836  -0.76707  -0.76141  -0.75999
 Alpha  occ. eigenvalues --   -0.75893  -0.75530  -0.75160  -0.73622  -0.69972
 Alpha  occ. eigenvalues --   -0.68787  -0.67517  -0.65561  -0.65122  -0.64196
 Alpha  occ. eigenvalues --   -0.64148  -0.63319  -0.62605  -0.61313  -0.59906
 Alpha  occ. eigenvalues --   -0.59363  -0.58192  -0.58143  -0.57853  -0.55859
 Alpha  occ. eigenvalues --   -0.55676  -0.55025  -0.54303  -0.53928  -0.53564
 Alpha  occ. eigenvalues --   -0.52828  -0.52398  -0.51990  -0.51910  -0.51032
 Alpha  occ. eigenvalues --   -0.50886  -0.50338  -0.50042  -0.49877  -0.49703
 Alpha  occ. eigenvalues --   -0.49512  -0.48749  -0.48511  -0.48264  -0.48026
 Alpha  occ. eigenvalues --   -0.47652  -0.47226  -0.46942  -0.46732  -0.46438
 Alpha  occ. eigenvalues --   -0.45866  -0.45514  -0.45311  -0.44732  -0.44540
 Alpha  occ. eigenvalues --   -0.44494  -0.44117  -0.43569  -0.43347  -0.43162
 Alpha  occ. eigenvalues --   -0.42997  -0.42721  -0.42126  -0.41811  -0.41729
 Alpha  occ. eigenvalues --   -0.41617  -0.41194  -0.41106  -0.40924  -0.40689
 Alpha  occ. eigenvalues --   -0.40334  -0.40115  -0.39661  -0.39497  -0.39387
 Alpha  occ. eigenvalues --   -0.39258  -0.38662  -0.38410  -0.38124  -0.37776
 Alpha  occ. eigenvalues --   -0.37728  -0.37688  -0.36682  -0.36212  -0.36126
 Alpha  occ. eigenvalues --   -0.35754  -0.34836  -0.33788  -0.32588  -0.31698
 Alpha  occ. eigenvalues --   -0.31332  -0.29284  -0.27520  -0.25743  -0.22936
 Alpha  occ. eigenvalues --   -0.20003
 Alpha virt. eigenvalues --   -0.04286  -0.00800   0.02511   0.05075   0.06789
 Alpha virt. eigenvalues --    0.07460   0.08588   0.10732   0.12010   0.12193
 Alpha virt. eigenvalues --    0.12343   0.12552   0.13115   0.13829   0.14097

 Mulliken charges:
               1
     1  O   -0.570432
     2  O   -0.568078
     3  C   -0.011739
     4  C   -0.024722
     5  C   -0.190437
     6  C   -0.182427
     7  C    0.200067
     8  C    0.154766
     9  C    0.015061
    10  C    0.049353
    11  C   -0.251997
    12  C   -0.239652
    13  C    0.069399
    14  C    0.080535
    15  C   -0.287342
    16  C   -0.284498
    17  C   -0.273279
    18  C   -0.315646
    19  C   -0.141215
    20  C   -0.145464
    21  C   -0.357296
    22  C   -0.372814
    23  C   -0.091862
    24  C   -0.086035
    25  C    0.075138
    26  C    0.095702
    27  C   -0.361773
    28  C   -0.347551
    29  C   -0.114269
    30  C   -0.117735
    31  C   -0.102093
    32  C   -0.097507
    33  C   -0.105985
    34  C   -0.103288
    35  C    0.097637
    36  C    0.117307
    37  C   -0.356596
    38  C   -0.370254
    39  C   -0.150955
    40  C   -0.134313
    41  C   -0.092113
    42  C   -0.044256
    43  H    0.112008
    44  H    0.046660
    45  H    0.082624
    46  H    0.100844
    47  H    0.074881
    48  H    0.098186
    49  H    0.129188
    50  H    0.099758
    51  H    0.121003
    52  H    0.088669
    53  H    0.089766
    54  H    0.096843
    55  H    0.107779
    56  H    0.102475
    57  H    0.109577
    58  H    0.097977
    59  H    0.085098
    60  H    0.121402
    61  H    0.055776
    62  H    0.090591
    63  H    0.108678
    64  H    0.118258
    65  H    0.088400
    66  H    0.075555
    67  H    0.116445
    68  H    0.137086
    69  H    0.100171
    70  H    0.112511
    71  H    0.117165
    72  H    0.133561
    73  H    0.288639
    74  H    0.293451
    75  H    0.082419
    76  H    0.083698
    77  H    0.133544
    78  H    0.099952
    79  H    0.114876
    80  H    0.112353
    81  H    0.117702
    82  H    0.109292
    83  H    0.081040
    84  H    0.060513
    85  H    0.087153
    86  H    0.088725
    87  H    0.072432
    88  H    0.093765
    89  H    0.145485
    90  H    0.123418
    91  H    0.090672
    92  H    0.096248
    93  H    0.118807
    94  H    0.113086
    95  H    0.086941
    96  H    0.064432
    97  H    0.088659
    98  H    0.072419
 Sum of Mulliken charges =  -0.00000

 Dipole moment (field-independent basis, Debye):
    X=              0.4967    Y=             -0.5532    Z=              2.5148  Tot=              2.6224
 Quadrupole moment (field-independent basis, Debye-Ang):
   XX=           -269.4028   YY=           -251.0023   ZZ=           -257.2579
   XY=             19.2379   XZ=              2.1434   YZ=              1.4873

 Normal termination of Gaussian 16 at Mon Jul  1 02:56:49 2019.
