 Gaussian 16, Revision A.03,
 Gaussian 16:  ES64L-G16RevA.03 25-Dec-2016

 -------------------------------------
 # td=(NStates=1) CAM-B3LYP/6-31G(d,p)
 -------------------------------------

 --
 TD
 --
 Symbolic Z-matrix:
 Charge =  0 Multiplicity = 1

                         Standard orientation:
 ---------------------------------------------------------------------
 Center     Atomic      Atomic             Coordinates (Angstroms)
 Number     Number       Type             X           Y           Z
 ---------------------------------------------------------------------
      1          8           0       14.711874   -2.215204   -0.492897
      2          8           0      -14.851411    1.929966    0.718029
      3          6           0       11.474273   -1.133062    1.297398
      4          6           0      -12.292323   -0.954432    0.901515
      5          6           0       13.025543   -1.528671    1.196090
      6          6           0      -13.684281   -0.303259    0.861592
      7          6           0       13.374934   -1.954914   -0.339982
      8          6           0      -13.599255    1.248503    0.739324
      9          6           0       11.021308   -0.402738    0.013468
     10          6           0      -11.331671   -0.299398   -0.140572
     11          6           0       13.067000   -0.885035   -1.304337
     12          6           0      -12.921803    1.523647   -0.599971
     13          6           0       11.678906   -0.349374   -1.134634
     14          6           0      -11.628160    0.828317   -0.785364
     15          6           0       11.184727   -0.265746    2.471778
     16          6           0       10.741805   -2.396949    1.453824
     17          6           0      -11.719722   -0.907513    2.309498
     18          6           0      -12.544917   -2.552895    0.488627
     19          6           0        9.712345    0.200486    0.196344
     20          6           0      -10.083135   -1.047356   -0.343895
     21          6           0       11.159988    0.370418   -2.409092
     22          6           0      -10.739227    1.459144   -1.877359
     23          6           0        9.441695    1.552990    0.001598
     24          6           0       -8.786779   -0.576558   -0.275055
     25          6           0        8.029934    2.207566    0.148762
     26          6           0       -7.598370   -1.176087   -0.534907
     27          6           0        8.168113    3.659316    0.462970
     28          6           0       -7.657933   -2.659474   -0.760486
     29          6           0        6.898315    1.585716   -0.039938
     30          6           0       -6.502412   -0.519465   -0.395155
     31          6           0        5.453440    2.171795    0.108921
     32          6           0       -5.043184   -1.024539   -0.450232
     33          6           0        4.512293    1.334604   -0.054499
     34          6           0       -3.997632   -0.274304   -0.420170
     35          6           0        3.092264    1.733990    0.159967
     36          6           0       -2.529829   -0.722535   -0.701155
     37          6           0        2.771662    3.184275    0.790959
     38          6           0       -2.403983   -2.143914   -1.131605
     39          6           0        2.009723    1.018396   -0.333766
     40          6           0       -1.624355    0.110578   -0.232207
     41          6           0        0.633432    1.014169   -0.097028
     42          6           0       -0.153977    0.074936   -0.453575
     43          1           0       13.549837   -0.649247    1.415859
     44          1           0       13.279491   -2.378349    1.904809
     45          1           0      -14.515576   -0.747137    1.695388
     46          1           0      -14.216392   -0.550605   -0.176560
     47          1           0       12.599029   -2.701818   -0.469194
     48          1           0      -12.846519    1.533538    1.524239
     49          1           0       13.920127   -0.136964   -1.286832
     50          1           0       13.228571   -1.353119   -2.442693
     51          1           0      -13.759334    1.143123   -1.353566
     52          1           0      -12.809465    2.614282   -0.680211
     53          1           0       11.482112   -0.733921    3.206199
     54          1           0        9.929135   -0.095333    2.478760
     55          1           0       11.711414    0.662004    2.335121
     56          1           0       11.111309   -3.113366    0.749024
     57          1           0       10.868050   -2.772449    2.416668
     58          1           0        9.462736   -2.235860    1.593256
     59          1           0      -12.051322    0.266771    2.600189
     60          1           0      -10.682592   -1.244865    2.543019
     61          1           0      -12.279282   -1.635795    3.270898
     62          1           0      -13.473944   -3.015996    1.091036
     63          1           0      -11.471049   -3.153451    0.690846
     64          1           0      -12.540773   -2.729190   -0.658233
     65          1           0        8.795336   -0.442731    0.441552
     66          1           0      -10.341552   -2.186946   -0.206519
     67          1           0       10.221138    0.451477   -2.265477
     68          1           0       11.656138    1.314377   -2.470718
     69          1           0       11.381261   -0.415370   -3.216364
     70          1           0      -11.398202    1.927340   -2.647672
     71          1           0      -10.073084    0.886290   -2.286995
     72          1           0       -9.975549    2.271651   -1.521536
     73          1           0       15.246820   -2.567172    0.515099
     74          1           0      -15.136415    1.706914    1.668982
     75          1           0       10.240414    2.399097   -0.110565
     76          1           0       -8.547783    0.556993   -0.428370
     77          1           0        8.872310    4.390314   -0.085066
     78          1           0        7.163926    4.096012    0.145395
     79          1           0        8.517882    3.789426    1.428465
     80          1           0       -8.331261   -3.179232    0.009123
     81          1           0       -8.182144   -2.728876   -1.742912
     82          1           0       -6.762997   -3.122055   -0.610240
     83          1           0        6.980662    0.544575   -0.421061
     84          1           0       -6.532201    0.460415   -0.359721
     85          1           0        5.220279    3.125475    0.356447
     86          1           0       -4.995320   -2.028406   -0.744879
     87          1           0        4.767929    0.371697   -0.540913
     88          1           0       -3.874948    0.932581   -0.186017
     89          1           0        2.840871    3.248492    2.051174
     90          1           0        1.886472    3.414208    0.791068
     91          1           0        3.290010    3.879169    0.251080
     92          1           0       -2.632565   -2.798224   -0.327871
     93          1           0       -2.880866   -2.367029   -2.148272
     94          1           0       -1.344075   -2.356802   -1.317803
     95          1           0        2.335007    0.246203   -0.726405
     96          1           0       -2.056514    0.990621    0.436890
     97          1           0        0.276840    1.962737    0.604366
     98          1           0        0.340412   -0.667332   -1.309265
 ---------------------------------------------------------------------

 SCF Done:  E(RCAM-B3LYP) =  -1706.76199537     A.U. after   13 cycles

 Excitation energies and oscillator strengths:

 Excited State   1:      Singlet-A      3.5256 eV  351.67 nm  f=3.5975  <S**2>=0.000
     154 ->159        -0.10486
     155 ->158         0.22931
     156 ->157         0.65264
 This state for optimization and/or second-order correction.
 Total Energy, E(TD-HF/TD-DFT) =  -1706.63243325
 Copying the excited state density for this state as the 1-particle RhoCI density.

 The electronic state is 1-A.
 Alpha  occ. eigenvalues --  -19.23029 -19.22783 -10.30829 -10.30166 -10.29260
 Alpha  occ. eigenvalues --  -10.28425 -10.28360 -10.28303 -10.27549 -10.27457
 Alpha  occ. eigenvalues --  -10.27397 -10.27280 -10.27266 -10.27172 -10.26894
 Alpha  occ. eigenvalues --  -10.26876 -10.26763 -10.26735 -10.26638 -10.26598
 Alpha  occ. eigenvalues --  -10.26177 -10.26150 -10.26122 -10.25999 -10.25969
 Alpha  occ. eigenvalues --  -10.25872 -10.25871 -10.25815 -10.25698 -10.25651
 Alpha  occ. eigenvalues --  -10.25530 -10.25475 -10.25248 -10.25149 -10.25143
 Alpha  occ. eigenvalues --  -10.25004 -10.24856 -10.24680 -10.24657 -10.23977
 Alpha  occ. eigenvalues --  -10.23489 -10.23281  -1.09565  -1.08497  -0.93882
 Alpha  occ. eigenvalues --   -0.93657  -0.92553  -0.92142  -0.90978  -0.89635
 Alpha  occ. eigenvalues --   -0.88040  -0.87564  -0.86026  -0.85208  -0.84191
 Alpha  occ. eigenvalues --   -0.83473  -0.82271  -0.79650  -0.79207  -0.78821
 Alpha  occ. eigenvalues --   -0.77580  -0.76952  -0.76777  -0.76182  -0.75766
 Alpha  occ. eigenvalues --   -0.75440  -0.74959  -0.73819  -0.73596  -0.70057
 Alpha  occ. eigenvalues --   -0.68565  -0.67207  -0.64933  -0.64275  -0.63849
 Alpha  occ. eigenvalues --   -0.63369  -0.62715  -0.61911  -0.60654  -0.60131
 Alpha  occ. eigenvalues --   -0.59065  -0.58489  -0.58207  -0.57110  -0.55957
 Alpha  occ. eigenvalues --   -0.55148  -0.54819  -0.54267  -0.53905  -0.53284
 Alpha  occ. eigenvalues --   -0.52902  -0.52665  -0.52028  -0.51781  -0.51690
 Alpha  occ. eigenvalues --   -0.50594  -0.50144  -0.50047  -0.49743  -0.49577
 Alpha  occ. eigenvalues --   -0.49424  -0.49274  -0.48792  -0.48382  -0.48134
 Alpha  occ. eigenvalues --   -0.47809  -0.47418  -0.47197  -0.46979  -0.46511
 Alpha  occ. eigenvalues --   -0.46037  -0.45660  -0.45323  -0.45117  -0.44805
 Alpha  occ. eigenvalues --   -0.44142  -0.43972  -0.43651  -0.43401  -0.43142
 Alpha  occ. eigenvalues --   -0.42936  -0.42742  -0.42586  -0.41985  -0.41855
 Alpha  occ. eigenvalues --   -0.41487  -0.41301  -0.41005  -0.40899  -0.40515
 Alpha  occ. eigenvalues --   -0.40214  -0.39843  -0.39767  -0.39421  -0.39292
 Alpha  occ. eigenvalues --   -0.38920  -0.38542  -0.38464  -0.38264  -0.37231
 Alpha  occ. eigenvalues --   -0.36988  -0.36629  -0.36053  -0.35682  -0.35401
 Alpha  occ. eigenvalues --   -0.35059  -0.34904  -0.33679  -0.32323  -0.31705
 Alpha  occ. eigenvalues --   -0.31218  -0.30034  -0.29177  -0.26959  -0.24778
 Alpha  occ. eigenvalues --   -0.22846
 Alpha virt. eigenvalues --   -0.02407   0.00166   0.02734   0.06140   0.06418
 Alpha virt. eigenvalues --    0.08029   0.09003   0.10500   0.10810   0.11236
 Alpha virt. eigenvalues --    0.11684   0.11773   0.12647   0.12955   0.13320

 Mulliken charges:
               1
     1  O   -0.569090
     2  O   -0.544183
     3  C   -0.038718
     4  C    0.006359
     5  C   -0.233707
     6  C   -0.188817
     7  C    0.227301
     8  C    0.142107
     9  C    0.100143
    10  C    0.058651
    11  C   -0.207326
    12  C   -0.230127
    13  C    0.003666
    14  C    0.078659
    15  C   -0.254887
    16  C   -0.273387
    17  C   -0.252278
    18  C   -0.302791
    19  C   -0.166939
    20  C   -0.147996
    21  C   -0.315984
    22  C   -0.352439
    23  C   -0.095195
    24  C   -0.099525
    25  C    0.093192
    26  C    0.157525
    27  C   -0.379484
    28  C   -0.358865
    29  C   -0.149132
    30  C   -0.123982
    31  C   -0.059096
    32  C   -0.114880
    33  C   -0.079646
    34  C   -0.090583
    35  C    0.033053
    36  C    0.112392
    37  C   -0.331061
    38  C   -0.376513
    39  C   -0.093912
    40  C   -0.138030
    41  C   -0.023797
    42  C   -0.109639
    43  H    0.100436
    44  H    0.077871
    45  H    0.061926
    46  H    0.090473
    47  H    0.074811
    48  H    0.080811
    49  H    0.113190
    50  H    0.077354
    51  H    0.107584
    52  H    0.114591
    53  H    0.097268
    54  H    0.080672
    55  H    0.100054
    56  H    0.106960
    57  H    0.108133
    58  H    0.054198
    59  H    0.070440
    60  H    0.124672
    61  H    0.048821
    62  H    0.102016
    63  H    0.071961
    64  H    0.107652
    65  H    0.100746
    66  H    0.068052
    67  H    0.122334
    68  H    0.119782
    69  H    0.093927
    70  H    0.105737
    71  H    0.128183
    72  H    0.096531
    73  H    0.302440
    74  H    0.312758
    75  H    0.083447
    76  H    0.065613
    77  H    0.105651
    78  H    0.102635
    79  H    0.136535
    80  H    0.103332
    81  H    0.123683
    82  H    0.108811
    83  H    0.082559
    84  H    0.063209
    85  H    0.088459
    86  H    0.086360
    87  H    0.088370
    88  H    0.070488
    89  H    0.074347
    90  H    0.112483
    91  H    0.124558
    92  H    0.141821
    93  H    0.115369
    94  H    0.107542
    95  H    0.045628
    96  H    0.085720
    97  H    0.065812
    98  H    0.084148
 Sum of Mulliken charges =  -0.00000

 Dipole moment (field-independent basis, Debye):
    X=              1.7721    Y=             -0.8079    Z=              2.0816  Tot=              2.8507
 Quadrupole moment (field-independent basis, Debye-Ang):
   XX=           -271.2178   YY=           -249.8589   ZZ=           -260.1359
   XY=             13.8976   XZ=             10.4438   YZ=             -0.6829

 Normal termination of Gaussian 16 at Sun Jun 30 16:43:05 2019.
