 Gaussian 16, Revision A.03,
 Gaussian 16:  ES64L-G16RevA.03 25-Dec-2016

 -------------------------------------
 # td=(NStates=1) CAM-B3LYP/6-31G(d,p)
 -------------------------------------

 --
 TD
 --
 Symbolic Z-matrix:
 Charge =  0 Multiplicity = 1

                         Standard orientation:
 ---------------------------------------------------------------------
 Center     Atomic      Atomic             Coordinates (Angstroms)
 Number     Number       Type             X           Y           Z
 ---------------------------------------------------------------------
      1          8           0       14.726679   -2.380679   -0.368489
      2          8           0      -14.669656    2.074397    1.041974
      3          6           0       11.454311   -1.157262    1.132564
      4          6           0      -12.396623   -0.937128    0.918835
      5          6           0       12.917531   -1.471087    1.081889
      6          6           0      -13.695174   -0.174531    0.836589
      7          6           0       13.365285   -1.875888   -0.395727
      8          6           0      -13.455469    1.404516    0.762714
      9          6           0       10.962587   -0.240789    0.006490
     10          6           0      -11.413719   -0.375509   -0.144670
     11          6           0       13.285077   -0.574136   -1.194999
     12          6           0      -12.813288    1.715918   -0.591374
     13          6           0       11.811532    0.036425   -0.998824
     14          6           0      -11.779258    0.705971   -0.936157
     15          6           0       11.177863   -0.512503    2.603077
     16          6           0       10.478931   -2.470470    1.087832
     17          6           0      -11.664450   -0.784725    2.258926
     18          6           0      -12.614786   -2.406221    0.584994
     19          6           0        9.752606    0.399127    0.169703
     20          6           0      -10.096125   -1.146592   -0.408508
     21          6           0       11.457005    0.844262   -2.308814
     22          6           0      -10.813235    1.373279   -2.042848
     23          6           0        9.375625    1.742868   -0.048817
     24          6           0       -8.911102   -0.628855   -0.291477
     25          6           0        7.952023    2.305803    0.291355
     26          6           0       -7.520443   -1.221296   -0.457807
     27          6           0        7.915272    3.693597    0.671812
     28          6           0       -7.712133   -2.793348   -0.751296
     29          6           0        6.925117    1.522474    0.105185
     30          6           0       -6.410135   -0.476339   -0.412471
     31          6           0        5.496437    1.843177    0.201939
     32          6           0       -5.126195   -1.068546   -0.597166
     33          6           0        4.504992    1.066172    0.042135
     34          6           0       -4.012580   -0.292803   -0.620480
     35          6           0        3.039469    1.513771    0.155944
     36          6           0       -2.634109   -0.693579   -0.691062
     37          6           0        2.835897    2.946930    0.585292
     38          6           0       -2.330129   -2.215906   -0.984775
     39          6           0        2.118772    0.627579   -0.117285
     40          6           0       -1.686936    0.230121   -0.530760
     41          6           0        0.734541    0.973438   -0.139618
     42          6           0       -0.180643   -0.031394   -0.567236
     43          1           0       13.634499   -0.830168    1.440154
     44          1           0       13.086904   -2.511051    1.638818
     45          1           0      -14.236019   -0.093274    1.889273
     46          1           0      -14.234315   -0.709474   -0.018905
     47          1           0       12.708916   -2.688718   -0.719940
     48          1           0      -12.809265    1.674790    1.643460
     49          1           0       14.072913    0.110391   -1.095403
     50          1           0       13.269470   -0.867188   -2.253482
     51          1           0      -13.474217    1.679624   -1.365238
     52          1           0      -12.336592    2.799717   -0.775708
     53          1           0       11.726172   -1.317151    3.317800
     54          1           0       10.149115   -0.437402    2.851021
     55          1           0       11.531435    0.557906    2.681469
     56          1           0       10.225982   -2.851811    0.047466
     57          1           0       10.975026   -3.284816    1.797476
     58          1           0        9.456926   -2.423435    1.495822
     59          1           0      -11.778628    0.346705    2.480790
     60          1           0      -10.617105   -1.323348    2.296259
     61          1           0      -12.238387   -1.098932    2.967297
     62          1           0      -13.389744   -2.765156    1.145527
     63          1           0      -11.721821   -2.969234    0.471040
     64          1           0      -13.200821   -2.437985   -0.452724
     65          1           0        8.890730   -0.215051    0.794770
     66          1           0      -10.301200   -2.252319   -0.531804
     67          1           0       10.352030    1.169883   -2.407753
     68          1           0       12.193744    1.609776   -2.374899
     69          1           0       11.680918    0.198962   -3.181856
     70          1           0      -11.431997    1.349176   -2.882360
     71          1           0       -9.772961    0.766353   -2.127035
     72          1           0      -10.594583    2.479219   -1.716782
     73          1           0       14.836603   -3.140847    0.160039
     74          1           0      -15.048862    1.596069    1.905769
     75          1           0       10.149082    2.211176   -0.483231
     76          1           0       -8.855838    0.501734   -0.021877
     77          1           0        8.522810    4.417278   -0.040382
     78          1           0        6.905229    4.112150    0.631385
     79          1           0        8.327780    3.738043    1.656302
     80          1           0       -8.126002   -3.219758    0.048516
     81          1           0       -8.101719   -2.976333   -1.757265
     82          1           0       -6.779920   -3.455739   -0.691359
     83          1           0        7.237098    0.462605   -0.054849
     84          1           0       -6.531708    0.561418   -0.172167
     85          1           0        5.340474    2.899322    0.614739
     86          1           0       -5.131836   -2.290211   -0.442208
     87          1           0        4.456510    0.079386   -0.249353
     88          1           0       -4.173774    0.963214   -0.539909
     89          1           0        2.994182    3.005694    1.696102
     90          1           0        1.815473    3.305697    0.448575
     91          1           0        3.668677    3.590691   -0.110171
     92          1           0       -2.523299   -2.769999   -0.044960
     93          1           0       -2.816705   -2.630933   -1.961190
     94          1           0       -1.251312   -2.511039   -0.826616
     95          1           0        2.479834   -0.258706   -0.522153
     96          1           0       -2.010017    1.297318   -0.268641
     97          1           0        0.387891    1.922696   -0.043293
     98          1           0        0.190003   -1.005779   -0.964861
 ---------------------------------------------------------------------

 SCF Done:  E(RCAM-B3LYP) =  -1706.95365590     A.U. after   13 cycles

 Excitation energies and oscillator strengths:

 Excited State   1:      Singlet-A      3.2207 eV  384.97 nm  f=3.5190  <S**2>=0.000
     155 ->158        -0.18244
     156 ->157         0.67187
 This state for optimization and/or second-order correction.
 Total Energy, E(TD-HF/TD-DFT) =  -1706.83529893
 Copying the excited state density for this state as the 1-particle RhoCI density.

 The electronic state is 1-A.
 Alpha  occ. eigenvalues --  -19.21437 -19.20142 -10.31246 -10.30807 -10.28725
 Alpha  occ. eigenvalues --  -10.27869 -10.27727 -10.27684 -10.27427 -10.27340
 Alpha  occ. eigenvalues --  -10.27213 -10.27197 -10.27184 -10.27087 -10.27072
 Alpha  occ. eigenvalues --  -10.27029 -10.27000 -10.26960 -10.26606 -10.26484
 Alpha  occ. eigenvalues --  -10.26463 -10.26386 -10.26323 -10.26305 -10.26285
 Alpha  occ. eigenvalues --  -10.26243 -10.25913 -10.25871 -10.25795 -10.25757
 Alpha  occ. eigenvalues --  -10.25756 -10.25734 -10.25701 -10.25650 -10.25617
 Alpha  occ. eigenvalues --  -10.25427 -10.25301 -10.25138 -10.25031 -10.24673
 Alpha  occ. eigenvalues --  -10.24511 -10.24298  -1.08289  -1.08166  -0.93248
 Alpha  occ. eigenvalues --   -0.93134  -0.92267  -0.91174  -0.90556  -0.89317
 Alpha  occ. eigenvalues --   -0.86844  -0.86624  -0.85667  -0.85229  -0.84847
 Alpha  occ. eigenvalues --   -0.82442  -0.80956  -0.79485  -0.78804  -0.77500
 Alpha  occ. eigenvalues --   -0.77180  -0.76783  -0.76702  -0.75929  -0.75314
 Alpha  occ. eigenvalues --   -0.75138  -0.74793  -0.74339  -0.74003  -0.69991
 Alpha  occ. eigenvalues --   -0.68425  -0.67179  -0.65855  -0.65190  -0.63972
 Alpha  occ. eigenvalues --   -0.63341  -0.62972  -0.61627  -0.59739  -0.59372
 Alpha  occ. eigenvalues --   -0.59104  -0.58333  -0.57423  -0.57063  -0.56112
 Alpha  occ. eigenvalues --   -0.55348  -0.54882  -0.54740  -0.53981  -0.53237
 Alpha  occ. eigenvalues --   -0.52530  -0.52107  -0.51686  -0.50912  -0.50777
 Alpha  occ. eigenvalues --   -0.50249  -0.50080  -0.49971  -0.49717  -0.49352
 Alpha  occ. eigenvalues --   -0.49140  -0.48958  -0.48563  -0.48361  -0.48191
 Alpha  occ. eigenvalues --   -0.48078  -0.47943  -0.47326  -0.46762  -0.46326
 Alpha  occ. eigenvalues --   -0.45901  -0.45573  -0.45388  -0.44983  -0.44769
 Alpha  occ. eigenvalues --   -0.44490  -0.44176  -0.43467  -0.43183  -0.42890
 Alpha  occ. eigenvalues --   -0.42638  -0.42400  -0.41899  -0.41810  -0.41645
 Alpha  occ. eigenvalues --   -0.41410  -0.41276  -0.41011  -0.40851  -0.40445
 Alpha  occ. eigenvalues --   -0.40140  -0.39785  -0.39669  -0.39590  -0.39453
 Alpha  occ. eigenvalues --   -0.39090  -0.38451  -0.38212  -0.38126  -0.37768
 Alpha  occ. eigenvalues --   -0.37640  -0.37060  -0.36582  -0.36066  -0.35687
 Alpha  occ. eigenvalues --   -0.35299  -0.34213  -0.33545  -0.32648  -0.31255
 Alpha  occ. eigenvalues --   -0.31161  -0.30066  -0.28038  -0.26379  -0.24526
 Alpha  occ. eigenvalues --   -0.21823
 Alpha virt. eigenvalues --   -0.02888   0.00394   0.02863   0.06077   0.07760
 Alpha virt. eigenvalues --    0.09133   0.09691   0.11251   0.11508   0.12025
 Alpha virt. eigenvalues --    0.12417   0.12596   0.12948   0.13395   0.13573

 Mulliken charges:
               1
     1  O   -0.576847
     2  O   -0.569915
     3  C   -0.004387
     4  C   -0.002706
     5  C   -0.187039
     6  C   -0.203984
     7  C    0.163288
     8  C    0.186963
     9  C    0.135541
    10  C    0.043082
    11  C   -0.211550
    12  C   -0.203874
    13  C   -0.025308
    14  C    0.015038
    15  C   -0.296504
    16  C   -0.319066
    17  C   -0.282103
    18  C   -0.304782
    19  C   -0.135279
    20  C   -0.143235
    21  C   -0.362996
    22  C   -0.343642
    23  C   -0.111910
    24  C   -0.086567
    25  C    0.085662
    26  C    0.081766
    27  C   -0.372342
    28  C   -0.368550
    29  C   -0.095410
    30  C   -0.108694
    31  C   -0.114750
    32  C   -0.093229
    33  C   -0.061797
    34  C   -0.120218
    35  C    0.106877
    36  C    0.133697
    37  C   -0.362421
    38  C   -0.369148
    39  C   -0.120216
    40  C   -0.145722
    41  C   -0.079775
    42  C   -0.112222
    43  H    0.120588
    44  H    0.055003
    45  H    0.045192
    46  H    0.106706
    47  H    0.092469
    48  H    0.084424
    49  H    0.129098
    50  H    0.109043
    51  H    0.128076
    52  H    0.093241
    53  H    0.081616
    54  H    0.109813
    55  H    0.102521
    56  H    0.104022
    57  H    0.083495
    58  H    0.112685
    59  H    0.081090
    60  H    0.103822
    61  H    0.106208
    62  H    0.113082
    63  H    0.107770
    64  H    0.075225
    65  H    0.063777
    66  H    0.087349
    67  H    0.114719
    68  H    0.120692
    69  H    0.109209
    70  H    0.122347
    71  H    0.105643
    72  H    0.096511
    73  H    0.299473
    74  H    0.304515
    75  H    0.088079
    76  H    0.082603
    77  H    0.102725
    78  H    0.110458
    79  H    0.135284
    80  H    0.135250
    81  H    0.134519
    82  H    0.082271
    83  H    0.077229
    84  H    0.090805
    85  H    0.082136
    86  H    0.092874
    87  H    0.071552
    88  H    0.065780
    89  H    0.127146
    90  H    0.107825
    91  H    0.097179
    92  H    0.122926
    93  H    0.124763
    94  H    0.100992
    95  H    0.078840
    96  H    0.081183
    97  H    0.088924
    98  H    0.093507
 Sum of Mulliken charges =  -0.00000

 Dipole moment (field-independent basis, Debye):
    X=              0.4390    Y=             -1.9147    Z=              1.6979  Tot=              2.5965
 Quadrupole moment (field-independent basis, Debye-Ang):
   XX=           -293.2222   YY=           -244.9584   ZZ=           -261.2481
   XY=             21.9579   XZ=             -5.3521   YZ=             -0.5130

 Normal termination of Gaussian 16 at Thu Jul 11 01:46:32 2019.
