 Gaussian 16, Revision A.03,
 Gaussian 16:  ES64L-G16RevA.03 25-Dec-2016

 -------------------------------------
 # td=(NStates=1) CAM-B3LYP/6-31G(d,p)
 -------------------------------------

 --
 TD
 --
 Symbolic Z-matrix:
 Charge =  0 Multiplicity = 1

                         Standard orientation:
 ---------------------------------------------------------------------
 Center     Atomic      Atomic             Coordinates (Angstroms)
 Number     Number       Type             X           Y           Z
 ---------------------------------------------------------------------
      1          8           0       14.861878   -2.125777   -0.483865
      2          8           0      -14.678635    2.056463    0.749235
      3          6           0       11.410790   -1.224951    1.140602
      4          6           0      -12.360488   -1.010449    0.792744
      5          6           0       12.927086   -1.511715    1.044071
      6          6           0      -13.683051   -0.228299    0.706123
      7          6           0       13.435338   -1.869733   -0.370974
      8          6           0      -13.461832    1.415098    0.738320
      9          6           0       10.945981   -0.364615   -0.000794
     10          6           0      -11.337749   -0.274046   -0.228705
     11          6           0       12.959743   -0.822810   -1.310203
     12          6           0      -12.754188    1.731141   -0.546379
     13          6           0       11.689298   -0.210329   -1.147280
     14          6           0      -11.583106    0.903029   -0.826142
     15          6           0       11.393750   -0.364960    2.420908
     16          6           0       10.569982   -2.489768    1.387255
     17          6           0      -11.746492   -0.929897    2.200399
     18          6           0      -12.669233   -2.492842    0.424808
     19          6           0        9.598814    0.280346    0.206289
     20          6           0      -10.075946   -1.112231   -0.380849
     21          6           0       11.164157    0.497790   -2.371750
     22          6           0      -10.699342    1.501651   -1.843054
     23          6           0        9.307230    1.623214    0.015182
     24          6           0       -8.896380   -0.704417   -0.319801
     25          6           0        7.980208    2.256445    0.096395
     26          6           0       -7.572806   -1.344228   -0.441843
     27          6           0        7.984912    3.673915    0.475936
     28          6           0       -7.567174   -2.855580   -0.743860
     29          6           0        6.890169    1.564360   -0.012347
     30          6           0       -6.433446   -0.663874   -0.336057
     31          6           0        5.515995    2.081607    0.213058
     32          6           0       -5.117501   -1.072957   -0.437891
     33          6           0        4.441669    1.360588    0.001965
     34          6           0       -4.005813   -0.242774   -0.388207
     35          6           0        3.056109    1.759222    0.225514
     36          6           0       -2.657359   -0.706138   -0.505182
     37          6           0        2.789773    3.129657    0.691354
     38          6           0       -2.283622   -2.161122   -0.926646
     39          6           0        2.079187    0.859660   -0.086741
     40          6           0       -1.667150    0.175019   -0.206106
     41          6           0        0.697996    0.970716   -0.021479
     42          6           0       -0.236933   -0.048983   -0.400555
     43          1           0       13.588338   -0.766664    1.379845
     44          1           0       12.983831   -2.277021    1.892188
     45          1           0      -14.240154   -0.635241    1.606456
     46          1           0      -14.226200   -0.537468   -0.213491
     47          1           0       12.755683   -2.918532   -0.625167
     48          1           0      -12.953125    1.673654    1.591388
     49          1           0       13.807766   -0.103217   -1.249802
     50          1           0       13.118749   -1.125013   -2.317486
     51          1           0      -13.453069    1.712753   -1.373110
     52          1           0      -12.527047    2.793039   -0.674552
     53          1           0       11.989050   -0.844889    3.342093
     54          1           0       10.358457   -0.132468    2.632499
     55          1           0       11.889956    0.801254    1.927191
     56          1           0       10.658619   -3.104052    0.567975
     57          1           0       10.873905   -2.928276    2.452650
     58          1           0        9.611108   -2.184321    1.411083
     59          1           0      -11.449029    0.128579    2.497334
     60          1           0      -10.764873   -1.448126    2.214098
     61          1           0      -12.482111   -1.122653    2.890189
     62          1           0      -13.247073   -2.878410    1.176611
     63          1           0      -11.767745   -3.328607    0.401677
     64          1           0      -13.080562   -2.612608   -0.660440
     65          1           0        8.861075   -0.325819    0.633007
     66          1           0      -10.284234   -2.168455   -0.541782
     67          1           0       10.241654    0.860989   -2.251314
     68          1           0       11.963999    1.305381   -2.523661
     69          1           0       11.267915   -0.072158   -3.368907
     70          1           0      -11.288412    1.724961   -2.745786
     71          1           0       -9.697824    0.988046   -2.161900
     72          1           0      -10.322379    2.429580   -1.279319
     73          1           0       14.921087   -2.974304   -0.007376
     74          1           0      -15.197737    1.685443    1.375011
     75          1           0       10.118103    2.324152   -0.256038
     76          1           0       -8.829367    0.484264   -0.089572
     77          1           0        8.659118    4.157660   -0.277168
     78          1           0        7.022837    4.008223    0.342026
     79          1           0        8.340964    3.814343    1.523115
     80          1           0       -8.198126   -3.640813    0.020508
     81          1           0       -8.331279   -2.845527   -1.706783
     82          1           0       -6.494376   -3.356997   -0.724149
     83          1           0        6.975094    0.657239   -0.474749
     84          1           0       -6.457244    0.413609   -0.245643
     85          1           0        5.556304    3.001326    0.714018
     86          1           0       -5.142193   -2.172774   -0.620186
     87          1           0        4.543112    0.332111   -0.415649
     88          1           0       -4.141379    0.816957   -0.276207
     89          1           0        3.449870    3.301028    1.496622
     90          1           0        1.802965    3.331358    0.757640
     91          1           0        3.208434    3.795932   -0.020232
     92          1           0       -2.833097   -2.905564   -0.238837
     93          1           0       -2.676989   -2.330202   -1.911009
     94          1           0       -1.205304   -2.457243   -0.912769
     95          1           0        2.576492   -0.112523   -0.427834
     96          1           0       -2.117260    1.034822    0.349308
     97          1           0        0.352705    1.968343    0.356740
     98          1           0        0.273621   -1.141051   -0.651767
 ---------------------------------------------------------------------

 SCF Done:  E(RCAM-B3LYP) =  -1707.02586322     A.U. after   14 cycles

 Excitation energies and oscillator strengths:

 Excited State   1:      Singlet-A      2.6698 eV  464.40 nm  f=3.6334  <S**2>=0.000
     155 ->158        -0.14930
     156 ->157         0.68786
 This state for optimization and/or second-order correction.
 Total Energy, E(TD-HF/TD-DFT) =  -1706.92775105
 Copying the excited state density for this state as the 1-particle RhoCI density.

 The electronic state is 1-A.
 Alpha  occ. eigenvalues --  -19.22353 -19.20523 -10.32128 -10.30432 -10.29302
 Alpha  occ. eigenvalues --  -10.28797 -10.27770 -10.27584 -10.27172 -10.27128
 Alpha  occ. eigenvalues --  -10.27095 -10.26918 -10.26877 -10.26807 -10.26724
 Alpha  occ. eigenvalues --  -10.26438 -10.26394 -10.26363 -10.26218 -10.26164
 Alpha  occ. eigenvalues --  -10.26161 -10.26122 -10.25966 -10.25901 -10.25835
 Alpha  occ. eigenvalues --  -10.25789 -10.25734 -10.25683 -10.25651 -10.25628
 Alpha  occ. eigenvalues --  -10.25486 -10.25049 -10.24907 -10.24820 -10.24643
 Alpha  occ. eigenvalues --  -10.24640 -10.24599 -10.24585 -10.24496 -10.24275
 Alpha  occ. eigenvalues --  -10.24073 -10.23846  -1.12311  -1.09239  -0.94199
 Alpha  occ. eigenvalues --   -0.93014  -0.92659  -0.91814  -0.91161  -0.89999
 Alpha  occ. eigenvalues --   -0.88209  -0.87585  -0.86913  -0.85924  -0.84761
 Alpha  occ. eigenvalues --   -0.83070  -0.81875  -0.80522  -0.80129  -0.78216
 Alpha  occ. eigenvalues --   -0.77289  -0.76933  -0.76202  -0.76125  -0.75841
 Alpha  occ. eigenvalues --   -0.75108  -0.74438  -0.74260  -0.73759  -0.70966
 Alpha  occ. eigenvalues --   -0.69323  -0.68602  -0.66679  -0.64963  -0.63890
 Alpha  occ. eigenvalues --   -0.63199  -0.62275  -0.60928  -0.60312  -0.59969
 Alpha  occ. eigenvalues --   -0.59487  -0.58692  -0.58305  -0.57203  -0.56175
 Alpha  occ. eigenvalues --   -0.55945  -0.55645  -0.55061  -0.54799  -0.54106
 Alpha  occ. eigenvalues --   -0.53459  -0.53166  -0.52488  -0.52017  -0.50780
 Alpha  occ. eigenvalues --   -0.50465  -0.50361  -0.50192  -0.49882  -0.49604
 Alpha  occ. eigenvalues --   -0.49505  -0.49077  -0.48688  -0.48295  -0.48016
 Alpha  occ. eigenvalues --   -0.47871  -0.47748  -0.47305  -0.47172  -0.46240
 Alpha  occ. eigenvalues --   -0.45943  -0.45828  -0.45673  -0.45436  -0.44995
 Alpha  occ. eigenvalues --   -0.44819  -0.44612  -0.44437  -0.44320  -0.44237
 Alpha  occ. eigenvalues --   -0.44058  -0.42836  -0.42579  -0.42255  -0.41981
 Alpha  occ. eigenvalues --   -0.41961  -0.41710  -0.41574  -0.41361  -0.40983
 Alpha  occ. eigenvalues --   -0.40636  -0.39876  -0.39568  -0.39333  -0.38958
 Alpha  occ. eigenvalues --   -0.38899  -0.38709  -0.38469  -0.38412  -0.37850
 Alpha  occ. eigenvalues --   -0.37374  -0.37126  -0.36886  -0.36433  -0.36345
 Alpha  occ. eigenvalues --   -0.36104  -0.34418  -0.33662  -0.32625  -0.31876
 Alpha  occ. eigenvalues --   -0.31307  -0.29752  -0.28139  -0.26414  -0.24513
 Alpha  occ. eigenvalues --   -0.20496
 Alpha virt. eigenvalues --   -0.04510  -0.00015   0.02814   0.06625   0.07965
 Alpha virt. eigenvalues --    0.09963   0.10812   0.11194   0.11492   0.12346
 Alpha virt. eigenvalues --    0.12397   0.13284   0.13560   0.13901   0.14097

 Mulliken charges:
               1
     1  O   -0.550747
     2  O   -0.536080
     3  C   -0.042714
     4  C   -0.003187
     5  C   -0.173019
     6  C   -0.225772
     7  C    0.148409
     8  C    0.188707
     9  C    0.040867
    10  C    0.012217
    11  C   -0.237320
    12  C   -0.232388
    13  C    0.090565
    14  C    0.080508
    15  C   -0.260117
    16  C   -0.284116
    17  C   -0.301113
    18  C   -0.298457
    19  C   -0.134640
    20  C   -0.131446
    21  C   -0.348270
    22  C   -0.360603
    23  C   -0.100459
    24  C   -0.064196
    25  C    0.075887
    26  C    0.112366
    27  C   -0.356111
    28  C   -0.356550
    29  C   -0.102863
    30  C   -0.111030
    31  C   -0.103599
    32  C   -0.064873
    33  C   -0.109326
    34  C   -0.143215
    35  C    0.111917
    36  C    0.128007
    37  C   -0.365041
    38  C   -0.363250
    39  C   -0.120245
    40  C   -0.136630
    41  C   -0.089624
    42  C   -0.109415
    43  H    0.110637
    44  H    0.068305
    45  H    0.063643
    46  H    0.103551
    47  H    0.024904
    48  H    0.087113
    49  H    0.122620
    50  H    0.119018
    51  H    0.123747
    52  H    0.106552
    53  H    0.087510
    54  H    0.102796
    55  H    0.054557
    56  H    0.115336
    57  H    0.088027
    58  H    0.112125
    59  H    0.094067
    60  H    0.116736
    61  H    0.102192
    62  H    0.113316
    63  H    0.072990
    64  H    0.101023
    65  H    0.091617
    66  H    0.079178
    67  H    0.125200
    68  H    0.101035
    69  H    0.104064
    70  H    0.111545
    71  H    0.113095
    72  H    0.105505
    73  H    0.318435
    74  H    0.294847
    75  H    0.080542
    76  H    0.063554
    77  H    0.109736
    78  H    0.113262
    79  H    0.124178
    80  H    0.086588
    81  H    0.110291
    82  H    0.110448
    83  H    0.071514
    84  H    0.068273
    85  H    0.080198
    86  H    0.062419
    87  H    0.080678
    88  H    0.093304
    89  H    0.125654
    90  H    0.110269
    91  H    0.128028
    92  H    0.108904
    93  H    0.127319
    94  H    0.108322
    95  H    0.064708
    96  H    0.088054
    97  H    0.083651
    98  H    0.091785
 Sum of Mulliken charges =  -0.00000

 Dipole moment (field-independent basis, Debye):
    X=             -0.9598    Y=             -1.2735    Z=              1.3295  Tot=              2.0762
 Quadrupole moment (field-independent basis, Debye-Ang):
   XX=           -271.8321   YY=           -246.4412   ZZ=           -260.4929
   XY=              6.5821   XZ=             -5.2450   YZ=              0.2504

 Normal termination of Gaussian 16 at Mon Jul  8 15:38:03 2019.
