 Gaussian 16, Revision A.03,
 Gaussian 16:  ES64L-G16RevA.03 25-Dec-2016

 -------------------------------------
 # td=(NStates=1) CAM-B3LYP/6-31G(d,p)
 -------------------------------------

 --
 TD
 --
 Symbolic Z-matrix:
 Charge =  0 Multiplicity = 1

                         Standard orientation:
 ---------------------------------------------------------------------
 Center     Atomic      Atomic             Coordinates (Angstroms)
 Number     Number       Type             X           Y           Z
 ---------------------------------------------------------------------
      1          8           0       14.752867   -2.365199   -0.215995
      2          8           0      -14.803193    1.853335    0.797026
      3          6           0       11.435344   -1.046985    1.242701
      4          6           0      -12.300487   -0.870102    0.820304
      5          6           0       12.917781   -1.511535    1.158555
      6          6           0      -13.692666   -0.195782    0.789836
      7          6           0       13.328130   -2.045745   -0.200332
      8          6           0      -13.473082    1.335668    0.719823
      9          6           0       11.002519   -0.255429   -0.050300
     10          6           0      -11.297659   -0.316001   -0.198726
     11          6           0       13.130888   -0.925884   -1.240182
     12          6           0      -12.762557    1.676353   -0.543620
     13          6           0       11.756302   -0.314989   -1.129314
     14          6           0      -11.622008    0.776543   -0.876168
     15          6           0       11.166303   -0.129749    2.392481
     16          6           0       10.438554   -2.263945    1.467242
     17          6           0      -11.668875   -0.785479    2.225351
     18          6           0      -12.617733   -2.372259    0.624012
     19          6           0        9.648251    0.312733    0.026738
     20          6           0      -10.071720   -1.144246   -0.461456
     21          6           0       11.328721    0.338238   -2.452473
     22          6           0      -10.661633    1.361810   -1.926545
     23          6           0        9.336324    1.606545   -0.228229
     24          6           0       -8.838047   -0.622114   -0.355385
     25          6           0        7.979585    2.252695   -0.043906
     26          6           0       -7.569855   -1.312442   -0.559981
     27          6           0        8.139497    3.698333    0.419256
     28          6           0       -7.719722   -2.749906   -0.895451
     29          6           0        6.825341    1.590160   -0.137400
     30          6           0       -6.473722   -0.654919   -0.192696
     31          6           0        5.574407    2.084067    0.252425
     32          6           0       -5.114147   -1.121874   -0.489165
     33          6           0        4.369422    1.381522   -0.121221
     34          6           0       -3.997442   -0.381869   -0.378136
     35          6           0        3.083436    1.761368    0.119867
     36          6           0       -2.619213   -0.730768   -0.494187
     37          6           0        2.772684    3.152865    0.766116
     38          6           0       -2.306615   -2.111443   -0.842154
     39          6           0        2.067640    0.863216   -0.111734
     40          6           0       -1.556994    0.199022   -0.306398
     41          6           0        0.723248    0.968750   -0.089941
     42          6           0       -0.156611    0.028223   -0.333836
     43          1           0       13.519558   -0.589681    1.334459
     44          1           0       12.926971   -2.426524    1.936525
     45          1           0      -14.450165   -0.351679    1.606004
     46          1           0      -14.135013   -0.504472   -0.109433
     47          1           0       12.672739   -2.907595   -0.582664
     48          1           0      -12.934218    1.639429    1.633057
     49          1           0       14.010532   -0.112610   -1.202425
     50          1           0       13.046539   -1.402631   -2.205055
     51          1           0      -13.690360    1.811790   -1.282750
     52          1           0      -12.301695    2.689170   -0.471005
     53          1           0       11.615839   -0.704237    3.182694
     54          1           0       10.056774    0.095203    2.785193
     55          1           0       11.623142    0.854370    2.407551
     56          1           0       10.643308   -3.141897    0.840443
     57          1           0       10.472726   -2.738636    2.527791
     58          1           0        9.355654   -2.172913    1.298608
     59          1           0      -11.047082    0.312749    2.330947
     60          1           0      -10.820600   -1.525338    2.376752
     61          1           0      -12.403323   -1.217889    2.927534
     62          1           0      -13.325627   -2.896183    1.373472
     63          1           0      -11.846170   -2.948002    0.529351
     64          1           0      -13.072484   -2.538054   -0.372811
     65          1           0        8.907248   -0.395136    0.671188
     66          1           0      -10.174028   -2.110269   -0.374390
     67          1           0       10.131721    0.500073   -2.560244
     68          1           0       11.854390    1.204468   -2.613539
     69          1           0       11.525092   -0.302649   -3.191638
     70          1           0      -11.189106    1.461434   -2.979201
     71          1           0       -9.581232    0.714719   -2.106930
     72          1           0      -10.442571    2.453699   -1.579711
     73          1           0       15.015797   -3.010714    0.410103
     74          1           0      -15.164179    1.833370    1.632883
     75          1           0       10.283815    2.077451   -0.716665
     76          1           0       -8.740620    0.416630    0.137347
     77          1           0        8.767203    4.199897   -0.304907
     78          1           0        7.176822    4.325041    0.511012
     79          1           0        8.592777    3.992045    1.259506
     80          1           0       -8.455380   -3.282161   -0.334728
     81          1           0       -8.033884   -2.707500   -2.199604
     82          1           0       -6.800326   -3.332314   -0.852087
     83          1           0        6.774576    0.499172   -0.517145
     84          1           0       -6.696860    0.393773   -0.030537
     85          1           0        5.589741    2.857726    0.823344
     86          1           0       -4.877574   -1.955158   -0.771758
     87          1           0        4.668736    0.480464   -0.845922
     88          1           0       -4.021373    0.627637   -0.127749
     89          1           0        3.191510    3.076448    1.805820
     90          1           0        1.580526    3.243179    0.738507
     91          1           0        3.429249    3.932103    0.400945
     92          1           0       -2.777283   -2.761325   -0.059041
     93          1           0       -3.128453   -2.437906   -1.622240
     94          1           0       -1.145647   -2.494150   -0.921755
     95          1           0        2.583285    0.075108   -0.731229
     96          1           0       -1.940827    1.137010   -0.191286
     97          1           0        0.450739    1.951221    0.312535
     98          1           0        0.110160   -0.940698   -0.778000
 ---------------------------------------------------------------------

 SCF Done:  E(RCAM-B3LYP) =  -1706.93249934     A.U. after   15 cycles

 Excitation energies and oscillator strengths:

 Excited State   1:      Singlet-A      2.4447 eV  507.16 nm  f=3.6670  <S**2>=0.000
     155 ->158         0.14608
     156 ->157         0.69073
 This state for optimization and/or second-order correction.
 Total Energy, E(TD-HF/TD-DFT) =  -1706.84265926
 Copying the excited state density for this state as the 1-particle RhoCI density.

 The electronic state is 1-A.
 Alpha  occ. eigenvalues --  -19.20747 -19.19631 -10.31536 -10.29792 -10.28135
 Alpha  occ. eigenvalues --  -10.27874 -10.27754 -10.27616 -10.27330 -10.27294
 Alpha  occ. eigenvalues --  -10.27239 -10.27204 -10.27156 -10.27091 -10.27056
 Alpha  occ. eigenvalues --  -10.26947 -10.26816 -10.26608 -10.26542 -10.26507
 Alpha  occ. eigenvalues --  -10.26432 -10.26258 -10.26214 -10.26198 -10.26073
 Alpha  occ. eigenvalues --  -10.25920 -10.25890 -10.25798 -10.25742 -10.25724
 Alpha  occ. eigenvalues --  -10.25593 -10.25476 -10.25466 -10.25433 -10.25183
 Alpha  occ. eigenvalues --  -10.25171 -10.25100 -10.25048 -10.24474 -10.23955
 Alpha  occ. eigenvalues --  -10.23769 -10.23762  -1.09465  -1.08449  -0.93840
 Alpha  occ. eigenvalues --   -0.93372  -0.93038  -0.92398  -0.91212  -0.90352
 Alpha  occ. eigenvalues --   -0.88157  -0.86982  -0.86638  -0.85925  -0.85263
 Alpha  occ. eigenvalues --   -0.83547  -0.82323  -0.80240  -0.79902  -0.78683
 Alpha  occ. eigenvalues --   -0.77087  -0.76554  -0.76079  -0.75985  -0.75642
 Alpha  occ. eigenvalues --   -0.75195  -0.75008  -0.74700  -0.73948  -0.72039
 Alpha  occ. eigenvalues --   -0.69169  -0.67718  -0.66579  -0.65165  -0.64357
 Alpha  occ. eigenvalues --   -0.63398  -0.63040  -0.62448  -0.61024  -0.60831
 Alpha  occ. eigenvalues --   -0.59661  -0.59366  -0.58245  -0.57868  -0.56855
 Alpha  occ. eigenvalues --   -0.56057  -0.55459  -0.55060  -0.54435  -0.53989
 Alpha  occ. eigenvalues --   -0.53360  -0.52596  -0.52152  -0.51601  -0.51264
 Alpha  occ. eigenvalues --   -0.50183  -0.50065  -0.49517  -0.49370  -0.49197
 Alpha  occ. eigenvalues --   -0.48801  -0.48564  -0.48244  -0.47758  -0.47429
 Alpha  occ. eigenvalues --   -0.47042  -0.46880  -0.46801  -0.46450  -0.45780
 Alpha  occ. eigenvalues --   -0.45530  -0.45434  -0.45208  -0.44990  -0.44824
 Alpha  occ. eigenvalues --   -0.44551  -0.44255  -0.43622  -0.43435  -0.43111
 Alpha  occ. eigenvalues --   -0.43077  -0.42893  -0.42682  -0.42537  -0.42035
 Alpha  occ. eigenvalues --   -0.41802  -0.41459  -0.41295  -0.40986  -0.40916
 Alpha  occ. eigenvalues --   -0.40875  -0.40461  -0.40163  -0.39978  -0.39539
 Alpha  occ. eigenvalues --   -0.39274  -0.39052  -0.38170  -0.37998  -0.37844
 Alpha  occ. eigenvalues --   -0.37666  -0.37388  -0.36650  -0.36620  -0.35787
 Alpha  occ. eigenvalues --   -0.34948  -0.34171  -0.33446  -0.33034  -0.32330
 Alpha  occ. eigenvalues --   -0.30597  -0.30325  -0.28418  -0.26870  -0.24483
 Alpha  occ. eigenvalues --   -0.20237
 Alpha virt. eigenvalues --   -0.05558  -0.00647   0.02958   0.05543   0.08046
 Alpha virt. eigenvalues --    0.09860   0.10684   0.11437   0.11772   0.12173
 Alpha virt. eigenvalues --    0.12660   0.13087   0.13265   0.13654   0.13709

 Mulliken charges:
               1
     1  O   -0.568511
     2  O   -0.569536
     3  C   -0.008686
     4  C   -0.036338
     5  C   -0.192797
     6  C   -0.156117
     7  C    0.177403
     8  C    0.160268
     9  C    0.076565
    10  C    0.061574
    11  C   -0.209320
    12  C   -0.223349
    13  C    0.007308
    14  C    0.065540
    15  C   -0.293779
    16  C   -0.326045
    17  C   -0.283796
    18  C   -0.311652
    19  C   -0.101907
    20  C   -0.105139
    21  C   -0.356422
    22  C   -0.345980
    23  C   -0.122109
    24  C   -0.121354
    25  C    0.068874
    26  C    0.157434
    27  C   -0.373336
    28  C   -0.351165
    29  C   -0.106288
    30  C   -0.137997
    31  C   -0.056392
    32  C   -0.024855
    33  C   -0.139959
    34  C   -0.111496
    35  C    0.112111
    36  C    0.141257
    37  C   -0.362793
    38  C   -0.410155
    39  C   -0.118425
    40  C   -0.130615
    41  C   -0.060535
    42  C   -0.064895
    43  H    0.114605
    44  H    0.076613
    45  H    0.072934
    46  H    0.107114
    47  H    0.081800
    48  H    0.081164
    49  H    0.111249
    50  H    0.111453
    51  H    0.116804
    52  H    0.104564
    53  H    0.094942
    54  H    0.095973
    55  H    0.103114
    56  H    0.097222
    57  H    0.087804
    58  H    0.113183
    59  H    0.076464
    60  H    0.093525
    61  H    0.101620
    62  H    0.091557
    63  H    0.102368
    64  H    0.095586
    65  H    0.077205
    66  H    0.075643
    67  H    0.099451
    68  H    0.123369
    69  H    0.111652
    70  H    0.097495
    71  H    0.102080
    72  H    0.095090
    73  H    0.300480
    74  H    0.297863
    75  H    0.091594
    76  H    0.092002
    77  H    0.119714
    78  H    0.090708
    79  H    0.136356
    80  H    0.131397
    81  H    0.076584
    82  H    0.115155
    83  H    0.083609
    84  H    0.088931
    85  H    0.065040
    86  H    0.022265
    87  H    0.079893
    88  H    0.065029
    89  H    0.123451
    90  H    0.100875
    91  H    0.127310
    92  H    0.121767
    93  H    0.111163
    94  H    0.108231
    95  H    0.069591
    96  H    0.067388
    97  H    0.073424
    98  H    0.079941
 Sum of Mulliken charges =  -0.00000

 Dipole moment (field-independent basis, Debye):
    X=              0.5456    Y=             -1.4021    Z=              2.2583  Tot=              2.7136
 Quadrupole moment (field-independent basis, Debye-Ang):
   XX=           -281.7196   YY=           -243.0715   ZZ=           -261.4946
   XY=              9.8794   XZ=             -5.8259   YZ=              2.8186

 Normal termination of Gaussian 16 at Sat Jun 29 02:37:54 2019.
