 Gaussian 16, Revision A.03,
 Gaussian 16:  ES64L-G16RevA.03 25-Dec-2016

 -------------------------------------
 # td=(NStates=1) CAM-B3LYP/6-31G(d,p)
 -------------------------------------

 --
 TD
 --
 Symbolic Z-matrix:
 Charge =  0 Multiplicity = 1

                         Standard orientation:
 ---------------------------------------------------------------------
 Center     Atomic      Atomic             Coordinates (Angstroms)
 Number     Number       Type             X           Y           Z
 ---------------------------------------------------------------------
      1          8           0       14.797862   -2.132899   -0.426902
      2          8           0      -14.841951    1.954957    0.785908
      3          6           0       11.456523   -1.078266    1.113567
      4          6           0      -12.269634   -0.922915    0.840169
      5          6           0       12.957196   -1.417719    0.972814
      6          6           0      -13.548740   -0.126212    0.935629
      7          6           0       13.398670   -1.889481   -0.339474
      8          6           0      -13.493491    1.374850    0.705191
      9          6           0       11.020560   -0.349819   -0.013232
     10          6           0      -11.364829   -0.254044   -0.197409
     11          6           0       13.151755   -0.791993   -1.289401
     12          6           0      -12.885639    1.705257   -0.667735
     13          6           0       11.744128   -0.149738   -1.183097
     14          6           0      -11.664024    0.812915   -0.897631
     15          6           0       11.286965   -0.314933    2.483713
     16          6           0       10.609811   -2.461568    1.175279
     17          6           0      -11.550734   -0.825471    2.230762
     18          6           0      -12.582891   -2.364110    0.547502
     19          6           0        9.618687    0.268453    0.136178
     20          6           0      -10.102283   -1.037375   -0.346483
     21          6           0       11.242249    0.678174   -2.342250
     22          6           0      -10.894294    1.373941   -2.109968
     23          6           0        9.354954    1.580523   -0.042497
     24          6           0       -8.872254   -0.569994   -0.276299
     25          6           0        8.057999    2.167033    0.211574
     26          6           0       -7.615793   -1.386747   -0.434228
     27          6           0        8.100782    3.595446    0.778176
     28          6           0       -7.740969   -2.825171   -0.776918
     29          6           0        6.890208    1.507532   -0.031840
     30          6           0       -6.506127   -0.572829   -0.361465
     31          6           0        5.564409    1.895233    0.213360
     32          6           0       -5.115617   -1.065519   -0.521124
     33          6           0        4.389853    1.296039   -0.075219
     34          6           0       -4.068539   -0.310891   -0.342112
     35          6           0        3.092141    1.707956    0.164031
     36          6           0       -2.670377   -0.751885   -0.450252
     37          6           0        2.878746    3.144794    0.592922
     38          6           0       -2.378936   -2.199405   -0.795434
     39          6           0        2.074028    0.755389   -0.111404
     40          6           0       -1.611226    0.063422   -0.267684
     41          6           0        0.605714    0.952264   -0.070449
     42          6           0       -0.174323   -0.151225   -0.292590
     43          1           0       13.561853   -0.642765    1.353675
     44          1           0       13.128944   -2.113377    1.861341
     45          1           0      -14.043662   -0.356761    1.973614
     46          1           0      -14.361466   -0.584604    0.075837
     47          1           0       12.795078   -2.771940   -0.673195
     48          1           0      -12.888050    1.775637    1.440603
     49          1           0       13.922202   -0.060986   -1.196849
     50          1           0       13.060559   -1.208375   -2.313271
     51          1           0      -13.591281    1.575843   -1.528696
     52          1           0      -12.665093    2.780119   -0.870090
     53          1           0       11.653616   -0.984321    3.456433
     54          1           0       10.314390    0.001380    2.599158
     55          1           0       11.992897    0.526707    2.254463
     56          1           0       10.602968   -2.686009    0.054827
     57          1           0       11.226291   -3.211450    1.672446
     58          1           0        9.662561   -2.328618    1.721911
     59          1           0      -11.615045    0.277459    2.448624
     60          1           0      -10.560339   -1.354856    2.239126
     61          1           0      -12.100588   -1.590281    2.833657
     62          1           0      -13.440354   -2.511664    1.365559
     63          1           0      -11.784289   -2.979527    0.626119
     64          1           0      -12.903159   -2.556451   -0.650161
     65          1           0        9.012979   -0.384659    0.666596
     66          1           0      -10.260068   -2.200005   -0.343723
     67          1           0       10.262728    0.847728   -2.271436
     68          1           0       11.773842    1.684625   -2.087693
     69          1           0       11.712784    0.500976   -3.420090
     70          1           0      -11.645679    1.625045   -2.950821
     71          1           0      -10.066194    0.778331   -2.501586
     72          1           0      -10.398930    2.420576   -1.767321
     73          1           0       14.925194   -2.995195   -0.070787
     74          1           0      -15.624301    1.637812    1.438255
     75          1           0       10.078534    2.205733   -0.252608
     76          1           0       -8.673880    0.583519   -0.331019
     77          1           0        8.893562    4.139452   -0.001130
     78          1           0        7.213735    4.040620    0.606212
     79          1           0        8.411287    3.580352    1.882810
     80          1           0       -8.252631   -3.232237    0.132557
     81          1           0       -8.366641   -3.024532   -1.611247
     82          1           0       -6.602779   -3.114775   -0.832055
     83          1           0        7.061553    0.394876   -0.572784
     84          1           0       -6.730456    0.398300    0.039155
     85          1           0        5.598389    2.901705    0.732562
     86          1           0       -4.851085   -2.089964   -0.717316
     87          1           0        4.652050    0.275450   -0.626793
     88          1           0       -4.237415    0.787832    0.046180
     89          1           0        3.453655    3.404630    1.504044
     90          1           0        1.738712    3.274960    0.806930
     91          1           0        3.369973    3.654758   -0.256949
     92          1           0       -2.742520   -2.707839   -0.001319
     93          1           0       -3.076347   -2.485794   -1.706899
     94          1           0       -1.355941   -2.430256   -1.051313
     95          1           0        2.480576   -0.341406   -0.366578
     96          1           0       -1.855835    1.162552   -0.194883
     97          1           0        0.122942    2.039564   -0.104003
     98          1           0        0.054946   -1.275824   -0.620143
 ---------------------------------------------------------------------

 SCF Done:  E(RCAM-B3LYP) =  -1707.00762752     A.U. after   14 cycles

 Excitation energies and oscillator strengths:

 Excited State   1:      Singlet-A      2.7664 eV  448.18 nm  f=3.4838  <S**2>=0.000
     155 ->158        -0.15955
     156 ->157         0.68381
 This state for optimization and/or second-order correction.
 Total Energy, E(TD-HF/TD-DFT) =  -1706.90596422
 Copying the excited state density for this state as the 1-particle RhoCI density.

 The electronic state is 1-A.
 Alpha  occ. eigenvalues --  -19.21161 -19.20295 -10.30633 -10.29980 -10.28481
 Alpha  occ. eigenvalues --  -10.27982 -10.27947 -10.27437 -10.27416 -10.26983
 Alpha  occ. eigenvalues --  -10.26970 -10.26966 -10.26955 -10.26860 -10.26793
 Alpha  occ. eigenvalues --  -10.26787 -10.26724 -10.26719 -10.26548 -10.26538
 Alpha  occ. eigenvalues --  -10.26487 -10.26464 -10.26386 -10.26343 -10.26266
 Alpha  occ. eigenvalues --  -10.26215 -10.26124 -10.25963 -10.25864 -10.25827
 Alpha  occ. eigenvalues --  -10.25674 -10.25670 -10.25652 -10.25554 -10.25514
 Alpha  occ. eigenvalues --  -10.25498 -10.25423 -10.25246 -10.25079 -10.24826
 Alpha  occ. eigenvalues --  -10.24498 -10.24030  -1.10302  -1.04819  -0.94099
 Alpha  occ. eigenvalues --   -0.93871  -0.91944  -0.91607  -0.90419  -0.89936
 Alpha  occ. eigenvalues --   -0.87383  -0.87054  -0.86321  -0.85608  -0.84684
 Alpha  occ. eigenvalues --   -0.83263  -0.82335  -0.80036  -0.79780  -0.77749
 Alpha  occ. eigenvalues --   -0.77162  -0.76359  -0.75920  -0.75795  -0.75556
 Alpha  occ. eigenvalues --   -0.75400  -0.75020  -0.74294  -0.73714  -0.70310
 Alpha  occ. eigenvalues --   -0.68867  -0.67672  -0.65867  -0.65212  -0.64057
 Alpha  occ. eigenvalues --   -0.63721  -0.62295  -0.60780  -0.60113  -0.59756
 Alpha  occ. eigenvalues --   -0.59270  -0.57848  -0.57228  -0.56839  -0.55538
 Alpha  occ. eigenvalues --   -0.55373  -0.54819  -0.54428  -0.54056  -0.53799
 Alpha  occ. eigenvalues --   -0.53172  -0.52336  -0.51584  -0.51180  -0.51133
 Alpha  occ. eigenvalues --   -0.50432  -0.50149  -0.50052  -0.49415  -0.49341
 Alpha  occ. eigenvalues --   -0.49145  -0.49057  -0.48630  -0.48498  -0.48264
 Alpha  occ. eigenvalues --   -0.47929  -0.47441  -0.47102  -0.46639  -0.46449
 Alpha  occ. eigenvalues --   -0.46026  -0.45602  -0.45451  -0.45107  -0.44992
 Alpha  occ. eigenvalues --   -0.44644  -0.44412  -0.44087  -0.43517  -0.43291
 Alpha  occ. eigenvalues --   -0.43078  -0.42853  -0.42382  -0.42149  -0.41893
 Alpha  occ. eigenvalues --   -0.41755  -0.41415  -0.41128  -0.40652  -0.40550
 Alpha  occ. eigenvalues --   -0.40293  -0.39911  -0.39577  -0.39534  -0.39296
 Alpha  occ. eigenvalues --   -0.38866  -0.38685  -0.38302  -0.37500  -0.37452
 Alpha  occ. eigenvalues --   -0.37033  -0.36797  -0.36098  -0.36050  -0.35341
 Alpha  occ. eigenvalues --   -0.35175  -0.34785  -0.33984  -0.32787  -0.32028
 Alpha  occ. eigenvalues --   -0.31819  -0.29778  -0.27968  -0.26251  -0.24244
 Alpha  occ. eigenvalues --   -0.20728
 Alpha virt. eigenvalues --   -0.04074   0.00206   0.03296   0.06363   0.08146
 Alpha virt. eigenvalues --    0.09489   0.10397   0.10503   0.11183   0.11495
 Alpha virt. eigenvalues --    0.12036   0.12568   0.12962   0.13446   0.13526

 Mulliken charges:
               1
     1  O   -0.549796
     2  O   -0.616144
     3  C   -0.056727
     4  C   -0.022271
     5  C   -0.180025
     6  C   -0.201927
     7  C    0.150742
     8  C    0.217827
     9  C    0.071357
    10  C    0.076993
    11  C   -0.201609
    12  C   -0.225275
    13  C    0.020648
    14  C    0.048778
    15  C   -0.285798
    16  C   -0.306172
    17  C   -0.285129
    18  C   -0.277244
    19  C   -0.116074
    20  C   -0.165632
    21  C   -0.350275
    22  C   -0.351430
    23  C   -0.070688
    24  C   -0.076912
    25  C    0.050159
    26  C    0.102346
    27  C   -0.345928
    28  C   -0.355739
    29  C   -0.102134
    30  C   -0.132887
    31  C   -0.094273
    32  C   -0.093251
    33  C   -0.108014
    34  C   -0.089242
    35  C    0.103647
    36  C    0.086658
    37  C   -0.360473
    38  C   -0.372817
    39  C   -0.135921
    40  C   -0.140094
    41  C   -0.116168
    42  C   -0.048802
    43  H    0.103940
    44  H    0.065298
    45  H    0.070455
    46  H    0.070232
    47  H    0.077006
    48  H    0.094291
    49  H    0.125371
    50  H    0.101374
    51  H    0.117669
    52  H    0.110757
    53  H    0.076531
    54  H    0.112291
    55  H    0.102354
    56  H    0.101406
    57  H    0.100861
    58  H    0.107976
    59  H    0.106304
    60  H    0.107536
    61  H    0.089298
    62  H    0.091799
    63  H    0.111516
    64  H    0.078660
    65  H    0.089609
    66  H    0.066938
    67  H    0.134744
    68  H    0.105708
    69  H    0.099922
    70  H    0.103228
    71  H    0.120199
    72  H    0.090397
    73  H    0.302176
    74  H    0.314817
    75  H    0.078915
    76  H    0.082745
    77  H    0.087862
    78  H    0.125820
    79  H    0.125273
    80  H    0.122313
    81  H    0.138105
    82  H    0.102227
    83  H    0.056780
    84  H    0.091610
    85  H    0.060439
    86  H    0.079410
    87  H    0.071512
    88  H    0.074703
    89  H    0.127010
    90  H    0.102069
    91  H    0.132266
    92  H    0.139313
    93  H    0.102303
    94  H    0.108052
    95  H    0.086860
    96  H    0.062512
    97  H    0.107576
    98  H    0.089375
 Sum of Mulliken charges =  -0.00000

 Dipole moment (field-independent basis, Debye):
    X=             -0.2695    Y=             -1.7504    Z=              1.3082  Tot=              2.2018
 Quadrupole moment (field-independent basis, Debye-Ang):
   XX=           -273.4354   YY=           -245.6809   ZZ=           -261.4661
   XY=             10.1914   XZ=             -2.9508   YZ=              0.5667

 Normal termination of Gaussian 16 at Thu Jun 27 10:04:43 2019.
