 Gaussian 16, Revision A.03,
 Gaussian 16:  ES64L-G16RevA.03 25-Dec-2016

 -------------------------------------
 # td=(NStates=1) CAM-B3LYP/6-31G(d,p)
 -------------------------------------

 --
 TD
 --
 Symbolic Z-matrix:
 Charge =  0 Multiplicity = 1

                         Standard orientation:
 ---------------------------------------------------------------------
 Center     Atomic      Atomic             Coordinates (Angstroms)
 Number     Number       Type             X           Y           Z
 ---------------------------------------------------------------------
      1          8           0       14.738021   -2.127556   -0.153394
      2          8           0      -14.664876    2.124055    0.838894
      3          6           0       11.451879   -0.911296    1.371113
      4          6           0      -12.264283   -0.726965    1.034313
      5          6           0       12.944838   -1.393204    1.233135
      6          6           0      -13.581626   -0.067526    1.045472
      7          6           0       13.369659   -1.815750   -0.178689
      8          6           0      -13.373149    1.426055    0.970108
      9          6           0       10.951929   -0.216233    0.070140
     10          6           0      -11.394935   -0.200349   -0.080934
     11          6           0       13.078029   -0.783574   -1.190376
     12          6           0      -12.773493    1.797298   -0.425865
     13          6           0       11.648894   -0.221485   -1.102374
     14          6           0      -11.626757    0.905225   -0.745712
     15          6           0       11.386807    0.054315    2.584375
     16          6           0       10.634594   -2.155845    1.519248
     17          6           0      -11.692676   -0.738862    2.329226
     18          6           0      -12.444751   -2.320428    0.655688
     19          6           0        9.549188    0.264468    0.160333
     20          6           0      -10.087467   -0.978742   -0.348823
     21          6           0       11.217399    0.437773   -2.369578
     22          6           0      -10.742778    1.388816   -1.959312
     23          6           0        9.322051    1.578585   -0.293922
     24          6           0       -8.880183   -0.590833   -0.460633
     25          6           0        7.973943    2.226868   -0.072916
     26          6           0       -7.651448   -1.349518   -0.578810
     27          6           0        7.940181    3.619227    0.220461
     28          6           0       -7.779013   -2.898600   -0.892259
     29          6           0        6.815210    1.480566   -0.183015
     30          6           0       -6.388622   -0.761551   -0.699521
     31          6           0        5.489786    1.858996    0.069072
     32          6           0       -5.080438   -1.370188   -0.888024
     33          6           0        4.409842    1.048355    0.094963
     34          6           0       -3.946270   -0.540511   -0.647692
     35          6           0        3.101424    1.583443    0.167064
     36          6           0       -2.581999   -0.898519   -0.713055
     37          6           0        2.820958    2.965729    0.607558
     38          6           0       -2.249091   -2.405472   -0.989613
     39          6           0        2.040418    0.684009   -0.199683
     40          6           0       -1.684965    0.136577   -0.406492
     41          6           0        0.546557    0.846650   -0.096388
     42          6           0       -0.293795   -0.159037   -0.360673
     43          1           0       13.535453   -0.543111    1.594053
     44          1           0       13.208025   -2.143058    1.907986
     45          1           0      -14.094043   -0.506940    2.029511
     46          1           0      -14.030958   -0.366923    0.174062
     47          1           0       12.673770   -2.807606   -0.493391
     48          1           0      -13.039827    1.756532    1.793754
     49          1           0       13.729452    0.126344   -1.100505
     50          1           0       13.359361   -1.165016   -2.265590
     51          1           0      -13.567675    1.505579   -1.248520
     52          1           0      -12.475095    2.806996   -0.619912
     53          1           0       11.780231   -0.518985    3.656579
     54          1           0       10.477265    0.540367    2.754930
     55          1           0       12.282198    0.648260    2.053850
     56          1           0       10.867077   -3.023937    0.778473
     57          1           0       11.028700   -2.473249    2.617544
     58          1           0        9.679127   -1.971027    1.420348
     59          1           0      -11.498841    0.378310    2.816084
     60          1           0      -10.727635   -1.357052    2.379738
     61          1           0      -12.387465   -1.434444    2.997514
     62          1           0      -13.538937   -2.536598    1.170398
     63          1           0      -11.632787   -2.709036    0.964200
     64          1           0      -12.445191   -2.489747   -0.376178
     65          1           0        8.552476   -0.232667    0.264186
     66          1           0      -10.183588   -2.144506   -0.471316
     67          1           0       10.050027    0.712041   -2.399332
     68          1           0       12.017095    1.156119   -2.457294
     69          1           0       11.295516   -0.192566   -3.252889
     70          1           0      -11.519018    1.840585   -2.650890
     71          1           0      -10.210842    0.623450   -2.635333
     72          1           0      -10.007724    2.145313   -1.585326
     73          1           0       14.674201   -2.779170    0.740015
     74          1           0      -14.990699    2.095893    1.829164
     75          1           0        9.885588    2.130654   -0.777272
     76          1           0       -8.623303    0.537200   -0.230322
     77          1           0        8.523589    4.153905   -0.690498
     78          1           0        7.067838    4.189939    0.402254
     79          1           0        8.582348    3.841439    1.049255
     80          1           0       -8.268433   -3.211734    0.071008
     81          1           0       -8.424025   -2.950749   -1.694578
     82          1           0       -6.799224   -3.241339   -0.812666
     83          1           0        6.800950    0.357302   -0.420934
     84          1           0       -6.419020    0.279923   -0.582654
     85          1           0        5.358012    3.008065   -0.009645
     86          1           0       -4.761356   -2.339295   -1.115697
     87          1           0        4.394214   -0.070475   -0.346206
     88          1           0       -3.973374    0.394315   -0.360155
     89          1           0        3.283324    3.295500    1.500302
     90          1           0        1.801090    3.286926    0.652855
     91          1           0        3.517495    3.721494    0.039523
     92          1           0       -2.653412   -3.172856   -0.200854
     93          1           0       -2.793411   -2.712100   -1.746545
     94          1           0       -1.199666   -2.583951   -1.072212
     95          1           0        2.310709   -0.365069   -0.294177
     96          1           0       -2.172393    1.049284   -0.149471
     97          1           0        0.102757    1.811799    0.087101
     98          1           0       -0.040200   -1.113116   -0.655772
 ---------------------------------------------------------------------

 SCF Done:  E(RCAM-B3LYP) =  -1706.86840081     A.U. after   14 cycles

 Excitation energies and oscillator strengths:

 Excited State   1:      Singlet-A      2.5266 eV  490.72 nm  f=3.5956  <S**2>=0.000
     155 ->158        -0.16306
     156 ->157         0.68497
 This state for optimization and/or second-order correction.
 Total Energy, E(TD-HF/TD-DFT) =  -1706.77555107
 Copying the excited state density for this state as the 1-particle RhoCI density.

 The electronic state is 1-A.
 Alpha  occ. eigenvalues --  -19.22972 -19.20701 -10.31806 -10.29348 -10.27955
 Alpha  occ. eigenvalues --  -10.27835 -10.27656 -10.27639 -10.27401 -10.27155
 Alpha  occ. eigenvalues --  -10.27067 -10.26840 -10.26785 -10.26747 -10.26689
 Alpha  occ. eigenvalues --  -10.26638 -10.26556 -10.26549 -10.26533 -10.26463
 Alpha  occ. eigenvalues --  -10.26398 -10.26345 -10.26043 -10.26007 -10.25974
 Alpha  occ. eigenvalues --  -10.25960 -10.25886 -10.25875 -10.25843 -10.25813
 Alpha  occ. eigenvalues --  -10.25753 -10.25608 -10.25561 -10.25474 -10.25445
 Alpha  occ. eigenvalues --  -10.25171 -10.25029 -10.24949 -10.24622 -10.24496
 Alpha  occ. eigenvalues --  -10.24329 -10.24196  -1.09315  -1.06724  -0.94580
 Alpha  occ. eigenvalues --   -0.93738  -0.92192  -0.91819  -0.90363  -0.89841
 Alpha  occ. eigenvalues --   -0.87782  -0.87600  -0.87129  -0.85275  -0.84537
 Alpha  occ. eigenvalues --   -0.83184  -0.81828  -0.80531  -0.79630  -0.78759
 Alpha  occ. eigenvalues --   -0.77241  -0.77047  -0.76445  -0.76129  -0.76074
 Alpha  occ. eigenvalues --   -0.75765  -0.75394  -0.74851  -0.73792  -0.70522
 Alpha  occ. eigenvalues --   -0.69047  -0.68493  -0.65921  -0.64818  -0.64027
 Alpha  occ. eigenvalues --   -0.63334  -0.63245  -0.62646  -0.60920  -0.59764
 Alpha  occ. eigenvalues --   -0.59456  -0.58812  -0.57877  -0.57288  -0.56501
 Alpha  occ. eigenvalues --   -0.56178  -0.55510  -0.54820  -0.54248  -0.54123
 Alpha  occ. eigenvalues --   -0.53102  -0.52951  -0.52433  -0.51502  -0.51384
 Alpha  occ. eigenvalues --   -0.51083  -0.50525  -0.50206  -0.49918  -0.49542
 Alpha  occ. eigenvalues --   -0.49073  -0.48876  -0.48738  -0.48655  -0.48167
 Alpha  occ. eigenvalues --   -0.47981  -0.47652  -0.46985  -0.46482  -0.46165
 Alpha  occ. eigenvalues --   -0.46083  -0.45898  -0.45743  -0.45605  -0.45473
 Alpha  occ. eigenvalues --   -0.44513  -0.44349  -0.44239  -0.43941  -0.43779
 Alpha  occ. eigenvalues --   -0.43471  -0.43181  -0.42895  -0.42719  -0.42665
 Alpha  occ. eigenvalues --   -0.42097  -0.41988  -0.41309  -0.41146  -0.41124
 Alpha  occ. eigenvalues --   -0.40808  -0.40698  -0.40076  -0.39869  -0.39614
 Alpha  occ. eigenvalues --   -0.39159  -0.38966  -0.38231  -0.37894  -0.37686
 Alpha  occ. eigenvalues --   -0.37394  -0.36961  -0.36814  -0.36284  -0.35975
 Alpha  occ. eigenvalues --   -0.35063  -0.34461  -0.33309  -0.31926  -0.31722
 Alpha  occ. eigenvalues --   -0.31219  -0.29380  -0.28032  -0.26821  -0.23662
 Alpha  occ. eigenvalues --   -0.19914
 Alpha virt. eigenvalues --   -0.04602  -0.00455   0.03178   0.05840   0.07366
 Alpha virt. eigenvalues --    0.08628   0.08881   0.09922   0.11287   0.11533
 Alpha virt. eigenvalues --    0.11643   0.11722   0.13041   0.13385   0.13675

 Mulliken charges:
               1
     1  O   -0.544574
     2  O   -0.567448
     3  C   -0.036678
     4  C   -0.027220
     5  C   -0.207131
     6  C   -0.172199
     7  C    0.201101
     8  C    0.170091
     9  C    0.028967
    10  C    0.084213
    11  C   -0.223226
    12  C   -0.216489
    13  C    0.065141
    14  C    0.026892
    15  C   -0.267368
    16  C   -0.263206
    17  C   -0.274585
    18  C   -0.297823
    19  C   -0.121686
    20  C   -0.157529
    21  C   -0.362285
    22  C   -0.349398
    23  C   -0.070160
    24  C   -0.051602
    25  C    0.078425
    26  C    0.037721
    27  C   -0.379380
    28  C   -0.351782
    29  C   -0.125075
    30  C   -0.110569
    31  C   -0.081028
    32  C   -0.098452
    33  C   -0.131154
    34  C   -0.087552
    35  C    0.155423
    36  C    0.092855
    37  C   -0.382257
    38  C   -0.374265
    39  C   -0.174653
    40  C   -0.135209
    41  C   -0.088223
    42  C   -0.047282
    43  H    0.099788
    44  H    0.081049
    45  H    0.069795
    46  H    0.110885
    47  H    0.043124
    48  H    0.082655
    49  H    0.115346
    50  H    0.103048
    51  H    0.119788
    52  H    0.118407
    53  H    0.065856
    54  H    0.122017
    55  H    0.095285
    56  H    0.088001
    57  H    0.069859
    58  H    0.109141
    59  H    0.076321
    60  H    0.102090
    61  H    0.082210
    62  H    0.078694
    63  H    0.116304
    64  H    0.113289
    65  H    0.114837
    66  H    0.061319
    67  H    0.111071
    68  H    0.120992
    69  H    0.113513
    70  H    0.093301
    71  H    0.117498
    72  H    0.116399
    73  H    0.306931
    74  H    0.289078
    75  H    0.076631
    76  H    0.061244
    77  H    0.094789
    78  H    0.125122
    79  H    0.132863
    80  H    0.107634
    81  H    0.135321
    82  H    0.115239
    83  H    0.069190
    84  H    0.077333
    85  H    0.073435
    86  H    0.079632
    87  H    0.084525
    88  H    0.055724
    89  H    0.134535
    90  H    0.119485
    91  H    0.095481
    92  H    0.107979
    93  H    0.137189
    94  H    0.112007
    95  H    0.078272
    96  H    0.092271
    97  H    0.082568
    98  H    0.080296
 Sum of Mulliken charges =  -0.00000

 Dipole moment (field-independent basis, Debye):
    X=              1.8064    Y=              0.1557    Z=              1.7611  Tot=              2.5276
 Quadrupole moment (field-independent basis, Debye-Ang):
   XX=           -299.4797   YY=           -245.9627   ZZ=           -259.3335
   XY=             13.4830   XZ=             -8.4865   YZ=              2.4517

 Normal termination of Gaussian 16 at Sat Jul  6 03:35:37 2019.
