 Gaussian 16, Revision A.03,
 Gaussian 16:  ES64L-G16RevA.03 25-Dec-2016

 -------------------------------------
 # td=(NStates=1) CAM-B3LYP/6-31G(d,p)
 -------------------------------------

 --
 TD
 --
 Symbolic Z-matrix:
 Charge =  0 Multiplicity = 1

                         Standard orientation:
 ---------------------------------------------------------------------
 Center     Atomic      Atomic             Coordinates (Angstroms)
 Number     Number       Type             X           Y           Z
 ---------------------------------------------------------------------
      1          8           0       14.789336   -2.059522   -0.416847
      2          8           0      -14.726624    1.899220    0.697183
      3          6           0       11.435926   -1.226983    1.117688
      4          6           0      -12.428810   -1.033263    0.672179
      5          6           0       12.930096   -1.454914    1.005829
      6          6           0      -13.714292   -0.371379    0.644682
      7          6           0       13.321771   -1.933486   -0.268689
      8          6           0      -13.426436    1.226628    0.769629
      9          6           0       10.977304   -0.383217   -0.008341
     10          6           0      -11.281012   -0.282745   -0.240556
     11          6           0       12.953414   -0.897991   -1.331124
     12          6           0      -12.665193    1.876981   -0.357501
     13          6           0       11.628349   -0.220564   -1.159887
     14          6           0      -11.510456    0.932251   -0.787913
     15          6           0       11.188235   -0.469700    2.520658
     16          6           0       10.632677   -2.548230    1.208081
     17          6           0      -11.830787   -0.963291    2.128249
     18          6           0      -12.678180   -2.424072    0.234320
     19          6           0        9.666465    0.303646    0.273752
     20          6           0      -10.066493   -1.128797   -0.548898
     21          6           0       11.170630    0.577238   -2.383258
     22          6           0      -10.581722    1.611567   -1.695295
     23          6           0        9.368218    1.527922   -0.075869
     24          6           0       -8.881677   -0.559286   -0.373956
     25          6           0        8.053169    2.262796    0.073905
     26          6           0       -7.613383   -1.304356   -0.402253
     27          6           0        8.130706    3.710666    0.440414
     28          6           0       -7.628827   -2.754933   -0.825600
     29          6           0        6.970795    1.557802    0.066179
     30          6           0       -6.355368   -0.667646   -0.231390
     31          6           0        5.585199    2.093409    0.297862
     32          6           0       -5.053759   -1.095677   -0.483050
     33          6           0        4.460207    1.305702    0.075149
     34          6           0       -4.097475   -0.313307   -0.240416
     35          6           0        3.068850    1.740983    0.248825
     36          6           0       -2.646613   -0.633730   -0.420747
     37          6           0        2.749451    3.171207    0.545844
     38          6           0       -2.447775   -2.084945   -0.874896
     39          6           0        2.124418    0.812640   -0.048663
     40          6           0       -1.643406    0.244589   -0.223490
     41          6           0        0.709190    0.957069   -0.034743
     42          6           0       -0.233041   -0.012728   -0.339166
     43          1           0       13.557470   -0.650005    1.298572
     44          1           0       13.152091   -2.171845    1.802535
     45          1           0      -14.233155   -0.707560    1.605530
     46          1           0      -14.223223   -0.509604   -0.253884
     47          1           0       12.827035   -2.805231   -0.765294
     48          1           0      -12.733039    1.388497    1.740158
     49          1           0       13.851232   -0.108475   -1.174223
     50          1           0       12.899832   -1.209255   -2.449036
     51          1           0      -13.250596    1.951040   -1.195351
     52          1           0      -12.300434    2.819143   -0.207784
     53          1           0       11.465038   -1.108698    3.272999
     54          1           0       10.061025   -0.160018    2.576836
     55          1           0       11.842472    0.475618    2.416722
     56          1           0       10.567563   -3.133986    0.371141
     57          1           0       10.923011   -3.117690    1.859665
     58          1           0        9.619185   -2.389036    1.429399
     59          1           0      -11.745428    0.104988    2.463932
     60          1           0      -10.939079   -1.416256    2.223729
     61          1           0      -12.497527   -1.366486    2.891195
     62          1           0      -13.428088   -3.023214    0.806192
     63          1           0      -11.734936   -3.022840    0.228227
     64          1           0      -13.157003   -2.327703   -0.891983
     65          1           0        8.967253   -0.465143    0.769250
     66          1           0      -10.049870   -2.132401   -0.828210
     67          1           0       10.075217    0.884491   -2.419310
     68          1           0       11.755805    1.338206   -2.633284
     69          1           0       11.465405    0.011242   -3.278502
     70          1           0      -11.024920    2.190688   -2.510956
     71          1           0      -10.019565    0.885669   -2.252789
     72          1           0       -9.834296    2.322405   -1.540702
     73          1           0       15.118700   -2.987579   -0.136492
     74          1           0      -15.249991    1.555689    1.483631
     75          1           0       10.015857    1.979173   -0.527264
     76          1           0       -8.870059    0.485870    0.098586
     77          1           0        8.880729    4.146857   -0.211998
     78          1           0        7.141550    4.233873    0.065012
     79          1           0        8.486667    3.888457    1.512181
     80          1           0       -8.343129   -3.105255    0.119048
     81          1           0       -8.085987   -2.989202   -1.648107
     82          1           0       -6.640810   -3.163138   -0.753050
     83          1           0        6.958540    0.538694   -0.245943
     84          1           0       -6.316089    0.382964   -0.052997
     85          1           0        5.430971    3.085844    0.616638
     86          1           0       -4.844126   -2.097724   -0.892443
     87          1           0        4.535829    0.270505   -0.218800
     88          1           0       -4.360569    0.609281    0.353275
     89          1           0        3.224440    3.459485    1.407938
     90          1           0        1.731556    3.381030    0.720767
     91          1           0        2.955407    3.765487   -0.129995
     92          1           0       -2.727003   -2.824140   -0.149535
     93          1           0       -2.954956   -2.179360   -1.717702
     94          1           0       -1.427309   -2.351184   -1.057563
     95          1           0        2.373123   -0.155620   -0.307975
     96          1           0       -1.817328    1.151424    0.300689
     97          1           0        0.302010    1.861887    0.295106
     98          1           0        0.079645   -1.094592   -0.325745
 ---------------------------------------------------------------------

 SCF Done:  E(RCAM-B3LYP) =  -1706.97932869     A.U. after   13 cycles

 Excitation energies and oscillator strengths:

 Excited State   1:      Singlet-A      2.9554 eV  419.51 nm  f=3.6457  <S**2>=0.000
     155 ->158         0.17719
     156 ->157         0.67914
 This state for optimization and/or second-order correction.
 Total Energy, E(TD-HF/TD-DFT) =  -1706.87071873
 Copying the excited state density for this state as the 1-particle RhoCI density.

 The electronic state is 1-A.
 Alpha  occ. eigenvalues --  -19.21094 -19.21035 -10.31180 -10.30185 -10.27666
 Alpha  occ. eigenvalues --  -10.27289 -10.27217 -10.27109 -10.26950 -10.26500
 Alpha  occ. eigenvalues --  -10.26492 -10.26483 -10.26298 -10.26231 -10.26131
 Alpha  occ. eigenvalues --  -10.26085 -10.25988 -10.25897 -10.25874 -10.25867
 Alpha  occ. eigenvalues --  -10.25732 -10.25615 -10.25491 -10.25481 -10.25480
 Alpha  occ. eigenvalues --  -10.25406 -10.25369 -10.25156 -10.25027 -10.24869
 Alpha  occ. eigenvalues --  -10.24764 -10.24689 -10.24652 -10.24415 -10.23975
 Alpha  occ. eigenvalues --  -10.23874 -10.23623 -10.23540 -10.23270 -10.23077
 Alpha  occ. eigenvalues --  -10.22757 -10.21805  -1.07027  -1.06509  -0.94290
 Alpha  occ. eigenvalues --   -0.93190  -0.92533  -0.91651  -0.90636  -0.89848
 Alpha  occ. eigenvalues --   -0.88173  -0.87362  -0.86984  -0.85816  -0.84807
 Alpha  occ. eigenvalues --   -0.83137  -0.82458  -0.80958  -0.80056  -0.79733
 Alpha  occ. eigenvalues --   -0.78078  -0.77144  -0.76991  -0.76806  -0.76255
 Alpha  occ. eigenvalues --   -0.75811  -0.75281  -0.74763  -0.74270  -0.70286
 Alpha  occ. eigenvalues --   -0.68540  -0.67365  -0.65755  -0.65149  -0.64191
 Alpha  occ. eigenvalues --   -0.63566  -0.62711  -0.62179  -0.61586  -0.60671
 Alpha  occ. eigenvalues --   -0.59631  -0.58913  -0.58610  -0.58052  -0.56542
 Alpha  occ. eigenvalues --   -0.55420  -0.54961  -0.54576  -0.54468  -0.53754
 Alpha  occ. eigenvalues --   -0.53570  -0.52512  -0.52207  -0.51927  -0.51150
 Alpha  occ. eigenvalues --   -0.50904  -0.50758  -0.50516  -0.50127  -0.49595
 Alpha  occ. eigenvalues --   -0.49280  -0.48759  -0.48589  -0.48476  -0.48351
 Alpha  occ. eigenvalues --   -0.48030  -0.47705  -0.47581  -0.47290  -0.46633
 Alpha  occ. eigenvalues --   -0.46285  -0.45996  -0.45524  -0.45429  -0.45354
 Alpha  occ. eigenvalues --   -0.44874  -0.44302  -0.43898  -0.43699  -0.43596
 Alpha  occ. eigenvalues --   -0.43322  -0.43083  -0.42818  -0.42710  -0.42578
 Alpha  occ. eigenvalues --   -0.42385  -0.42177  -0.41946  -0.41292  -0.41135
 Alpha  occ. eigenvalues --   -0.40925  -0.40770  -0.40681  -0.39859  -0.39353
 Alpha  occ. eigenvalues --   -0.39021  -0.38767  -0.38601  -0.37905  -0.37729
 Alpha  occ. eigenvalues --   -0.37477  -0.37304  -0.36764  -0.35662  -0.35638
 Alpha  occ. eigenvalues --   -0.34767  -0.34304  -0.33916  -0.32849  -0.32549
 Alpha  occ. eigenvalues --   -0.30798  -0.29599  -0.28303  -0.26441  -0.24219
 Alpha  occ. eigenvalues --   -0.21137
 Alpha virt. eigenvalues --   -0.03616   0.00246   0.03663   0.06750   0.08472
 Alpha virt. eigenvalues --    0.10315   0.11573   0.12054   0.12227   0.12849
 Alpha virt. eigenvalues --    0.12856   0.13060   0.13500   0.13867   0.14617

 Mulliken charges:
               1
     1  O   -0.579937
     2  O   -0.567586
     3  C   -0.063387
     4  C    0.003495
     5  C   -0.160920
     6  C   -0.167347
     7  C    0.149965
     8  C    0.136776
     9  C    0.069438
    10  C    0.028157
    11  C   -0.225373
    12  C   -0.187254
    13  C    0.065160
    14  C    0.044838
    15  C   -0.292931
    16  C   -0.292566
    17  C   -0.306790
    18  C   -0.294484
    19  C   -0.106925
    20  C   -0.138778
    21  C   -0.366036
    22  C   -0.395291
    23  C   -0.077234
    24  C   -0.063746
    25  C    0.069646
    26  C    0.046870
    27  C   -0.362889
    28  C   -0.345206
    29  C   -0.092479
    30  C   -0.146845
    31  C   -0.111386
    32  C   -0.024548
    33  C   -0.109095
    34  C   -0.119715
    35  C    0.100468
    36  C    0.075121
    37  C   -0.365497
    38  C   -0.376439
    39  C   -0.119449
    40  C   -0.128160
    41  C   -0.086932
    42  C   -0.096305
    43  H    0.114181
    44  H    0.079338
    45  H    0.081809
    46  H    0.108138
    47  H    0.091214
    48  H    0.063973
    49  H    0.101372
    50  H    0.085950
    51  H    0.128711
    52  H    0.123753
    53  H    0.106597
    54  H    0.099351
    55  H    0.097614
    56  H    0.104674
    57  H    0.104555
    58  H    0.100435
    59  H    0.096446
    60  H    0.114828
    61  H    0.089174
    62  H    0.102322
    63  H    0.092261
    64  H    0.077577
    65  H    0.080994
    66  H    0.092523
    67  H    0.119786
    68  H    0.130635
    69  H    0.094426
    70  H    0.095044
    71  H    0.119575
    72  H    0.123003
    73  H    0.305080
    74  H    0.301082
    75  H    0.056059
    76  H    0.093895
    77  H    0.115229
    78  H    0.101930
    79  H    0.127155
    80  H    0.087829
    81  H    0.136543
    82  H    0.111535
    83  H    0.080638
    84  H    0.074599
    85  H    0.081283
    86  H    0.083310
    87  H    0.081116
    88  H    0.080366
    89  H    0.122782
    90  H    0.108618
    91  H    0.137792
    92  H    0.124245
    93  H    0.135203
    94  H    0.103123
    95  H    0.071319
    96  H    0.082867
    97  H    0.072966
    98  H    0.084772
 Sum of Mulliken charges =  -0.00000

 Dipole moment (field-independent basis, Debye):
    X=              0.7645    Y=             -2.1541    Z=              1.5154  Tot=              2.7425
 Quadrupole moment (field-independent basis, Debye-Ang):
   XX=           -281.9178   YY=           -239.4787   ZZ=           -258.0340
   XY=              2.5872   XZ=             -6.8189   YZ=              0.7380

 Normal termination of Gaussian 16 at Wed Jun 26 18:08:50 2019.
