 Gaussian 16, Revision A.03,
 Gaussian 16:  ES64L-G16RevA.03 25-Dec-2016

 -------------------------------------
 # td=(NStates=1) CAM-B3LYP/6-31G(d,p)
 -------------------------------------

 --
 TD
 --
 Symbolic Z-matrix:
 Charge =  0 Multiplicity = 1

                         Standard orientation:
 ---------------------------------------------------------------------
 Center     Atomic      Atomic             Coordinates (Angstroms)
 Number     Number       Type             X           Y           Z
 ---------------------------------------------------------------------
      1          8           0       14.844155   -2.004164   -0.406965
      2          8           0      -14.821012    1.997831    0.649567
      3          6           0       11.507442   -1.046503    1.194669
      4          6           0      -12.439080   -0.873237    0.748000
      5          6           0       13.075405   -1.200471    1.130523
      6          6           0      -13.808130   -0.156680    0.764576
      7          6           0       13.480633   -1.837285   -0.246532
      8          6           0      -13.582910    1.336162    0.709145
      9          6           0       11.022693   -0.310895   -0.063280
     10          6           0      -11.409213   -0.338595   -0.148367
     11          6           0       13.064458   -0.945578   -1.419591
     12          6           0      -12.839522    1.677234   -0.520462
     13          6           0       11.689438   -0.308442   -1.265089
     14          6           0      -11.591756    0.813233   -0.822848
     15          6           0       11.213622   -0.207432    2.512333
     16          6           0       10.857922   -2.419360    1.381140
     17          6           0      -11.777902   -0.831395    2.191527
     18          6           0      -12.591878   -2.364829    0.402450
     19          6           0        9.665555    0.378510    0.145262
     20          6           0      -10.170776   -0.999361   -0.386709
     21          6           0       11.220758    0.423785   -2.438165
     22          6           0      -10.753989    1.525470   -1.893955
     23          6           0        9.441842    1.574141   -0.206265
     24          6           0       -8.904551   -0.485679   -0.271287
     25          6           0        8.083777    2.212883    0.102552
     26          6           0       -7.653728   -1.273925   -0.493739
     27          6           0        8.175930    3.744550    0.337496
     28          6           0       -7.805073   -2.732844   -0.884147
     29          6           0        6.905144    1.537566    0.109054
     30          6           0       -6.474527   -0.622979   -0.370749
     31          6           0        5.643776    2.015337    0.284955
     32          6           0       -5.140395   -1.086601   -0.442379
     33          6           0        4.554198    1.276516    0.106907
     34          6           0       -3.945207   -0.393738   -0.186802
     35          6           0        3.042544    1.492852    0.188589
     36          6           0       -2.651036   -0.825102   -0.369565
     37          6           0        2.789062    2.848186    0.487675
     38          6           0       -2.372562   -2.184900   -0.838038
     39          6           0        2.037911    0.649576   -0.054493
     40          6           0       -1.636378    0.027416   -0.175198
     41          6           0        0.647635    0.871362   -0.008173
     42          6           0       -0.190261   -0.210431   -0.239791
     43          1           0       13.442778    0.022304    1.157125
     44          1           0       13.509919   -1.859569    1.922192
     45          1           0      -14.578359   -0.554959    1.477532
     46          1           0      -14.280886   -0.487599   -0.037884
     47          1           0       12.944026   -2.875190   -0.392884
     48          1           0      -13.277592    1.699666    1.556318
     49          1           0       13.677811   -0.110938   -1.499213
     50          1           0       13.260530   -1.396073   -2.341378
     51          1           0      -13.560788    1.764861   -1.383566
     52          1           0      -12.490283    2.814612   -0.561596
     53          1           0       11.776760   -0.815052    3.269134
     54          1           0       10.131885   -0.303187    2.911547
     55          1           0       11.719361    0.835830    2.568532
     56          1           0       10.942837   -2.998486    0.408205
     57          1           0       11.237529   -3.184761    2.109670
     58          1           0        9.699940   -2.221657    1.491123
     59          1           0      -11.826296    0.128575    2.548055
     60          1           0      -10.890171   -1.308029    1.992544
     61          1           0      -12.370441   -1.472956    2.830915
     62          1           0      -13.233198   -2.822526    1.007297
     63          1           0      -11.826629   -3.026089    0.492484
     64          1           0      -12.928874   -2.574536   -0.591904
     65          1           0        8.824050   -0.164467    0.746164
     66          1           0      -10.176088   -1.991122   -0.532768
     67          1           0       10.150425    0.606787   -2.473644
     68          1           0       11.837647    1.142841   -2.763692
     69          1           0       11.362201   -0.409807   -3.202868
     70          1           0      -11.293068    1.961501   -2.693994
     71          1           0       -9.869219    0.698443   -2.306089
     72          1           0      -10.231871    2.285372   -1.548616
     73          1           0       15.184624   -2.677653    0.163126
     74          1           0      -14.994829    2.333533    1.728936
     75          1           0       10.200225    2.311617   -0.589320
     76          1           0       -8.789355    0.561059    0.002279
     77          1           0        8.424650    4.315023   -0.715243
     78          1           0        7.085045    4.053622    0.488166
     79          1           0        8.722970    3.902454    1.330831
     80          1           0       -8.236300   -3.168689    0.210984
     81          1           0       -8.669725   -2.888695   -1.690213
     82          1           0       -6.914533   -3.314890   -1.130262
     83          1           0        6.941534    0.493374   -0.131546
     84          1           0       -6.618546    0.395592   -0.040255
     85          1           0        5.457321    3.032090    0.615984
     86          1           0       -4.815861   -2.064582   -0.731662
     87          1           0        4.868172    0.224004    0.057764
     88          1           0       -3.964921    0.614821   -0.015749
     89          1           0        3.234285    3.343768    1.445835
     90          1           0        1.847047    3.251113    0.551665
     91          1           0        3.208587    3.671933   -0.477171
     92          1           0       -2.827666   -3.211353   -0.284508
     93          1           0       -2.825688   -2.109297   -1.904240
     94          1           0       -1.388529   -2.420026   -0.933832
     95          1           0        2.416285   -0.312645   -0.523078
     96          1           0       -1.932112    0.950380    0.097432
     97          1           0        0.124241    1.975226    0.425684
     98          1           0        0.108788   -1.086034   -0.358525
 ---------------------------------------------------------------------

 SCF Done:  E(RCAM-B3LYP) =  -1706.91329527     A.U. after   14 cycles

 Excitation energies and oscillator strengths:

 Excited State   1:      Singlet-A      2.7093 eV  457.63 nm  f=3.7130  <S**2>=0.000
     155 ->158        -0.15878
     156 ->157         0.68524
 This state for optimization and/or second-order correction.
 Total Energy, E(TD-HF/TD-DFT) =  -1706.81373120
 Copying the excited state density for this state as the 1-particle RhoCI density.

 The electronic state is 1-A.
 Alpha  occ. eigenvalues --  -19.21537 -19.21168 -10.31332 -10.28760 -10.28429
 Alpha  occ. eigenvalues --  -10.28026 -10.27870 -10.27685 -10.27431 -10.27276
 Alpha  occ. eigenvalues --  -10.27231 -10.27090 -10.26825 -10.26650 -10.26406
 Alpha  occ. eigenvalues --  -10.26323 -10.26281 -10.26258 -10.26119 -10.26109
 Alpha  occ. eigenvalues --  -10.26005 -10.25998 -10.25904 -10.25866 -10.25827
 Alpha  occ. eigenvalues --  -10.25785 -10.25764 -10.25667 -10.25565 -10.25306
 Alpha  occ. eigenvalues --  -10.25180 -10.24913 -10.24902 -10.24829 -10.24701
 Alpha  occ. eigenvalues --  -10.24627 -10.24576 -10.24106 -10.23935 -10.23467
 Alpha  occ. eigenvalues --  -10.22608 -10.22159  -1.10988  -1.07981  -0.94080
 Alpha  occ. eigenvalues --   -0.93067  -0.92780  -0.91985  -0.90505  -0.90081
 Alpha  occ. eigenvalues --   -0.87460  -0.87058  -0.86518  -0.85862  -0.85018
 Alpha  occ. eigenvalues --   -0.82786  -0.82106  -0.80350  -0.79789  -0.78064
 Alpha  occ. eigenvalues --   -0.77553  -0.76773  -0.76135  -0.75563  -0.75558
 Alpha  occ. eigenvalues --   -0.75081  -0.74701  -0.74576  -0.74343  -0.70612
 Alpha  occ. eigenvalues --   -0.68521  -0.67581  -0.66571  -0.65373  -0.64875
 Alpha  occ. eigenvalues --   -0.63935  -0.63522  -0.62320  -0.60813  -0.60345
 Alpha  occ. eigenvalues --   -0.59677  -0.59258  -0.58259  -0.57843  -0.56262
 Alpha  occ. eigenvalues --   -0.55278  -0.54943  -0.54888  -0.54152  -0.53724
 Alpha  occ. eigenvalues --   -0.53603  -0.52801  -0.52251  -0.52126  -0.51160
 Alpha  occ. eigenvalues --   -0.50467  -0.50266  -0.50100  -0.49828  -0.49380
 Alpha  occ. eigenvalues --   -0.48969  -0.48478  -0.48327  -0.48196  -0.47601
 Alpha  occ. eigenvalues --   -0.47289  -0.47194  -0.46812  -0.46479  -0.46465
 Alpha  occ. eigenvalues --   -0.45980  -0.45927  -0.45546  -0.45298  -0.45076
 Alpha  occ. eigenvalues --   -0.44709  -0.43819  -0.43575  -0.43498  -0.43206
 Alpha  occ. eigenvalues --   -0.43091  -0.42663  -0.42550  -0.42144  -0.41921
 Alpha  occ. eigenvalues --   -0.41587  -0.41434  -0.41054  -0.40789  -0.40300
 Alpha  occ. eigenvalues --   -0.40214  -0.39777  -0.39547  -0.39283  -0.39101
 Alpha  occ. eigenvalues --   -0.39019  -0.38838  -0.38718  -0.38468  -0.37914
 Alpha  occ. eigenvalues --   -0.37696  -0.37272  -0.36170  -0.36053  -0.35843
 Alpha  occ. eigenvalues --   -0.35321  -0.34690  -0.34091  -0.32446  -0.31786
 Alpha  occ. eigenvalues --   -0.31162  -0.29345  -0.27772  -0.26373  -0.24058
 Alpha  occ. eigenvalues --   -0.20651
 Alpha virt. eigenvalues --   -0.04442   0.00064   0.03414   0.06384   0.07627
 Alpha virt. eigenvalues --    0.07917   0.10131   0.11160   0.11779   0.11955
 Alpha virt. eigenvalues --    0.12265   0.12845   0.12924   0.13258   0.13393

 Mulliken charges:
               1
     1  O   -0.547094
     2  O   -0.572712
     3  C   -0.005750
     4  C   -0.062098
     5  C   -0.177249
     6  C   -0.173059
     7  C    0.176962
     8  C    0.199672
     9  C    0.023796
    10  C    0.106687
    11  C   -0.212832
    12  C   -0.232195
    13  C    0.056219
    14  C    0.049283
    15  C   -0.295773
    16  C   -0.300574
    17  C   -0.283462
    18  C   -0.328972
    19  C   -0.112861
    20  C   -0.137102
    21  C   -0.362155
    22  C   -0.355776
    23  C   -0.070221
    24  C   -0.094000
    25  C    0.030803
    26  C    0.130365
    27  C   -0.363007
    28  C   -0.359831
    29  C   -0.103124
    30  C   -0.129133
    31  C   -0.030836
    32  C   -0.097561
    33  C   -0.152308
    34  C   -0.111178
    35  C    0.154857
    36  C    0.158731
    37  C   -0.370759
    38  C   -0.373360
    39  C   -0.142289
    40  C   -0.142873
    41  C   -0.080104
    42  C   -0.030731
    43  H    0.072150
    44  H    0.077528
    45  H    0.081805
    46  H    0.109649
    47  H    0.059722
    48  H    0.071818
    49  H    0.128130
    50  H    0.110388
    51  H    0.119182
    52  H    0.079021
    53  H    0.092404
    54  H    0.094152
    55  H    0.098954
    56  H    0.099355
    57  H    0.103182
    58  H    0.086541
    59  H    0.100256
    60  H    0.112184
    61  H    0.089044
    62  H    0.102302
    63  H    0.107200
    64  H    0.103293
    65  H    0.093060
    66  H    0.072609
    67  H    0.129447
    68  H    0.126506
    69  H    0.093336
    70  H    0.113319
    71  H    0.082096
    72  H    0.131266
    73  H    0.301544
    74  H    0.293210
    75  H    0.095881
    76  H    0.086297
    77  H    0.108148
    78  H    0.103382
    79  H    0.127252
    80  H    0.094191
    81  H    0.114096
    82  H    0.121698
    83  H    0.077558
    84  H    0.077656
    85  H    0.081963
    86  H    0.074390
    87  H    0.060743
    88  H    0.065193
    89  H    0.102898
    90  H    0.111829
    91  H    0.062209
    92  H    0.091320
    93  H    0.116747
    94  H    0.113805
    95  H    0.085893
    96  H    0.063641
    97  H    0.086472
    98  H    0.065693
 Sum of Mulliken charges =  -0.00000

 Dipole moment (field-independent basis, Debye):
    X=              1.0580    Y=             -1.1699    Z=              1.8657  Tot=              2.4431
 Quadrupole moment (field-independent basis, Debye-Ang):
   XX=           -263.5239   YY=           -240.5957   ZZ=           -259.1154
   XY=             -7.3625   XZ=            -11.7738   YZ=              3.0139

 Normal termination of Gaussian 16 at Fri Jun 28 12:02:01 2019.
