 Gaussian 16, Revision A.03,
 Gaussian 16:  ES64L-G16RevA.03 25-Dec-2016

 -------------------------------------
 # td=(NStates=1) CAM-B3LYP/6-31G(d,p)
 -------------------------------------

 --
 TD
 --
 Symbolic Z-matrix:
 Charge =  0 Multiplicity = 1

                         Standard orientation:
 ---------------------------------------------------------------------
 Center     Atomic      Atomic             Coordinates (Angstroms)
 Number     Number       Type             X           Y           Z
 ---------------------------------------------------------------------
      1          8           0       14.581664   -2.445298   -0.458545
      2          8           0      -14.777141    2.002531    0.699088
      3          6           0       11.360807   -1.119843    1.176990
      4          6           0      -12.320344   -0.931193    0.822869
      5          6           0       12.845798   -1.499635    1.094400
      6          6           0      -13.707059   -0.288080    0.844219
      7          6           0       13.163914   -2.059951   -0.367862
      8          6           0      -13.534124    1.373242    0.716495
      9          6           0       10.935381   -0.342421   -0.017895
     10          6           0      -11.374196   -0.273767   -0.168139
     11          6           0       12.851443   -0.971356   -1.412189
     12          6           0      -12.848168    1.620776   -0.604070
     13          6           0       11.591750   -0.299150   -1.246608
     14          6           0      -11.645571    0.833574   -0.851836
     15          6           0       11.264991   -0.296394    2.416836
     16          6           0       10.512526   -2.375964    1.415099
     17          6           0      -11.711815   -0.991588    2.167773
     18          6           0      -12.640810   -2.380210    0.396436
     19          6           0        9.620571    0.410298    0.168836
     20          6           0      -10.028733   -1.168745   -0.412392
     21          6           0       11.211254    0.453914   -2.434151
     22          6           0      -10.714626    1.433421   -1.998894
     23          6           0        9.511910    1.724247   -0.073667
     24          6           0       -8.803871   -0.503681   -0.410894
     25          6           0        8.143014    2.402483    0.162639
     26          6           0       -7.554764   -1.318499   -0.590953
     27          6           0        8.185689    3.780615    0.522501
     28          6           0       -7.639407   -2.794901   -0.818530
     29          6           0        6.954387    1.627811   -0.035675
     30          6           0       -6.418887   -0.570573   -0.452110
     31          6           0        5.592420    2.079172    0.228978
     32          6           0       -5.066014   -1.042643   -0.528489
     33          6           0        4.545104    1.349894   -0.039893
     34          6           0       -3.915259   -0.290790   -0.234808
     35          6           0        3.093050    1.760047    0.108601
     36          6           0       -2.560069   -0.724044   -0.335640
     37          6           0        2.800726    3.273417    0.391174
     38          6           0       -2.298885   -2.173053   -0.757262
     39          6           0        2.142663    0.776777   -0.109247
     40          6           0       -1.509036    0.082150    0.049761
     41          6           0        0.755747    0.934338    0.168635
     42          6           0       -0.104104   -0.085965   -0.099239
     43          1           0       13.471410   -0.580905    1.261402
     44          1           0       13.201096   -2.256102    1.798365
     45          1           0      -14.155218   -0.136588    1.802786
     46          1           0      -14.509726   -0.461297   -0.021398
     47          1           0       12.521085   -3.013651   -0.428845
     48          1           0      -13.034418    1.673680    1.665524
     49          1           0       13.826346   -0.295459   -1.561923
     50          1           0       13.024774   -1.544686   -2.309573
     51          1           0      -13.678406    1.555599   -1.429259
     52          1           0      -12.491103    2.665804   -0.553851
     53          1           0       11.749390   -0.988295    3.139533
     54          1           0       10.213235   -0.233653    2.841298
     55          1           0       11.725439    0.658535    2.502448
     56          1           0       10.339711   -3.130723    0.558267
     57          1           0       10.890605   -2.846044    2.300959
     58          1           0        9.550463   -2.054517    1.461461
     59          1           0      -11.422534   -0.076550    2.480326
     60          1           0      -10.681807   -1.546416    2.245032
     61          1           0      -12.302184   -1.435749    2.842681
     62          1           0      -13.632568   -2.682006    1.030665
     63          1           0      -11.706751   -3.039208    0.664660
     64          1           0      -12.915449   -2.644262   -0.747475
     65          1           0        8.788294   -0.051348    0.743879
     66          1           0      -10.283887   -2.238935   -0.586511
     67          1           0       10.196686    0.811608   -2.531232
     68          1           0       12.075675    1.350492   -2.647442
     69          1           0       11.394526   -0.211232   -3.203385
     70          1           0      -11.365413    1.813101   -2.852681
     71          1           0       -9.887490    0.761420   -2.515118
     72          1           0      -10.155250    2.157838   -1.521554
     73          1           0       14.798261   -3.288149    0.176353
     74          1           0      -15.119064    2.100485    1.784868
     75          1           0       10.361773    2.456942   -0.338107
     76          1           0       -8.766849    0.750618   -0.210464
     77          1           0        8.602407    4.388143   -0.335099
     78          1           0        7.243636    4.190044    0.947431
     79          1           0        8.922797    3.895468    1.369169
     80          1           0       -8.016810   -3.447059   -0.076668
     81          1           0       -8.414147   -3.160207   -1.570352
     82          1           0       -6.579428   -3.440967   -1.012543
     83          1           0        6.988265    0.770862   -0.464761
     84          1           0       -6.616647    0.471902   -0.312969
     85          1           0        5.587063    3.225987    0.447122
     86          1           0       -4.808240   -2.257635   -0.690879
     87          1           0        4.557903    0.346843   -0.199455
     88          1           0       -3.921943    0.911092    0.122839
     89          1           0        3.123859    3.529915    1.331451
     90          1           0        1.617567    3.167640    0.300871
     91          1           0        3.113499    3.999510   -0.351896
     92          1           0       -2.746807   -2.782383    0.178967
     93          1           0       -3.138675   -2.385724   -1.361648
     94          1           0       -1.478003   -2.390411   -1.198416
     95          1           0        2.586371   -0.102281   -0.539766
     96          1           0       -1.873616    1.037184    0.285818
     97          1           0        0.365084    2.006868    0.780658
     98          1           0        0.304637   -0.915382   -0.526712
 ---------------------------------------------------------------------

 SCF Done:  E(RCAM-B3LYP) =  -1706.91755819     A.U. after   14 cycles

 Excitation energies and oscillator strengths:

 Excited State   1:      Singlet-A      2.6803 eV  462.58 nm  f=3.6728  <S**2>=0.000
     155 ->158         0.16477
     156 ->157         0.68367
 This state for optimization and/or second-order correction.
 Total Energy, E(TD-HF/TD-DFT) =  -1706.81906080
 Copying the excited state density for this state as the 1-particle RhoCI density.

 The electronic state is 1-A.
 Alpha  occ. eigenvalues --  -19.22742 -19.21444 -10.31054 -10.30355 -10.28575
 Alpha  occ. eigenvalues --  -10.28217 -10.28201 -10.28097 -10.28022 -10.27756
 Alpha  occ. eigenvalues --  -10.27755 -10.27367 -10.27314 -10.27083 -10.27065
 Alpha  occ. eigenvalues --  -10.26932 -10.26889 -10.26834 -10.26632 -10.26501
 Alpha  occ. eigenvalues --  -10.26447 -10.26166 -10.26163 -10.26102 -10.26097
 Alpha  occ. eigenvalues --  -10.26008 -10.25730 -10.25729 -10.25613 -10.25609
 Alpha  occ. eigenvalues --  -10.25520 -10.25382 -10.25323 -10.25249 -10.25077
 Alpha  occ. eigenvalues --  -10.24826 -10.24721 -10.24719 -10.24465 -10.24455
 Alpha  occ. eigenvalues --  -10.24282 -10.22930  -1.08234  -1.05490  -0.94008
 Alpha  occ. eigenvalues --   -0.92882  -0.91659  -0.90910  -0.90120  -0.89309
 Alpha  occ. eigenvalues --   -0.88623  -0.87041  -0.86916  -0.84475  -0.83438
 Alpha  occ. eigenvalues --   -0.82543  -0.80779  -0.80294  -0.78345  -0.78152
 Alpha  occ. eigenvalues --   -0.76805  -0.76800  -0.76471  -0.76241  -0.75736
 Alpha  occ. eigenvalues --   -0.75052  -0.74970  -0.74084  -0.73638  -0.69789
 Alpha  occ. eigenvalues --   -0.67622  -0.66271  -0.64816  -0.64347  -0.63790
 Alpha  occ. eigenvalues --   -0.63502  -0.61886  -0.61549  -0.60210  -0.59699
 Alpha  occ. eigenvalues --   -0.58775  -0.58156  -0.57506  -0.57366  -0.56059
 Alpha  occ. eigenvalues --   -0.55493  -0.54748  -0.54201  -0.53924  -0.53688
 Alpha  occ. eigenvalues --   -0.52950  -0.52898  -0.52090  -0.50936  -0.50700
 Alpha  occ. eigenvalues --   -0.50364  -0.49855  -0.49391  -0.49220  -0.49084
 Alpha  occ. eigenvalues --   -0.48972  -0.48704  -0.48628  -0.48326  -0.48039
 Alpha  occ. eigenvalues --   -0.47596  -0.47014  -0.46502  -0.46179  -0.45913
 Alpha  occ. eigenvalues --   -0.45440  -0.45303  -0.45025  -0.44952  -0.44836
 Alpha  occ. eigenvalues --   -0.44388  -0.44012  -0.43543  -0.43434  -0.43008
 Alpha  occ. eigenvalues --   -0.42954  -0.42872  -0.42576  -0.42291  -0.41793
 Alpha  occ. eigenvalues --   -0.41595  -0.41373  -0.41142  -0.40872  -0.40460
 Alpha  occ. eigenvalues --   -0.40427  -0.39982  -0.39545  -0.39518  -0.39360
 Alpha  occ. eigenvalues --   -0.39030  -0.38882  -0.38532  -0.38117  -0.37904
 Alpha  occ. eigenvalues --   -0.37331  -0.37034  -0.36960  -0.36271  -0.35881
 Alpha  occ. eigenvalues --   -0.34747  -0.34437  -0.33683  -0.31966  -0.30554
 Alpha  occ. eigenvalues --   -0.29336  -0.28673  -0.27742  -0.26453  -0.23983
 Alpha  occ. eigenvalues --   -0.20346
 Alpha virt. eigenvalues --   -0.04225  -0.00040   0.03013   0.05860   0.07258
 Alpha virt. eigenvalues --    0.07787   0.09342   0.10067   0.10424   0.10763
 Alpha virt. eigenvalues --    0.11293   0.11528   0.12063   0.13442   0.13508

 Mulliken charges:
               1
     1  O   -0.585814
     2  O   -0.552514
     3  C   -0.029037
     4  C    0.000948
     5  C   -0.182465
     6  C   -0.196161
     7  C    0.161546
     8  C    0.140828
     9  C    0.044102
    10  C    0.042069
    11  C   -0.239045
    12  C   -0.213626
    13  C    0.095960
    14  C    0.042489
    15  C   -0.292277
    16  C   -0.293660
    17  C   -0.293784
    18  C   -0.286234
    19  C   -0.136483
    20  C   -0.139335
    21  C   -0.349654
    22  C   -0.355486
    23  C   -0.089704
    24  C   -0.107812
    25  C    0.067554
    26  C    0.143074
    27  C   -0.381697
    28  C   -0.386467
    29  C   -0.093811
    30  C   -0.118201
    31  C   -0.084358
    32  C   -0.119250
    33  C   -0.094338
    34  C   -0.099898
    35  C    0.066800
    36  C    0.105339
    37  C   -0.353581
    38  C   -0.356580
    39  C   -0.125973
    40  C   -0.122542
    41  C   -0.079689
    42  C   -0.076128
    43  H    0.096533
    44  H    0.071277
    45  H    0.077136
    46  H    0.100180
    47  H    0.075932
    48  H    0.072631
    49  H    0.109756
    50  H    0.118021
    51  H    0.113102
    52  H    0.103371
    53  H    0.090622
    54  H    0.088476
    55  H    0.115549
    56  H    0.092546
    57  H    0.105864
    58  H    0.110414
    59  H    0.109188
    60  H    0.093231
    61  H    0.108101
    62  H    0.087350
    63  H    0.079223
    64  H    0.091608
    65  H    0.106259
    66  H    0.105199
    67  H    0.122438
    68  H    0.080306
    69  H    0.120796
    70  H    0.102709
    71  H    0.110509
    72  H    0.124058
    73  H    0.306612
    74  H    0.303885
    75  H    0.096016
    76  H    0.095065
    77  H    0.124173
    78  H    0.114188
    79  H    0.116019
    80  H    0.136496
    81  H    0.115971
    82  H    0.087888
    83  H    0.065981
    84  H    0.085660
    85  H    0.071105
    86  H    0.072762
    87  H    0.069298
    88  H    0.067544
    89  H    0.131020
    90  H    0.085091
    91  H    0.129167
    92  H    0.109341
    93  H    0.122207
    94  H    0.110061
    95  H    0.089696
    96  H    0.065888
    97  H    0.087892
    98  H    0.083482
 Sum of Mulliken charges =  -0.00000

 Dipole moment (field-independent basis, Debye):
    X=              0.4797    Y=             -0.6544    Z=              2.2180  Tot=              2.3618
 Quadrupole moment (field-independent basis, Debye-Ang):
   XX=           -276.9690   YY=           -241.1605   ZZ=           -259.5478
   XY=             -0.5043   XZ=             -9.9933   YZ=              3.9053

 Normal termination of Gaussian 16 at Thu Jul  4 12:27:49 2019.
