 Gaussian 16, Revision A.03,
 Gaussian 16:  ES64L-G16RevA.03 25-Dec-2016

 -------------------------------------
 # td=(NStates=1) CAM-B3LYP/6-31G(d,p)
 -------------------------------------

 --
 TD
 --
 Symbolic Z-matrix:
 Charge =  0 Multiplicity = 1

                         Standard orientation:
 ---------------------------------------------------------------------
 Center     Atomic      Atomic             Coordinates (Angstroms)
 Number     Number       Type             X           Y           Z
 ---------------------------------------------------------------------
      1          8           0       14.709625   -2.137982   -0.293263
      2          8           0      -14.884942    1.888750    0.696023
      3          6           0       11.378366   -1.096212    1.194229
      4          6           0      -12.343420   -0.984006    0.729397
      5          6           0       12.874263   -1.440421    1.100603
      6          6           0      -13.704860   -0.219203    0.561091
      7          6           0       13.327708   -1.897932   -0.276835
      8          6           0      -13.576472    1.297946    0.776442
      9          6           0       10.973179   -0.267182    0.001039
     10          6           0      -11.427814   -0.380765   -0.196799
     11          6           0       13.181860   -0.825514   -1.327950
     12          6           0      -12.798427    1.681675   -0.441435
     13          6           0       11.808782   -0.196946   -1.087450
     14          6           0      -11.566167    0.925040   -0.674467
     15          6           0       11.202370   -0.298271    2.568815
     16          6           0       10.574221   -2.374660    1.341948
     17          6           0      -11.864186   -0.690939    2.250737
     18          6           0      -12.605885   -2.364055    0.402626
     19          6           0        9.726080    0.360130    0.080115
     20          6           0      -10.040277   -1.053511   -0.554151
     21          6           0       11.398184    0.462035   -2.376137
     22          6           0      -10.691016    1.660806   -1.729662
     23          6           0        9.338852    1.609579   -0.092690
     24          6           0       -8.828059   -0.591357   -0.207454
     25          6           0        8.106501    2.241747    0.113504
     26          6           0       -7.539383   -1.277196   -0.488046
     27          6           0        8.107762    3.750847    0.326480
     28          6           0       -7.688915   -2.702989   -0.877628
     29          6           0        6.932873    1.473232   -0.092719
     30          6           0       -6.387169   -0.580334   -0.289096
     31          6           0        5.597756    1.951310    0.114639
     32          6           0       -5.030828   -1.080938   -0.512265
     33          6           0        4.464409    1.266308   -0.130288
     34          6           0       -3.979071   -0.337612   -0.141217
     35          6           0        3.022772    1.603052    0.067634
     36          6           0       -2.674749   -0.758880   -0.415361
     37          6           0        2.686459    3.022522    0.635129
     38          6           0       -2.393744   -2.086882   -1.039327
     39          6           0        2.101473    0.689699   -0.147350
     40          6           0       -1.660083    0.077504   -0.200701
     41          6           0        0.668828    0.723091    0.004850
     42          6           0       -0.212765   -0.168479   -0.186412
     43          1           0       13.487586   -0.678888    1.362165
     44          1           0       13.248403   -2.132410    2.054719
     45          1           0      -14.404758   -0.671236    1.236406
     46          1           0      -14.278091   -0.398623   -0.505408
     47          1           0       12.820726   -2.887393   -0.797318
     48          1           0      -12.971774    1.431415    1.740976
     49          1           0       13.956662   -0.000050   -1.300339
     50          1           0       13.332158   -1.373773   -2.316141
     51          1           0      -13.400204    1.485863   -1.387498
     52          1           0      -12.570207    2.762589   -0.282041
     53          1           0       11.639143   -0.860105    3.233780
     54          1           0       10.228263    0.000257    2.959725
     55          1           0       11.932599    0.587318    2.369022
     56          1           0       10.767129   -3.205923    0.525529
     57          1           0       10.660182   -2.734150    2.334735
     58          1           0        9.537023   -2.031576    1.281514
     59          1           0      -11.591897    0.300157    2.654174
     60          1           0      -10.836984   -1.344609    2.361004
     61          1           0      -12.411320   -1.374399    2.856996
     62          1           0      -13.363173   -3.023295    1.050221
     63          1           0      -11.725917   -3.039395    0.798246
     64          1           0      -12.866767   -2.593960   -0.730378
     65          1           0        8.834306   -0.157124    0.556772
     66          1           0      -10.071379   -2.121904   -1.022869
     67          1           0       10.240415    0.902859   -2.365648
     68          1           0       12.086745    1.406563   -2.420965
     69          1           0       11.503977   -0.058500   -3.234885
     70          1           0      -11.312798    1.902728   -2.791689
     71          1           0       -9.596181    1.129557   -1.852668
     72          1           0      -10.457221    2.847238   -1.374010
     73          1           0       15.048703   -2.957360    0.220073
     74          1           0      -15.392976    1.594778    1.434079
     75          1           0       10.269598    2.453793   -0.168427
     76          1           0       -8.695258    0.405696    0.294526
     77          1           0        8.657380    4.131800   -0.609511
     78          1           0        7.146077    4.039570    0.343376
     79          1           0        8.493996    3.920669    1.253687
     80          1           0       -8.190685   -3.432689   -0.220658
     81          1           0       -8.268932   -2.931703   -1.678314
     82          1           0       -6.680612   -3.107635   -1.208765
     83          1           0        6.874400    0.473107   -0.270821
     84          1           0       -6.355604    0.413517   -0.041043
     85          1           0        5.412202    3.023347    0.539352
     86          1           0       -4.892902   -2.049625   -0.744911
     87          1           0        4.398408    0.168486   -0.595963
     88          1           0       -4.103155    0.775084    0.053374
     89          1           0        3.212275    3.119717    1.755826
     90          1           0        1.735058    3.142124    0.743533
     91          1           0        3.402409    3.993673    0.125550
     92          1           0       -2.621846   -2.815276   -0.260416
     93          1           0       -2.708877   -2.327381   -2.085825
     94          1           0       -1.516661   -2.323766   -1.307779
     95          1           0        2.582950   -0.246492   -0.604474
     96          1           0       -2.070576    1.149061    0.291060
     97          1           0        0.346709    1.726535    0.477041
     98          1           0        0.147354   -1.147844   -0.653811
 ---------------------------------------------------------------------

 SCF Done:  E(RCAM-B3LYP) =  -1706.89026306     A.U. after   13 cycles

 Excitation energies and oscillator strengths:

 Excited State   1:      Singlet-A      2.9753 eV  416.72 nm  f=3.5565  <S**2>=0.000
     155 ->158        -0.22719
     156 ->157         0.65895
 This state for optimization and/or second-order correction.
 Total Energy, E(TD-HF/TD-DFT) =  -1706.78092454
 Copying the excited state density for this state as the 1-particle RhoCI density.

 The electronic state is 1-A.
 Alpha  occ. eigenvalues --  -19.21072 -19.20873 -10.31474 -10.30379 -10.28731
 Alpha  occ. eigenvalues --  -10.27874 -10.27736 -10.27678 -10.27511 -10.27322
 Alpha  occ. eigenvalues --  -10.27271 -10.27208 -10.27100 -10.27047 -10.26958
 Alpha  occ. eigenvalues --  -10.26859 -10.26812 -10.26808 -10.26596 -10.26534
 Alpha  occ. eigenvalues --  -10.26371 -10.26356 -10.26332 -10.26216 -10.26183
 Alpha  occ. eigenvalues --  -10.26183 -10.25939 -10.25928 -10.25783 -10.25670
 Alpha  occ. eigenvalues --  -10.25669 -10.25449 -10.25362 -10.25164 -10.25068
 Alpha  occ. eigenvalues --  -10.24993 -10.24988 -10.24814 -10.24700 -10.24572
 Alpha  occ. eigenvalues --  -10.24104 -10.24016  -1.09265  -1.08535  -0.94146
 Alpha  occ. eigenvalues --   -0.93933  -0.92830  -0.91608  -0.90847  -0.90094
 Alpha  occ. eigenvalues --   -0.87623  -0.86969  -0.86916  -0.85719  -0.84729
 Alpha  occ. eigenvalues --   -0.83268  -0.82435  -0.80424  -0.79211  -0.78549
 Alpha  occ. eigenvalues --   -0.77471  -0.77112  -0.76154  -0.76035  -0.75912
 Alpha  occ. eigenvalues --   -0.75361  -0.74905  -0.74443  -0.73011  -0.70558
 Alpha  occ. eigenvalues --   -0.68950  -0.66796  -0.65535  -0.64716  -0.64228
 Alpha  occ. eigenvalues --   -0.63582  -0.63023  -0.61537  -0.60021  -0.59790
 Alpha  occ. eigenvalues --   -0.59403  -0.58529  -0.58422  -0.57637  -0.56054
 Alpha  occ. eigenvalues --   -0.55435  -0.55114  -0.54864  -0.54423  -0.53803
 Alpha  occ. eigenvalues --   -0.52570  -0.52328  -0.51942  -0.51816  -0.51219
 Alpha  occ. eigenvalues --   -0.50732  -0.50537  -0.50165  -0.49931  -0.49402
 Alpha  occ. eigenvalues --   -0.49355  -0.48673  -0.48505  -0.48206  -0.47375
 Alpha  occ. eigenvalues --   -0.47101  -0.47032  -0.46847  -0.45987  -0.45890
 Alpha  occ. eigenvalues --   -0.45710  -0.45380  -0.45221  -0.44915  -0.44640
 Alpha  occ. eigenvalues --   -0.44283  -0.44199  -0.43975  -0.43804  -0.43174
 Alpha  occ. eigenvalues --   -0.42662  -0.42254  -0.42125  -0.42046  -0.41306
 Alpha  occ. eigenvalues --   -0.41165  -0.40715  -0.40658  -0.40579  -0.40460
 Alpha  occ. eigenvalues --   -0.40273  -0.39578  -0.39216  -0.38950  -0.38893
 Alpha  occ. eigenvalues --   -0.38706  -0.38483  -0.38250  -0.37862  -0.37769
 Alpha  occ. eigenvalues --   -0.37442  -0.37339  -0.36892  -0.36041  -0.35745
 Alpha  occ. eigenvalues --   -0.35364  -0.34585  -0.33844  -0.32240  -0.31853
 Alpha  occ. eigenvalues --   -0.31406  -0.29612  -0.27941  -0.26636  -0.23682
 Alpha  occ. eigenvalues --   -0.21449
 Alpha virt. eigenvalues --   -0.03576  -0.00662   0.03317   0.05462   0.07125
 Alpha virt. eigenvalues --    0.09084   0.11108   0.11313   0.11885   0.12428
 Alpha virt. eigenvalues --    0.12596   0.12871   0.12896   0.13307   0.13623

 Mulliken charges:
               1
     1  O   -0.575818
     2  O   -0.559479
     3  C   -0.041352
     4  C    0.012861
     5  C   -0.177152
     6  C   -0.179624
     7  C    0.182188
     8  C    0.164383
     9  C    0.110448
    10  C    0.068897
    11  C   -0.199565
    12  C   -0.198626
    13  C    0.023121
    14  C    0.057055
    15  C   -0.306899
    16  C   -0.282291
    17  C   -0.323142
    18  C   -0.323471
    19  C   -0.133719
    20  C   -0.159102
    21  C   -0.344685
    22  C   -0.325966
    23  C   -0.078773
    24  C   -0.076787
    25  C    0.038310
    26  C    0.124180
    27  C   -0.339807
    28  C   -0.393245
    29  C   -0.091236
    30  C   -0.123306
    31  C   -0.100652
    32  C   -0.069801
    33  C   -0.120822
    34  C   -0.126737
    35  C    0.152173
    36  C    0.147568
    37  C   -0.334377
    38  C   -0.359804
    39  C   -0.149701
    40  C   -0.156400
    41  C   -0.052370
    42  C   -0.092533
    43  H    0.114795
    44  H    0.050702
    45  H    0.070068
    46  H    0.075956
    47  H    0.055673
    48  H    0.078132
    49  H    0.125257
    50  H    0.114950
    51  H    0.122265
    52  H    0.096835
    53  H    0.112230
    54  H    0.107234
    55  H    0.089504
    56  H    0.089937
    57  H    0.104067
    58  H    0.098099
    59  H    0.129391
    60  H    0.081658
    61  H    0.115728
    62  H    0.088538
    63  H    0.086877
    64  H    0.112789
    65  H    0.086702
    66  H    0.075997
    67  H    0.089562
    68  H    0.095241
    69  H    0.121326
    70  H    0.093380
    71  H    0.109588
    72  H    0.077416
    73  H    0.303631
    74  H    0.303637
    75  H    0.050384
    76  H    0.084898
    77  H    0.122920
    78  H    0.115203
    79  H    0.134845
    80  H    0.123445
    81  H    0.135296
    82  H    0.095961
    83  H    0.085286
    84  H    0.075972
    85  H    0.073235
    86  H    0.084660
    87  H    0.061843
    88  H    0.085685
    89  H    0.092877
    90  H    0.115077
    91  H    0.085785
    92  H    0.120114
    93  H    0.109850
    94  H    0.109123
    95  H    0.068046
    96  H    0.052080
    97  H    0.072077
    98  H    0.084228
 Sum of Mulliken charges =  -0.00000

 Dipole moment (field-independent basis, Debye):
    X=              0.4801    Y=             -2.3634    Z=              2.0287  Tot=              3.1515
 Quadrupole moment (field-independent basis, Debye-Ang):
   XX=           -259.7254   YY=           -245.8630   ZZ=           -257.7895
   XY=             11.5029   XZ=             -6.9563   YZ=              5.4304

 Normal termination of Gaussian 16 at Wed Jul 10 21:16:48 2019.
