 Gaussian 16, Revision A.03,
 Gaussian 16:  ES64L-G16RevA.03 25-Dec-2016

 -------------------------------------
 # td=(NStates=1) CAM-B3LYP/6-31G(d,p)
 -------------------------------------

 --
 TD
 --
 Symbolic Z-matrix:
 Charge =  0 Multiplicity = 1

                         Standard orientation:
 ---------------------------------------------------------------------
 Center     Atomic      Atomic             Coordinates (Angstroms)
 Number     Number       Type             X           Y           Z
 ---------------------------------------------------------------------
      1          8           0       14.737368   -2.266009   -0.436160
      2          8           0      -14.735733    2.166521    0.528071
      3          6           0       11.394045   -0.994641    1.221210
      4          6           0      -12.282970   -0.853174    0.811127
      5          6           0       13.020540   -1.201967    1.130538
      6          6           0      -13.630446   -0.197141    0.684689
      7          6           0       13.317127   -1.912141   -0.105871
      8          6           0      -13.554420    1.424211    0.548865
      9          6           0       10.973709   -0.280978   -0.017303
     10          6           0      -11.329879   -0.222134   -0.140846
     11          6           0       12.960773   -1.004462   -1.307373
     12          6           0      -12.663401    1.776969   -0.619366
     13          6           0       11.630207   -0.321341   -1.173724
     14          6           0      -11.455274    0.908562   -0.881712
     15          6           0       11.195717   -0.078566    2.476759
     16          6           0       10.695682   -2.295442    1.404930
     17          6           0      -11.755969   -0.785707    2.239804
     18          6           0      -12.648245   -2.320521    0.502183
     19          6           0        9.599731    0.310655    0.083541
     20          6           0      -10.077271   -1.053872   -0.369103
     21          6           0       11.174614    0.337165   -2.434678
     22          6           0      -10.584892    1.354970   -1.995864
     23          6           0        9.298651    1.625971   -0.270506
     24          6           0       -8.859822   -0.619120   -0.252628
     25          6           0        8.097730    2.286218   -0.143944
     26          6           0       -7.628513   -1.424740   -0.361912
     27          6           0        8.222873    3.707272    0.353052
     28          6           0       -7.645292   -2.884155   -0.648918
     29          6           0        6.911431    1.618075   -0.174499
     30          6           0       -6.524417   -0.793947   -0.169341
     31          6           0        5.532926    2.082341    0.067814
     32          6           0       -5.152141   -1.221102   -0.541214
     33          6           0        4.442856    1.277007    0.001256
     34          6           0       -3.998355   -0.509262   -0.214093
     35          6           0        3.094533    1.746930    0.207818
     36          6           0       -2.653358   -0.858659   -0.394672
     37          6           0        2.658937    3.085910    0.713569
     38          6           0       -2.377812   -2.347387   -0.875461
     39          6           0        1.984844    0.775754    0.015876
     40          6           0       -1.623803    0.073985   -0.192303
     41          6           0        0.713523    0.899338    0.084576
     42          6           0       -0.247497   -0.054361   -0.305126
     43          1           0       13.503547   -0.237147    0.999587
     44          1           0       13.557794   -1.641337    1.896603
     45          1           0      -14.377742   -0.313561    1.569677
     46          1           0      -14.092784   -0.444219   -0.267059
     47          1           0       12.679607   -2.820791   -0.237652
     48          1           0      -12.959627    1.852870    1.434226
     49          1           0       13.921087   -0.310541   -1.397597
     50          1           0       13.065669   -1.692993   -2.179608
     51          1           0      -13.425477    1.895898   -1.514353
     52          1           0      -12.302696    2.833625   -0.150949
     53          1           0       11.458255   -0.749525    3.374816
     54          1           0       10.198960    0.210690    2.618798
     55          1           0       11.780422    0.821570    2.412952
     56          1           0       10.782384   -2.835526    0.491036
     57          1           0       10.803801   -2.936049    2.263948
     58          1           0        9.724619   -2.075569    1.548060
     59          1           0      -11.599377    0.246958    2.595582
     60          1           0      -10.752510   -1.157790    2.096330
     61          1           0      -12.306392   -1.161570    3.062823
     62          1           0      -13.354194   -2.486460    1.260814
     63          1           0      -11.667588   -3.188650    0.483107
     64          1           0      -12.924424   -2.547022   -0.688246
     65          1           0        8.789584   -0.473890    0.583648
     66          1           0      -10.282096   -2.328613   -0.533287
     67          1           0       10.141827    0.453223   -2.423773
     68          1           0       11.663115    1.150255   -2.730414
     69          1           0       11.229082   -0.393571   -3.291558
     70          1           0      -11.250933    1.661394   -2.859694
     71          1           0       -9.516359    0.634233   -2.176389
     72          1           0      -10.041542    2.337244   -1.743324
     73          1           0       15.306332   -2.529214    0.479656
     74          1           0      -15.367675    2.047674    1.423637
     75          1           0       10.112980    2.145171   -0.605906
     76          1           0       -8.565536    0.229136    0.291991
     77          1           0        8.796482    4.292131   -0.453650
     78          1           0        7.290221    4.116417    0.469240
     79          1           0        8.469824    3.668984    1.425494
     80          1           0       -8.352904   -3.377191    0.074537
     81          1           0       -8.056079   -3.220534   -1.479996
     82          1           0       -6.688835   -3.361682   -0.616054
     83          1           0        7.131357    0.607002   -0.401379
     84          1           0       -6.357467    0.417318   -0.068883
     85          1           0        5.457353    3.042337    0.468365
     86          1           0       -4.971942   -2.192377   -0.919582
     87          1           0        4.678199    0.190351   -0.482204
     88          1           0       -4.259697    0.452256    0.220756
     89          1           0        3.405596    3.468154    1.341450
     90          1           0        1.534967    3.164694    1.198603
     91          1           0        2.952564    3.827584   -0.180750
     92          1           0       -2.833961   -3.247784   -0.092287
     93          1           0       -2.885898   -2.530632   -1.730636
     94          1           0       -1.303524   -2.675499   -1.125828
     95          1           0        2.380549   -0.287618   -0.386904
     96          1           0       -1.951201    1.076763    0.415602
     97          1           0        0.227064    1.801588    0.510539
     98          1           0        0.032106   -0.971333   -0.752112
 ---------------------------------------------------------------------

 SCF Done:  E(RCAM-B3LYP) =  -1706.89136488     A.U. after   15 cycles

 Excitation energies and oscillator strengths:

 Excited State   1:      Singlet-A      2.1218 eV  584.34 nm  f=3.4509  <S**2>=0.000
     155 ->158        -0.11952
     156 ->157         0.70202
     156 <-157        -0.11770
 This state for optimization and/or second-order correction.
 Total Energy, E(TD-HF/TD-DFT) =  -1706.81339055
 Copying the excited state density for this state as the 1-particle RhoCI density.

 The electronic state is 1-A.
 Alpha  occ. eigenvalues --  -19.22482 -19.21613 -10.30580 -10.29574 -10.29201
 Alpha  occ. eigenvalues --  -10.28357 -10.28177 -10.28101 -10.27980 -10.27935
 Alpha  occ. eigenvalues --  -10.27656 -10.27532 -10.27439 -10.27321 -10.27184
 Alpha  occ. eigenvalues --  -10.27065 -10.27055 -10.26651 -10.26647 -10.26647
 Alpha  occ. eigenvalues --  -10.26549 -10.26409 -10.26331 -10.26274 -10.26226
 Alpha  occ. eigenvalues --  -10.26098 -10.26007 -10.25995 -10.25922 -10.25878
 Alpha  occ. eigenvalues --  -10.25496 -10.25486 -10.25442 -10.25403 -10.25286
 Alpha  occ. eigenvalues --  -10.24853 -10.24451 -10.24331 -10.24262 -10.23949
 Alpha  occ. eigenvalues --  -10.23398 -10.23187  -1.08110  -1.04503  -0.94259
 Alpha  occ. eigenvalues --   -0.94016  -0.92160  -0.91869  -0.91356  -0.89884
 Alpha  occ. eigenvalues --   -0.87766  -0.87351  -0.87178  -0.85075  -0.84613
 Alpha  occ. eigenvalues --   -0.83331  -0.81641  -0.80610  -0.79830  -0.78719
 Alpha  occ. eigenvalues --   -0.77724  -0.77257  -0.76972  -0.76481  -0.76285
 Alpha  occ. eigenvalues --   -0.75406  -0.75349  -0.73620  -0.73489  -0.71249
 Alpha  occ. eigenvalues --   -0.68728  -0.67029  -0.65515  -0.64991  -0.63978
 Alpha  occ. eigenvalues --   -0.63794  -0.62357  -0.61151  -0.60382  -0.60108
 Alpha  occ. eigenvalues --   -0.59355  -0.57948  -0.57438  -0.57169  -0.55879
 Alpha  occ. eigenvalues --   -0.55365  -0.55076  -0.54867  -0.53973  -0.53071
 Alpha  occ. eigenvalues --   -0.52621  -0.52556  -0.52009  -0.51934  -0.50862
 Alpha  occ. eigenvalues --   -0.50588  -0.50303  -0.49917  -0.49846  -0.49599
 Alpha  occ. eigenvalues --   -0.49397  -0.48914  -0.48632  -0.48091  -0.47878
 Alpha  occ. eigenvalues --   -0.47459  -0.47167  -0.46901  -0.46821  -0.46636
 Alpha  occ. eigenvalues --   -0.46058  -0.45832  -0.45644  -0.45062  -0.44876
 Alpha  occ. eigenvalues --   -0.44455  -0.44049  -0.43977  -0.43907  -0.43754
 Alpha  occ. eigenvalues --   -0.43332  -0.42701  -0.42242  -0.41959  -0.41398
 Alpha  occ. eigenvalues --   -0.41254  -0.41049  -0.40527  -0.40460  -0.40294
 Alpha  occ. eigenvalues --   -0.40204  -0.40097  -0.39933  -0.39569  -0.39544
 Alpha  occ. eigenvalues --   -0.38914  -0.38769  -0.38741  -0.38285  -0.38114
 Alpha  occ. eigenvalues --   -0.37720  -0.37669  -0.36569  -0.36227  -0.34776
 Alpha  occ. eigenvalues --   -0.34724  -0.34256  -0.34015  -0.32178  -0.31797
 Alpha  occ. eigenvalues --   -0.30366  -0.30128  -0.28761  -0.26591  -0.24713
 Alpha  occ. eigenvalues --   -0.19051
 Alpha virt. eigenvalues --   -0.06532   0.00091   0.02625   0.05738   0.07637
 Alpha virt. eigenvalues --    0.08722   0.09096   0.09973   0.10503   0.10966
 Alpha virt. eigenvalues --    0.11428   0.12096   0.12667   0.13127   0.13281

 Mulliken charges:
               1
     1  O   -0.587645
     2  O   -0.570787
     3  C   -0.038491
     4  C   -0.004568
     5  C   -0.177887
     6  C   -0.199369
     7  C    0.159093
     8  C    0.182450
     9  C    0.054053
    10  C    0.033823
    11  C   -0.225857
    12  C   -0.226730
    13  C    0.069168
    14  C    0.106025
    15  C   -0.300587
    16  C   -0.299633
    17  C   -0.301952
    18  C   -0.256998
    19  C   -0.132012
    20  C   -0.141900
    21  C   -0.364042
    22  C   -0.358102
    23  C   -0.092943
    24  C   -0.082010
    25  C    0.067703
    26  C    0.139453
    27  C   -0.360137
    28  C   -0.375047
    29  C   -0.112420
    30  C   -0.152847
    31  C   -0.087076
    32  C   -0.098035
    33  C   -0.098555
    34  C   -0.105748
    35  C    0.096518
    36  C    0.108463
    37  C   -0.371050
    38  C   -0.368362
    39  C   -0.121964
    40  C   -0.132524
    41  C   -0.054559
    42  C   -0.072681
    43  H    0.098011
    44  H    0.079327
    45  H    0.063039
    46  H    0.105814
    47  H    0.083050
    48  H    0.053623
    49  H    0.105570
    50  H    0.110315
    51  H    0.102740
    52  H    0.097344
    53  H    0.086205
    54  H    0.109294
    55  H    0.108526
    56  H    0.110994
    57  H    0.106900
    58  H    0.106885
    59  H    0.099862
    60  H    0.114323
    61  H    0.105945
    62  H    0.116987
    63  H    0.048455
    64  H    0.090085
    65  H    0.086699
    66  H    0.061022
    67  H    0.123696
    68  H    0.129100
    69  H    0.095986
    70  H    0.114013
    71  H    0.102466
    72  H    0.109345
    73  H    0.293158
    74  H    0.316538
    75  H    0.088491
    76  H    0.099651
    77  H    0.112317
    78  H    0.112644
    79  H    0.131091
    80  H    0.107184
    81  H    0.133645
    82  H    0.114616
    83  H    0.068910
    84  H    0.070011
    85  H    0.076185
    86  H    0.071409
    87  H    0.090303
    88  H    0.073195
    89  H    0.129091
    90  H    0.119193
    91  H    0.110336
    92  H    0.087673
    93  H    0.140378
    94  H    0.106035
    95  H    0.065012
    96  H    0.064626
    97  H    0.073228
    98  H    0.075231
 Sum of Mulliken charges =  -0.00000

 Dipole moment (field-independent basis, Debye):
    X=              0.1274    Y=             -0.0893    Z=              2.9044  Tot=              2.9086
 Quadrupole moment (field-independent basis, Debye-Ang):
   XX=           -259.3643   YY=           -250.0047   ZZ=           -258.9558
   XY=             16.6940   XZ=              1.3280   YZ=              3.6249

 Normal termination of Gaussian 16 at Tue Jul  9 00:32:14 2019.
