 Gaussian 16, Revision A.03,
 Gaussian 16:  ES64L-G16RevA.03 25-Dec-2016

 -------------------------------------
 # td=(NStates=1) CAM-B3LYP/6-31G(d,p)
 -------------------------------------

 --
 TD
 --
 Symbolic Z-matrix:
 Charge =  0 Multiplicity = 1

                         Standard orientation:
 ---------------------------------------------------------------------
 Center     Atomic      Atomic             Coordinates (Angstroms)
 Number     Number       Type             X           Y           Z
 ---------------------------------------------------------------------
      1          8           0       14.772414   -2.095459   -0.452746
      2          8           0      -14.944309    1.882856    0.454985
      3          6           0       11.385893   -1.202970    1.131169
      4          6           0      -12.292091   -0.883364    0.855012
      5          6           0       12.911282   -1.442147    0.995349
      6          6           0      -13.708273   -0.244450    0.546348
      7          6           0       13.372185   -1.831008   -0.392498
      8          6           0      -13.650158    1.232331    0.649652
      9          6           0       10.971240   -0.388092   -0.048551
     10          6           0      -11.248742   -0.328315   -0.188000
     11          6           0       13.052354   -0.726261   -1.344156
     12          6           0      -12.774872    1.703057   -0.518569
     13          6           0       11.594175   -0.215426   -1.210082
     14          6           0      -11.509800    0.843345   -0.800367
     15          6           0       11.118529   -0.554469    2.540117
     16          6           0       10.646736   -2.616219    1.183155
     17          6           0      -11.750723   -0.726181    2.316068
     18          6           0      -12.406688   -2.440093    0.555551
     19          6           0        9.492867    0.167320    0.010628
     20          6           0      -10.065795   -1.037888   -0.402347
     21          6           0       11.207637    0.707264   -2.323279
     22          6           0      -10.538219    1.544078   -1.840248
     23          6           0        9.273644    1.551090   -0.011788
     24          6           0       -8.861375   -0.592572   -0.248211
     25          6           0        8.044293    2.236166    0.181527
     26          6           0       -7.573382   -1.242785   -0.454423
     27          6           0        8.122073    3.616967    0.728461
     28          6           0       -7.659544   -2.733675   -0.807744
     29          6           0        6.834266    1.609222   -0.033782
     30          6           0       -6.360716   -0.607855   -0.335592
     31          6           0        5.556020    2.143058    0.222358
     32          6           0       -5.082966   -1.208278   -0.443091
     33          6           0        4.499670    1.365796   -0.142162
     34          6           0       -4.007666   -0.405178   -0.172621
     35          6           0        3.174110    1.695435    0.079171
     36          6           0       -2.624545   -0.764044   -0.365059
     37          6           0        2.835516    3.070633    0.700923
     38          6           0       -2.347395   -2.156310   -0.928176
     39          6           0        2.088116    0.868136   -0.123160
     40          6           0       -1.643919    0.129895   -0.174109
     41          6           0        0.665787    0.934520    0.137204
     42          6           0       -0.194520   -0.022894   -0.269627
     43          1           0       13.411616   -0.553829    1.135058
     44          1           0       13.022080   -2.275292    1.801938
     45          1           0      -14.462524   -0.547626    1.300627
     46          1           0      -13.993829   -0.425473   -0.482872
     47          1           0       12.821833   -2.636403   -0.970822
     48          1           0      -13.088438    1.451842    1.635109
     49          1           0       13.738375    0.144239   -1.195443
     50          1           0       13.122511   -1.098388   -2.303433
     51          1           0      -13.388532    1.464570   -1.241445
     52          1           0      -12.571020    2.806432   -0.518650
     53          1           0       11.354387   -1.333628    3.378764
     54          1           0       10.113236   -0.249847    2.524721
     55          1           0       11.766404    0.196866    2.738220
     56          1           0       10.849168   -3.138835    0.306611
     57          1           0       11.136820   -3.059531    2.133864
     58          1           0        9.497941   -2.484591    1.204644
     59          1           0      -11.587548    0.193910    2.692007
     60          1           0      -10.727340   -1.325879    2.266298
     61          1           0      -12.550941   -1.105482    2.831936
     62          1           0      -13.060228   -3.078577    1.181682
     63          1           0      -11.378912   -3.024143    0.547485
     64          1           0      -12.740111   -2.737087   -0.469844
     65          1           0        8.634951   -0.678771    0.127117
     66          1           0      -10.242992   -2.017871   -0.781481
     67          1           0       10.063884    1.094126   -2.135787
     68          1           0       11.743407    1.587295   -2.469836
     69          1           0       11.357906    0.231604   -3.291858
     70          1           0      -11.052282    1.824477   -2.858539
     71          1           0       -9.905976    0.827151   -2.226957
     72          1           0      -10.041977    2.300457   -1.389004
     73          1           0       15.016773   -2.836849    0.101570
     74          1           0      -15.408367    1.945518    1.341710
     75          1           0       10.341834    2.122634    0.118080
     76          1           0       -8.695350    0.425779   -0.020972
     77          1           0        9.137251    4.280575    0.347638
     78          1           0        7.300486    4.294501    0.499613
     79          1           0        8.325259    3.808696    1.845690
     80          1           0       -8.427699   -3.037891   -0.178183
     81          1           0       -8.014132   -2.833367   -1.754410
     82          1           0       -6.642360   -3.303186   -0.815217
     83          1           0        6.873353    0.668371   -0.514363
     84          1           0       -6.643047    0.347468   -0.127851
     85          1           0        5.576534    3.168109    0.606271
     86          1           0       -4.855584   -2.152076   -0.733720
     87          1           0        4.678897    0.374582   -0.634432
     88          1           0       -4.135075    0.512550    0.124398
     89          1           0        3.383903    3.393218    1.641061
     90          1           0        1.802045    3.364560    0.964275
     91          1           0        3.278495    3.901107    0.012093
     92          1           0       -2.847796   -2.812937   -0.290787
     93          1           0       -2.867804   -2.058256   -1.841527
     94          1           0       -1.337154   -2.364613   -1.085058
     95          1           0        2.368585   -0.045412   -0.636169
     96          1           0       -2.029465    1.105724    0.209135
     97          1           0        0.075628    1.724050    0.445083
     98          1           0        0.008043   -0.930800   -0.642255
 ---------------------------------------------------------------------

 SCF Done:  E(RCAM-B3LYP) =  -1707.03814767     A.U. after   14 cycles

 Excitation energies and oscillator strengths:

 Excited State   1:      Singlet-A      2.5932 eV  478.11 nm  f=3.6663  <S**2>=0.000
     155 ->158        -0.17556
     156 ->157         0.68157
 This state for optimization and/or second-order correction.
 Total Energy, E(TD-HF/TD-DFT) =  -1706.94284858
 Copying the excited state density for this state as the 1-particle RhoCI density.

 The electronic state is 1-A.
 Alpha  occ. eigenvalues --  -19.21850 -19.20662 -10.30445 -10.30049 -10.28817
 Alpha  occ. eigenvalues --  -10.28071 -10.27463 -10.27419 -10.27372 -10.27309
 Alpha  occ. eigenvalues --  -10.27239 -10.26738 -10.26712 -10.26651 -10.26524
 Alpha  occ. eigenvalues --  -10.26505 -10.26337 -10.26330 -10.26171 -10.26139
 Alpha  occ. eigenvalues --  -10.26035 -10.25987 -10.25882 -10.25809 -10.25770
 Alpha  occ. eigenvalues --  -10.25676 -10.25253 -10.25177 -10.25148 -10.25113
 Alpha  occ. eigenvalues --  -10.24991 -10.24936 -10.24911 -10.24686 -10.24625
 Alpha  occ. eigenvalues --  -10.24394 -10.24326 -10.24279 -10.24172 -10.24140
 Alpha  occ. eigenvalues --  -10.24061 -10.23917  -1.08899  -1.07809  -0.93656
 Alpha  occ. eigenvalues --   -0.93403  -0.92616  -0.92133  -0.90832  -0.90002
 Alpha  occ. eigenvalues --   -0.88139  -0.86769  -0.86548  -0.85518  -0.84746
 Alpha  occ. eigenvalues --   -0.83644  -0.82548  -0.80330  -0.79348  -0.78398
 Alpha  occ. eigenvalues --   -0.77421  -0.76765  -0.76266  -0.76047  -0.75651
 Alpha  occ. eigenvalues --   -0.75512  -0.75410  -0.75195  -0.74455  -0.71164
 Alpha  occ. eigenvalues --   -0.69173  -0.67470  -0.65844  -0.64713  -0.64458
 Alpha  occ. eigenvalues --   -0.64266  -0.63458  -0.63289  -0.61525  -0.60887
 Alpha  occ. eigenvalues --   -0.59224  -0.59069  -0.58384  -0.57528  -0.56395
 Alpha  occ. eigenvalues --   -0.56183  -0.55415  -0.54858  -0.54653  -0.54146
 Alpha  occ. eigenvalues --   -0.53436  -0.52450  -0.52202  -0.51947  -0.51235
 Alpha  occ. eigenvalues --   -0.50978  -0.50768  -0.50347  -0.49801  -0.49459
 Alpha  occ. eigenvalues --   -0.49148  -0.49081  -0.48565  -0.48030  -0.47686
 Alpha  occ. eigenvalues --   -0.47518  -0.47319  -0.47102  -0.46716  -0.46536
 Alpha  occ. eigenvalues --   -0.46134  -0.45981  -0.45672  -0.45266  -0.45029
 Alpha  occ. eigenvalues --   -0.44696  -0.44686  -0.44271  -0.43688  -0.43624
 Alpha  occ. eigenvalues --   -0.43033  -0.42709  -0.42592  -0.42446  -0.42243
 Alpha  occ. eigenvalues --   -0.41788  -0.41591  -0.41254  -0.41231  -0.40760
 Alpha  occ. eigenvalues --   -0.40593  -0.40279  -0.40149  -0.39925  -0.39279
 Alpha  occ. eigenvalues --   -0.39128  -0.39051  -0.38812  -0.38695  -0.38504
 Alpha  occ. eigenvalues --   -0.38367  -0.37860  -0.37012  -0.36029  -0.35735
 Alpha  occ. eigenvalues --   -0.35217  -0.34793  -0.33796  -0.32500  -0.32103
 Alpha  occ. eigenvalues --   -0.31806  -0.29397  -0.28598  -0.27254  -0.23785
 Alpha  occ. eigenvalues --   -0.20512
 Alpha virt. eigenvalues --   -0.04768  -0.00816   0.03373   0.06650   0.07579
 Alpha virt. eigenvalues --    0.09281   0.10967   0.11737   0.11871   0.12518
 Alpha virt. eigenvalues --    0.13162   0.13290   0.13702   0.14004   0.14337

 Mulliken charges:
               1
     1  O   -0.566603
     2  O   -0.566875
     3  C   -0.044577
     4  C   -0.022563
     5  C   -0.172451
     6  C   -0.164437
     7  C    0.169108
     8  C    0.135373
     9  C    0.038142
    10  C    0.060905
    11  C   -0.216405
    12  C   -0.204143
    13  C    0.060611
    14  C    0.010282
    15  C   -0.288063
    16  C   -0.284571
    17  C   -0.287852
    18  C   -0.327030
    19  C   -0.136028
    20  C   -0.148059
    21  C   -0.360757
    22  C   -0.356721
    23  C   -0.129699
    24  C   -0.070232
    25  C    0.118215
    26  C    0.068510
    27  C   -0.383567
    28  C   -0.367699
    29  C   -0.103610
    30  C   -0.097514
    31  C   -0.059333
    32  C   -0.079541
    33  C   -0.131056
    34  C   -0.071642
    35  C    0.148801
    36  C    0.090208
    37  C   -0.383307
    38  C   -0.369962
    39  C   -0.157884
    40  C   -0.165374
    41  C   -0.063147
    42  C   -0.039721
    43  H    0.111479
    44  H    0.063530
    45  H    0.077087
    46  H    0.107762
    47  H    0.067914
    48  H    0.067087
    49  H    0.108805
    50  H    0.110110
    51  H    0.133237
    52  H    0.101078
    53  H    0.079961
    54  H    0.118586
    55  H    0.110361
    56  H    0.113456
    57  H    0.092359
    58  H    0.093519
    59  H    0.112878
    60  H    0.102420
    61  H    0.109972
    62  H    0.101024
    63  H    0.083858
    64  H    0.103770
    65  H    0.087751
    66  H    0.094212
    67  H    0.106170
    68  H    0.125938
    69  H    0.101275
    70  H    0.090841
    71  H    0.124692
    72  H    0.127748
    73  H    0.304501
    74  H    0.310420
    75  H    0.092031
    76  H    0.072183
    77  H    0.078836
    78  H    0.119403
    79  H    0.121001
    80  H    0.119104
    81  H    0.130700
    82  H    0.093308
    83  H    0.077146
    84  H    0.064812
    85  H    0.094747
    86  H    0.083736
    87  H    0.089685
    88  H    0.064983
    89  H    0.106747
    90  H    0.114056
    91  H    0.099557
    92  H    0.127696
    93  H    0.133851
    94  H    0.111575
    95  H    0.072062
    96  H    0.064566
    97  H    0.081373
    98  H    0.063309
 Sum of Mulliken charges =  -0.00000

 Dipole moment (field-independent basis, Debye):
    X=             -0.9479    Y=             -0.9971    Z=              1.8176  Tot=              2.2795
 Quadrupole moment (field-independent basis, Debye-Ang):
   XX=           -274.5182   YY=           -245.5018   ZZ=           -259.0696
   XY=              2.4846   XZ=             -5.1741   YZ=              6.9387

 Normal termination of Gaussian 16 at Wed Jul 10 14:03:16 2019.
