 Gaussian 16, Revision A.03,
 Gaussian 16:  ES64L-G16RevA.03 25-Dec-2016

 -------------------------------------
 # td=(NStates=1) CAM-B3LYP/6-31G(d,p)
 -------------------------------------

 --
 TD
 --
 Symbolic Z-matrix:
 Charge =  0 Multiplicity = 1

                         Standard orientation:
 ---------------------------------------------------------------------
 Center     Atomic      Atomic             Coordinates (Angstroms)
 Number     Number       Type             X           Y           Z
 ---------------------------------------------------------------------
      1          8           0       14.605561   -2.481067   -0.420203
      2          8           0      -14.761457    2.120928    0.684719
      3          6           0       11.437591   -1.065306    1.249965
      4          6           0      -12.234184   -0.934463    0.779345
      5          6           0       12.926088   -1.499761    1.077914
      6          6           0      -13.667118   -0.230337    0.769036
      7          6           0       13.230254   -1.998557   -0.269211
      8          6           0      -13.485983    1.310731    0.857001
      9          6           0       10.963423   -0.302553    0.047654
     10          6           0      -11.269465   -0.292663   -0.263257
     11          6           0       12.953855   -0.939949   -1.306590
     12          6           0      -12.814502    1.773814   -0.390364
     13          6           0       11.660064   -0.275178   -1.105011
     14          6           0      -11.485947    0.979727   -0.737882
     15          6           0       11.308587   -0.195198    2.500164
     16          6           0       10.547131   -2.268869    1.467606
     17          6           0      -11.575124   -0.883134    2.162706
     18          6           0      -12.558665   -2.418884    0.427375
     19          6           0        9.567259    0.425496    0.198865
     20          6           0      -10.101041   -1.116506   -0.486521
     21          6           0       11.197218    0.386801   -2.375861
     22          6           0      -10.573580    1.753099   -1.693601
     23          6           0        9.317204    1.712855   -0.159075
     24          6           0       -8.858771   -0.644911   -0.437652
     25          6           0        8.058111    2.410332    0.087931
     26          6           0       -7.604940   -1.362600   -0.539613
     27          6           0        8.239517    3.824092    0.460829
     28          6           0       -7.741167   -2.861724   -1.056257
     29          6           0        6.881544    1.698983   -0.097292
     30          6           0       -6.382634   -0.819214   -0.384433
     31          6           0        5.475036    2.181951   -0.060486
     32          6           0       -5.135293   -1.285882   -0.368596
     33          6           0        4.441732    1.393466   -0.184871
     34          6           0       -3.891370   -0.658762   -0.146829
     35          6           0        3.059813    1.741493    0.064290
     36          6           0       -2.514381   -0.956070   -0.267845
     37          6           0        2.709820    3.176987    0.278788
     38          6           0       -2.321060   -2.321521   -0.754228
     39          6           0        2.074609    0.800576   -0.239147
     40          6           0       -1.597029   -0.039013   -0.047464
     41          6           0        0.617971    0.932561    0.105669
     42          6           0       -0.137002   -0.055585   -0.328810
     43          1           0       13.337486   -0.521319    1.431321
     44          1           0       12.988369   -2.288169    1.768139
     45          1           0      -14.236515   -0.587266    1.619667
     46          1           0      -14.238499   -0.266383   -0.132506
     47          1           0       12.574761   -2.915415   -0.540390
     48          1           0      -12.674906    1.736494    1.743287
     49          1           0       13.618802   -0.107457   -1.081871
     50          1           0       13.082678   -1.437747   -2.230694
     51          1           0      -13.262496    1.827119   -1.322292
     52          1           0      -12.403412    2.898862   -0.219667
     53          1           0       11.394579   -0.887295    3.482594
     54          1           0       10.145001    0.178225    2.637525
     55          1           0       11.894819    0.679779    2.719399
     56          1           0       10.697486   -3.058889    0.519871
     57          1           0       10.884281   -2.893691    2.344554
     58          1           0        9.455055   -1.878497    1.422773
     59          1           0      -11.489740    0.239446    2.545620
     60          1           0      -10.597075   -1.356146    2.148872
     61          1           0      -12.410149   -1.435520    2.596598
     62          1           0      -13.319047   -2.665437    1.176485
     63          1           0      -11.687561   -2.972045    0.446108
     64          1           0      -13.100732   -2.603812   -0.625442
     65          1           0        8.943100   -0.116559    0.798568
     66          1           0      -10.387250   -2.319191   -0.633040
     67          1           0       10.128889    0.881103   -2.323623
     68          1           0       11.642418    1.209062   -2.874096
     69          1           0       11.185199   -0.426653   -3.235008
     70          1           0      -10.983739    2.144103   -2.648779
     71          1           0       -9.888535    1.160901   -2.054455
     72          1           0       -9.832461    2.342514   -1.086041
     73          1           0       14.939063   -2.801293    0.544521
     74          1           0      -15.301840    2.159810    1.463381
     75          1           0       10.326864    2.280500   -0.582173
     76          1           0       -8.822384    0.414303   -0.311600
     77          1           0        8.497402    4.387010   -0.439978
     78          1           0        7.309149    4.368140    0.655175
     79          1           0        9.082323    3.921118    1.210865
     80          1           0       -8.132798   -3.468767   -0.334031
     81          1           0       -8.429650   -2.951388   -1.906223
     82          1           0       -6.696671   -3.092042   -1.355862
     83          1           0        6.661455    0.697745   -0.319631
     84          1           0       -6.616845    0.365088   -0.012987
     85          1           0        5.439835    3.103794    0.594708
     86          1           0       -4.828453   -2.306665   -0.721177
     87          1           0        4.606657    0.237573   -0.425897
     88          1           0       -4.088409    0.495859    0.209458
     89          1           0        3.124051    3.396762    1.294119
     90          1           0        1.763163    3.359535    0.372856
     91          1           0        3.236666    3.936048   -0.321108
     92          1           0       -3.012685   -2.856727   -0.148436
     93          1           0       -2.693621   -2.399785   -1.895282
     94          1           0       -1.331357   -2.629658   -0.637443
     95          1           0        2.311250   -0.240776   -0.521355
     96          1           0       -2.190813    0.839776    0.273184
     97          1           0        0.086888    1.738116    0.491121
     98          1           0        0.241679   -1.091013   -0.691271
 ---------------------------------------------------------------------

 SCF Done:  E(RCAM-B3LYP) =  -1706.93947002     A.U. after   14 cycles

 Excitation energies and oscillator strengths:

 Excited State   1:      Singlet-A      2.8338 eV  437.52 nm  f=3.6853  <S**2>=0.000
     155 ->158        -0.19246
     156 ->157         0.67335
 This state for optimization and/or second-order correction.
 Total Energy, E(TD-HF/TD-DFT) =  -1706.83532883
 Copying the excited state density for this state as the 1-particle RhoCI density.

 The electronic state is 1-A.
 Alpha  occ. eigenvalues --  -19.21199 -19.20840 -10.32434 -10.30369 -10.28045
 Alpha  occ. eigenvalues --  -10.27932 -10.27817 -10.27630 -10.27600 -10.27542
 Alpha  occ. eigenvalues --  -10.27510 -10.27416 -10.27311 -10.27035 -10.27009
 Alpha  occ. eigenvalues --  -10.26985 -10.26912 -10.26839 -10.26786 -10.26729
 Alpha  occ. eigenvalues --  -10.26674 -10.26428 -10.26360 -10.26309 -10.26133
 Alpha  occ. eigenvalues --  -10.26021 -10.26000 -10.25968 -10.25939 -10.25672
 Alpha  occ. eigenvalues --  -10.25563 -10.25558 -10.25546 -10.25417 -10.25351
 Alpha  occ. eigenvalues --  -10.25336 -10.25124 -10.25095 -10.24698 -10.24675
 Alpha  occ. eigenvalues --  -10.24248 -10.24088  -1.06703  -1.06132  -0.94281
 Alpha  occ. eigenvalues --   -0.93211  -0.92967  -0.91904  -0.90720  -0.90201
 Alpha  occ. eigenvalues --   -0.88090  -0.87707  -0.86753  -0.85958  -0.84831
 Alpha  occ. eigenvalues --   -0.83562  -0.82847  -0.80197  -0.80148  -0.78800
 Alpha  occ. eigenvalues --   -0.77080  -0.76546  -0.76179  -0.76028  -0.75898
 Alpha  occ. eigenvalues --   -0.75528  -0.75124  -0.74911  -0.74391  -0.70775
 Alpha  occ. eigenvalues --   -0.69036  -0.67227  -0.65914  -0.64733  -0.63990
 Alpha  occ. eigenvalues --   -0.63273  -0.63075  -0.61960  -0.60420  -0.60012
 Alpha  occ. eigenvalues --   -0.58456  -0.57965  -0.57304  -0.56878  -0.56293
 Alpha  occ. eigenvalues --   -0.55990  -0.55347  -0.55285  -0.53965  -0.53825
 Alpha  occ. eigenvalues --   -0.53076  -0.52839  -0.52487  -0.51538  -0.51090
 Alpha  occ. eigenvalues --   -0.50528  -0.50188  -0.49950  -0.49474  -0.49278
 Alpha  occ. eigenvalues --   -0.49093  -0.48836  -0.48531  -0.48289  -0.48234
 Alpha  occ. eigenvalues --   -0.48183  -0.47710  -0.47320  -0.46796  -0.46596
 Alpha  occ. eigenvalues --   -0.46503  -0.46193  -0.45897  -0.45289  -0.45155
 Alpha  occ. eigenvalues --   -0.44630  -0.44117  -0.43868  -0.43473  -0.43383
 Alpha  occ. eigenvalues --   -0.42682  -0.42516  -0.42379  -0.42310  -0.41992
 Alpha  occ. eigenvalues --   -0.41739  -0.41627  -0.41088  -0.40815  -0.40253
 Alpha  occ. eigenvalues --   -0.40215  -0.40145  -0.39632  -0.39376  -0.39093
 Alpha  occ. eigenvalues --   -0.38729  -0.38704  -0.38482  -0.38242  -0.37768
 Alpha  occ. eigenvalues --   -0.37162  -0.36902  -0.36282  -0.35829  -0.35447
 Alpha  occ. eigenvalues --   -0.34943  -0.34771  -0.34010  -0.32663  -0.32306
 Alpha  occ. eigenvalues --   -0.31698  -0.29940  -0.28107  -0.26708  -0.23899
 Alpha  occ. eigenvalues --   -0.21370
 Alpha virt. eigenvalues --   -0.04414  -0.00743   0.03217   0.05882   0.07985
 Alpha virt. eigenvalues --    0.09676   0.10629   0.11027   0.11309   0.11559
 Alpha virt. eigenvalues --    0.12037   0.12121   0.12346   0.13015   0.13492

 Mulliken charges:
               1
     1  O   -0.587674
     2  O   -0.568397
     3  C   -0.040405
     4  C   -0.060304
     5  C   -0.203018
     6  C   -0.175589
     7  C    0.194147
     8  C    0.134876
     9  C    0.066628
    10  C    0.081882
    11  C   -0.207809
    12  C   -0.177351
    13  C    0.046612
    14  C   -0.007028
    15  C   -0.297425
    16  C   -0.282772
    17  C   -0.267773
    18  C   -0.292067
    19  C   -0.081547
    20  C   -0.132126
    21  C   -0.374322
    22  C   -0.371010
    23  C   -0.120761
    24  C   -0.089202
    25  C    0.067901
    26  C    0.098080
    27  C   -0.372799
    28  C   -0.364680
    29  C   -0.103185
    30  C   -0.110729
    31  C   -0.107558
    32  C   -0.094286
    33  C   -0.100657
    34  C   -0.138374
    35  C    0.097127
    36  C    0.155106
    37  C   -0.356311
    38  C   -0.369414
    39  C   -0.140425
    40  C   -0.147930
    41  C   -0.061667
    42  C   -0.080106
    43  H    0.106780
    44  H    0.088486
    45  H    0.086012
    46  H    0.123180
    47  H    0.073899
    48  H    0.064057
    49  H    0.124794
    50  H    0.117788
    51  H    0.131068
    52  H    0.087680
    53  H    0.076018
    54  H    0.082090
    55  H    0.115714
    56  H    0.077658
    57  H    0.102768
    58  H    0.099316
    59  H    0.092611
    60  H    0.120756
    61  H    0.096999
    62  H    0.098719
    63  H    0.107506
    64  H    0.092712
    65  H    0.084316
    66  H    0.076315
    67  H    0.106438
    68  H    0.122741
    69  H    0.089579
    70  H    0.111659
    71  H    0.129977
    72  H    0.112545
    73  H    0.304372
    74  H    0.297671
    75  H    0.088213
    76  H    0.075488
    77  H    0.130376
    78  H    0.113417
    79  H    0.125564
    80  H    0.126358
    81  H    0.117315
    82  H    0.105355
    83  H    0.080833
    84  H    0.054829
    85  H    0.080008
    86  H    0.076070
    87  H    0.076783
    88  H    0.043954
    89  H    0.108477
    90  H    0.113298
    91  H    0.129516
    92  H    0.127313
    93  H    0.110398
    94  H    0.106120
    95  H    0.087185
    96  H    0.075390
    97  H    0.099827
    98  H    0.088031
 Sum of Mulliken charges =  -0.00000

 Dipole moment (field-independent basis, Debye):
    X=              0.0154    Y=             -0.0192    Z=              2.6667  Tot=              2.6668
 Quadrupole moment (field-independent basis, Debye-Ang):
   XX=           -276.5942   YY=           -249.5354   ZZ=           -260.2666
   XY=             24.3689   XZ=              9.3460   YZ=              0.8385

 Normal termination of Gaussian 16 at Fri Jun 28 18:23:17 2019.
