 Gaussian 16, Revision A.03,
 Gaussian 16:  ES64L-G16RevA.03 25-Dec-2016

 -------------------------------------
 # td=(NStates=1) CAM-B3LYP/6-31G(d,p)
 -------------------------------------

 --
 TD
 --
 Symbolic Z-matrix:
 Charge =  0 Multiplicity = 1

                         Standard orientation:
 ---------------------------------------------------------------------
 Center     Atomic      Atomic             Coordinates (Angstroms)
 Number     Number       Type             X           Y           Z
 ---------------------------------------------------------------------
      1          8           0       14.636682   -2.109045   -0.370534
      2          8           0      -14.713708    2.096935    0.604626
      3          6           0       11.385937   -1.082608    1.128160
      4          6           0      -12.266279   -0.848399    0.766615
      5          6           0       12.835776   -1.587126    1.126138
      6          6           0      -13.577051   -0.193660    0.759189
      7          6           0       13.276608   -1.974884   -0.295309
      8          6           0      -13.548829    1.412048    0.767741
      9          6           0       10.876028   -0.292897   -0.113678
     10          6           0      -11.337133   -0.282814   -0.216913
     11          6           0       12.868951   -0.987383   -1.336965
     12          6           0      -12.674307    1.785099   -0.519890
     13          6           0       11.689552   -0.225633   -1.199659
     14          6           0      -11.412269    0.946012   -0.790709
     15          6           0       11.271635   -0.145611    2.443243
     16          6           0       10.582133   -2.340849    1.445397
     17          6           0      -11.658741   -0.823157    2.258121
     18          6           0      -12.558587   -2.292727    0.407540
     19          6           0        9.561980    0.363730    0.131106
     20          6           0      -10.070941   -1.058930   -0.467295
     21          6           0       11.136414    0.553065   -2.333117
     22          6           0      -10.500815    1.530042   -1.791848
     23          6           0        9.302247    1.654539   -0.188404
     24          6           0       -8.766518   -0.565296   -0.302349
     25          6           0        8.034106    2.381771    0.108908
     26          6           0       -7.570511   -1.402251   -0.542818
     27          6           0        8.044384    3.874143    0.310369
     28          6           0       -7.567701   -2.854960   -0.904330
     29          6           0        6.833086    1.641142   -0.026346
     30          6           0       -6.411043   -0.742881   -0.315401
     31          6           0        5.551162    2.085241    0.214769
     32          6           0       -5.080004   -1.258129   -0.415437
     33          6           0        4.454049    1.259463   -0.054025
     34          6           0       -3.961997   -0.482401   -0.314375
     35          6           0        3.018725    1.625807    0.078884
     36          6           0       -2.620813   -0.995606   -0.295487
     37          6           0        2.726818    3.071956    0.458207
     38          6           0       -2.273194   -2.355815   -0.746897
     39          6           0        2.085908    0.672130   -0.002834
     40          6           0       -1.650417   -0.005448   -0.182943
     41          6           0        0.692402    0.744180    0.154114
     42          6           0       -0.166016   -0.218244   -0.142374
     43          1           0       13.365577   -0.705530    1.318933
     44          1           0       13.148347   -2.157369    1.877073
     45          1           0      -14.288797   -0.412814    1.624524
     46          1           0      -14.035365   -0.440466   -0.266426
     47          1           0       12.700780   -2.939780   -0.485394
     48          1           0      -13.132538    1.827934    1.749290
     49          1           0       13.668489   -0.403682   -1.392899
     50          1           0       13.113279   -1.575659   -2.310804
     51          1           0      -13.243760    1.922177   -1.392431
     52          1           0      -12.468015    2.749131   -0.277070
     53          1           0       11.953078   -0.597041    3.336367
     54          1           0       10.349579    0.230253    2.872025
     55          1           0       11.604408    0.888759    2.299343
     56          1           0       10.776614   -3.141479    0.565794
     57          1           0       11.112671   -2.655384    2.279966
     58          1           0        9.564647   -2.088698    1.547719
     59          1           0      -11.839971    0.348241    2.586752
     60          1           0      -10.531999   -1.332727    2.358430
     61          1           0      -12.223097   -1.467608    2.825219
     62          1           0      -13.458652   -2.673479    0.838083
     63          1           0      -11.794009   -2.963636    0.635321
     64          1           0      -12.775827   -2.291224   -0.530186
     65          1           0        8.604409   -0.058422    0.524038
     66          1           0      -10.338293   -2.102021   -1.002275
     67          1           0       10.063688    0.850854   -2.304204
     68          1           0       11.329024    1.642319   -2.265580
     69          1           0       11.391657    0.207434   -3.349974
     70          1           0      -11.128623    1.730396   -2.775751
     71          1           0       -9.700506    0.960183   -2.096308
     72          1           0      -10.123576    2.424382   -1.334857
     73          1           0       14.823260   -3.033845    0.116518
     74          1           0      -15.428034    2.123256    1.222808
     75          1           0       10.126701    2.456379   -0.524872
     76          1           0       -8.730173    0.414103    0.261008
     77          1           0        8.830224    4.441784   -0.166821
     78          1           0        7.009601    4.458930    0.150479
     79          1           0        8.170442    4.131342    1.451873
     80          1           0       -8.042280   -3.488506   -0.112982
     81          1           0       -8.596489   -3.031107   -1.669154
     82          1           0       -6.690846   -3.511028   -1.331912
     83          1           0        6.878664    0.653396   -0.360696
     84          1           0       -6.321365    0.349408   -0.145906
     85          1           0        5.476174    2.985401    0.802988
     86          1           0       -4.801022   -2.343249   -0.498393
     87          1           0        4.693480    0.240383   -0.367029
     88          1           0       -4.113549    0.741730   -0.497847
     89          1           0        2.939010    3.364112    1.540189
     90          1           0        1.645776    3.314290    0.100423
     91          1           0        3.511247    3.596445   -0.258824
     92          1           0       -3.043474   -3.266014   -0.319052
     93          1           0       -2.537197   -2.376006   -1.929450
     94          1           0       -1.308787   -2.648826   -0.681457
     95          1           0        2.252245   -0.253695   -0.328257
     96          1           0       -1.663782    0.992218   -0.032020
     97          1           0        0.334503    1.760550    0.219537
     98          1           0        0.210262   -1.245592   -0.323178
 ---------------------------------------------------------------------

 SCF Done:  E(RCAM-B3LYP) =  -1706.93295408     A.U. after   14 cycles

 Excitation energies and oscillator strengths:

 Excited State   1:      Singlet-A      2.6567 eV  466.69 nm  f=3.5456  <S**2>=0.000
     155 ->158         0.19181
     156 ->157         0.67512
 This state for optimization and/or second-order correction.
 Total Energy, E(TD-HF/TD-DFT) =  -1706.83532299
 Copying the excited state density for this state as the 1-particle RhoCI density.

 The electronic state is 1-A.
 Alpha  occ. eigenvalues --  -19.22562 -19.20766 -10.31320 -10.30057 -10.28544
 Alpha  occ. eigenvalues --  -10.28188 -10.28041 -10.27973 -10.27956 -10.27450
 Alpha  occ. eigenvalues --  -10.27401 -10.27358 -10.27273 -10.27211 -10.27205
 Alpha  occ. eigenvalues --  -10.27155 -10.26953 -10.26942 -10.26658 -10.26487
 Alpha  occ. eigenvalues --  -10.26442 -10.26203 -10.26201 -10.26103 -10.26050
 Alpha  occ. eigenvalues --  -10.26049 -10.25969 -10.25788 -10.25722 -10.25343
 Alpha  occ. eigenvalues --  -10.25297 -10.25178 -10.25062 -10.24810 -10.24550
 Alpha  occ. eigenvalues --  -10.24324 -10.24134 -10.23973 -10.23648 -10.23406
 Alpha  occ. eigenvalues --  -10.22326 -10.21872  -1.10755  -1.10635  -0.93656
 Alpha  occ. eigenvalues --   -0.93341  -0.92339  -0.91435  -0.90438  -0.89662
 Alpha  occ. eigenvalues --   -0.87480  -0.87285  -0.87043  -0.85244  -0.84075
 Alpha  occ. eigenvalues --   -0.82783  -0.81909  -0.79794  -0.79271  -0.78205
 Alpha  occ. eigenvalues --   -0.76785  -0.76554  -0.75912  -0.75671  -0.75525
 Alpha  occ. eigenvalues --   -0.74901  -0.74609  -0.74501  -0.73534  -0.70393
 Alpha  occ. eigenvalues --   -0.69202  -0.67882  -0.66245  -0.64702  -0.64400
 Alpha  occ. eigenvalues --   -0.63589  -0.62898  -0.62554  -0.60705  -0.59850
 Alpha  occ. eigenvalues --   -0.59650  -0.59095  -0.58429  -0.58066  -0.56111
 Alpha  occ. eigenvalues --   -0.56050  -0.55226  -0.54926  -0.54058  -0.53787
 Alpha  occ. eigenvalues --   -0.53100  -0.52951  -0.52366  -0.51482  -0.51129
 Alpha  occ. eigenvalues --   -0.50325  -0.49665  -0.49265  -0.49143  -0.48973
 Alpha  occ. eigenvalues --   -0.48638  -0.48504  -0.48179  -0.48068  -0.47516
 Alpha  occ. eigenvalues --   -0.47108  -0.46996  -0.46546  -0.46160  -0.46078
 Alpha  occ. eigenvalues --   -0.45678  -0.45394  -0.44970  -0.44888  -0.44680
 Alpha  occ. eigenvalues --   -0.44310  -0.44189  -0.44008  -0.43668  -0.43443
 Alpha  occ. eigenvalues --   -0.43382  -0.43051  -0.42780  -0.42500  -0.42440
 Alpha  occ. eigenvalues --   -0.41712  -0.41548  -0.40988  -0.40665  -0.40499
 Alpha  occ. eigenvalues --   -0.40428  -0.40331  -0.40139  -0.39469  -0.39389
 Alpha  occ. eigenvalues --   -0.39327  -0.38529  -0.38188  -0.37925  -0.37393
 Alpha  occ. eigenvalues --   -0.37160  -0.37026  -0.36397  -0.36133  -0.35423
 Alpha  occ. eigenvalues --   -0.34496  -0.33911  -0.33464  -0.31785  -0.31054
 Alpha  occ. eigenvalues --   -0.30555  -0.28843  -0.27504  -0.26493  -0.23358
 Alpha  occ. eigenvalues --   -0.20656
 Alpha virt. eigenvalues --   -0.04447  -0.00777   0.03069   0.05883   0.07444
 Alpha virt. eigenvalues --    0.09029   0.09980   0.10452   0.11105   0.12061
 Alpha virt. eigenvalues --    0.12268   0.12498   0.12815   0.13410   0.13604

 Mulliken charges:
               1
     1  O   -0.546298
     2  O   -0.559899
     3  C   -0.034981
     4  C    0.006871
     5  C   -0.185260
     6  C   -0.199200
     7  C    0.153432
     8  C    0.185187
     9  C    0.039991
    10  C    0.046024
    11  C   -0.253609
    12  C   -0.229128
    13  C    0.131133
    14  C    0.049191
    15  C   -0.318579
    16  C   -0.257574
    17  C   -0.288408
    18  C   -0.309438
    19  C   -0.117658
    20  C   -0.150177
    21  C   -0.395131
    22  C   -0.345492
    23  C   -0.107868
    24  C   -0.108236
    25  C    0.075318
    26  C    0.137582
    27  C   -0.381309
    28  C   -0.373493
    29  C   -0.112133
    30  C   -0.128071
    31  C   -0.076542
    32  C   -0.080377
    33  C   -0.121757
    34  C   -0.107183
    35  C    0.085981
    36  C    0.104742
    37  C   -0.359846
    38  C   -0.350703
    39  C   -0.085877
    40  C   -0.095700
    41  C   -0.084873
    42  C   -0.101689
    43  H    0.104697
    44  H    0.086277
    45  H    0.070364
    46  H    0.090546
    47  H    0.059438
    48  H    0.058635
    49  H    0.141137
    50  H    0.106880
    51  H    0.120191
    52  H    0.109917
    53  H    0.068941
    54  H    0.104061
    55  H    0.102158
    56  H    0.068976
    57  H    0.103720
    58  H    0.101176
    59  H    0.079231
    60  H    0.087249
    61  H    0.113268
    62  H    0.099154
    63  H    0.103954
    64  H    0.110846
    65  H    0.101975
    66  H    0.081037
    67  H    0.125830
    68  H    0.108957
    69  H    0.100480
    70  H    0.091237
    71  H    0.128418
    72  H    0.117306
    73  H    0.314693
    74  H    0.306409
    75  H    0.074190
    76  H    0.109636
    77  H    0.125410
    78  H    0.104998
    79  H    0.108748
    80  H    0.128827
    81  H    0.075603
    82  H    0.124142
    83  H    0.081453
    84  H    0.080521
    85  H    0.090831
    86  H    0.069779
    87  H    0.085224
    88  H    0.075792
    89  H    0.125731
    90  H    0.103924
    91  H    0.107745
    92  H    0.087938
    93  H    0.116383
    94  H    0.127006
    95  H    0.064653
    96  H    0.075667
    97  H    0.067042
    98  H    0.072640
 Sum of Mulliken charges =  -0.00000

 Dipole moment (field-independent basis, Debye):
    X=             -1.6723    Y=             -1.1621    Z=              1.0862  Tot=              2.3079
 Quadrupole moment (field-independent basis, Debye-Ang):
   XX=           -246.1226   YY=           -240.0644   ZZ=           -263.1185
   XY=             -2.7354   XZ=             -5.7192   YZ=              4.2444

 Normal termination of Gaussian 16 at Mon Jul  8 18:40:10 2019.
