 Gaussian 16, Revision A.03,
 Gaussian 16:  ES64L-G16RevA.03 25-Dec-2016

 -------------------------------------
 # td=(NStates=1) CAM-B3LYP/6-31G(d,p)
 -------------------------------------

 --
 TD
 --
 Symbolic Z-matrix:
 Charge =  0 Multiplicity = 1

                         Standard orientation:
 ---------------------------------------------------------------------
 Center     Atomic      Atomic             Coordinates (Angstroms)
 Number     Number       Type             X           Y           Z
 ---------------------------------------------------------------------
      1          8           0       14.664727   -2.303730   -0.295927
      2          8           0      -14.778101    1.788262    0.686720
      3          6           0       11.290733   -1.092428    1.259024
      4          6           0      -12.309843   -1.006000    0.777905
      5          6           0       12.858013   -1.459696    1.155164
      6          6           0      -13.635286   -0.341918    0.745569
      7          6           0       13.208874   -1.921941   -0.336124
      8          6           0      -13.624473    1.235504    0.603080
      9          6           0       10.876735   -0.355948   -0.148134
     10          6           0      -11.287627   -0.309613   -0.236965
     11          6           0       12.908156   -0.893150   -1.298974
     12          6           0      -12.833171    1.669901   -0.559953
     13          6           0       11.620675   -0.203637   -1.237228
     14          6           0      -11.669088    0.774322   -0.946527
     15          6           0       11.061403   -0.332884    2.500015
     16          6           0       10.539003   -2.468620    1.218362
     17          6           0      -11.637825   -0.798034    2.218170
     18          6           0      -12.401144   -2.452711    0.489736
     19          6           0        9.587155    0.256726   -0.054849
     20          6           0      -10.024020   -0.936573   -0.486777
     21          6           0       11.148956    0.414686   -2.517653
     22          6           0      -10.768124    1.419448   -2.162543
     23          6           0        9.414628    1.672499   -0.114981
     24          6           0       -8.800927   -0.401660   -0.272626
     25          6           0        8.074995    2.242689    0.184463
     26          6           0       -7.559214   -1.154476   -0.414560
     27          6           0        8.060470    3.689798    0.623011
     28          6           0       -7.656366   -2.563831   -0.766199
     29          6           0        6.967328    1.626744   -0.156032
     30          6           0       -6.412404   -0.640668   -0.180819
     31          6           0        5.650527    2.122056    0.095556
     32          6           0       -4.988778   -1.132835   -0.297904
     33          6           0        4.479800    1.339917   -0.162321
     34          6           0       -3.916259   -0.367446   -0.086637
     35          6           0        3.108966    1.735323    0.164904
     36          6           0       -2.549335   -0.729467   -0.343302
     37          6           0        2.862009    3.004397    0.827733
     38          6           0       -2.257256   -2.158490   -0.917160
     39          6           0        2.156055    0.824068   -0.119159
     40          6           0       -1.603349    0.160054   -0.211521
     41          6           0        0.730999    1.046707    0.059033
     42          6           0       -0.197565    0.091089   -0.228217
     43          1           0       13.412350   -0.423304    1.216789
     44          1           0       13.039577   -2.307109    1.776169
     45          1           0      -14.026444   -0.752340    1.745808
     46          1           0      -14.298256   -0.793636   -0.012755
     47          1           0       12.380354   -2.747919   -0.452260
     48          1           0      -12.723297    1.522169    1.408830
     49          1           0       13.817560   -0.242552   -0.888229
     50          1           0       13.209850   -1.169595   -2.507118
     51          1           0      -13.450993    1.648299   -1.478631
     52          1           0      -12.574926    2.758828   -0.439690
     53          1           0       11.532734   -0.866424    3.168565
     54          1           0        9.970980   -0.028688    2.722840
     55          1           0       11.587764    0.755820    2.448508
     56          1           0       10.857039   -3.087749    0.459567
     57          1           0       10.922115   -2.930723    2.042371
     58          1           0        9.446649   -2.256864    1.107912
     59          1           0      -11.891905    0.190021    2.689855
     60          1           0      -10.526882   -1.007969    2.193015
     61          1           0      -12.247545   -1.536823    2.828828
     62          1           0      -13.061780   -2.798511    1.220014
     63          1           0      -11.414590   -2.744763    0.754259
     64          1           0      -12.810713   -2.781916   -0.485944
     65          1           0        8.884553   -0.368904    0.221041
     66          1           0      -10.114584   -2.000415   -1.019759
     67          1           0       10.025019    0.677392   -2.574604
     68          1           0       11.812446    1.279099   -2.771845
     69          1           0       11.202424   -0.442157   -3.319135
     70          1           0      -11.534387    1.754771   -2.867944
     71          1           0       -9.906175    0.628708   -2.385109
     72          1           0      -10.424307    2.393247   -1.732530
     73          1           0       14.719970   -3.211178    0.152064
     74          1           0      -15.270745    1.809101    1.628009
     75          1           0       10.217256    2.448665   -0.403451
     76          1           0       -8.798546    0.399114   -0.122219
     77          1           0        8.757184    4.276857    0.037566
     78          1           0        6.965205    4.010831    0.621993
     79          1           0        8.364967    3.557573    1.709677
     80          1           0       -8.355470   -3.067714   -0.014649
     81          1           0       -8.084780   -2.533381   -1.734593
     82          1           0       -6.679346   -3.199920   -0.841733
     83          1           0        7.251625    0.613459   -0.546755
     84          1           0       -6.211336    0.409664    0.251315
     85          1           0        5.459480    3.174044    0.570680
     86          1           0       -4.855435   -2.282334   -0.652494
     87          1           0        4.788719    0.279185   -0.325459
     88          1           0       -3.975047    0.813781    0.210290
     89          1           0        3.311357    3.125660    1.960603
     90          1           0        1.842301    3.276751    0.797924
     91          1           0        3.245192    4.071977    0.414483
     92          1           0       -2.857360   -2.985143   -0.302581
     93          1           0       -2.868309   -2.571881   -1.945446
     94          1           0       -1.180359   -2.378371   -0.966256
     95          1           0        2.514135   -0.081678   -0.595102
     96          1           0       -2.145798    0.930414    0.365715
     97          1           0        0.534025    2.118284    0.079429
     98          1           0        0.282927   -0.823433   -0.531534
 ---------------------------------------------------------------------

 SCF Done:  E(RCAM-B3LYP) =  -1706.84010922     A.U. after   14 cycles

 Excitation energies and oscillator strengths:

 Excited State   1:      Singlet-A      2.8886 eV  429.22 nm  f=3.4027  <S**2>=0.000
     155 ->158        -0.17057
     156 ->157         0.67633
 This state for optimization and/or second-order correction.
 Total Energy, E(TD-HF/TD-DFT) =  -1706.73395542
 Copying the excited state density for this state as the 1-particle RhoCI density.

 The electronic state is 1-A.
 Alpha  occ. eigenvalues --  -19.23332 -19.22195 -10.31516 -10.31190 -10.28207
 Alpha  occ. eigenvalues --  -10.27950 -10.27741 -10.27698 -10.27394 -10.27340
 Alpha  occ. eigenvalues --  -10.27306 -10.27298 -10.27211 -10.26805 -10.26775
 Alpha  occ. eigenvalues --  -10.26584 -10.26512 -10.26507 -10.26505 -10.26298
 Alpha  occ. eigenvalues --  -10.26287 -10.26266 -10.26132 -10.26020 -10.26003
 Alpha  occ. eigenvalues --  -10.25952 -10.25928 -10.25824 -10.25708 -10.25662
 Alpha  occ. eigenvalues --  -10.25539 -10.25377 -10.25348 -10.25264 -10.25142
 Alpha  occ. eigenvalues --  -10.24983 -10.24931 -10.24800 -10.24483 -10.24177
 Alpha  occ. eigenvalues --  -10.23706 -10.23432  -1.13616  -1.06687  -0.93687
 Alpha  occ. eigenvalues --   -0.93464  -0.92515  -0.91864  -0.91396  -0.90608
 Alpha  occ. eigenvalues --   -0.88013  -0.87168  -0.86564  -0.85672  -0.85101
 Alpha  occ. eigenvalues --   -0.82877  -0.81489  -0.79982  -0.79549  -0.77926
 Alpha  occ. eigenvalues --   -0.77444  -0.76502  -0.76095  -0.75851  -0.75396
 Alpha  occ. eigenvalues --   -0.74960  -0.74711  -0.74657  -0.74048  -0.70497
 Alpha  occ. eigenvalues --   -0.69094  -0.68172  -0.65530  -0.64046  -0.63812
 Alpha  occ. eigenvalues --   -0.63021  -0.62317  -0.61922  -0.60472  -0.59649
 Alpha  occ. eigenvalues --   -0.59381  -0.58586  -0.58364  -0.57637  -0.56646
 Alpha  occ. eigenvalues --   -0.55692  -0.55379  -0.54669  -0.54301  -0.53621
 Alpha  occ. eigenvalues --   -0.53103  -0.52863  -0.52351  -0.51971  -0.50906
 Alpha  occ. eigenvalues --   -0.50694  -0.50339  -0.50052  -0.49877  -0.49191
 Alpha  occ. eigenvalues --   -0.49010  -0.48904  -0.48540  -0.48035  -0.47870
 Alpha  occ. eigenvalues --   -0.47661  -0.47106  -0.46633  -0.46520  -0.46280
 Alpha  occ. eigenvalues --   -0.46050  -0.45847  -0.45615  -0.45508  -0.45211
 Alpha  occ. eigenvalues --   -0.44714  -0.44582  -0.44202  -0.44103  -0.43123
 Alpha  occ. eigenvalues --   -0.42987  -0.42834  -0.42734  -0.42078  -0.42017
 Alpha  occ. eigenvalues --   -0.41972  -0.41439  -0.41200  -0.40751  -0.40586
 Alpha  occ. eigenvalues --   -0.40323  -0.39859  -0.39774  -0.38862  -0.38830
 Alpha  occ. eigenvalues --   -0.38626  -0.38263  -0.38161  -0.37891  -0.37824
 Alpha  occ. eigenvalues --   -0.37622  -0.37063  -0.36309  -0.35964  -0.35439
 Alpha  occ. eigenvalues --   -0.35019  -0.33700  -0.32848  -0.31727  -0.31093
 Alpha  occ. eigenvalues --   -0.30440  -0.29125  -0.27780  -0.26561  -0.24462
 Alpha  occ. eigenvalues --   -0.21201
 Alpha virt. eigenvalues --   -0.03883   0.00086   0.02920   0.06035   0.08352
 Alpha virt. eigenvalues --    0.08846   0.09145   0.10014   0.10922   0.11353
 Alpha virt. eigenvalues --    0.11676   0.11924   0.12452   0.12633   0.13246

 Mulliken charges:
               1
     1  O   -0.564922
     2  O   -0.530244
     3  C   -0.026358
     4  C   -0.016108
     5  C   -0.179400
     6  C   -0.195021
     7  C    0.136268
     8  C    0.216660
     9  C    0.015605
    10  C    0.052139
    11  C   -0.204421
    12  C   -0.215878
    13  C    0.103142
    14  C    0.026684
    15  C   -0.273838
    16  C   -0.298746
    17  C   -0.309479
    18  C   -0.289328
    19  C   -0.124612
    20  C   -0.190486
    21  C   -0.359275
    22  C   -0.347656
    23  C   -0.103604
    24  C    0.073087
    25  C    0.068968
    26  C    0.125473
    27  C   -0.354075
    28  C   -0.371495
    29  C   -0.087328
    30  C   -0.150931
    31  C   -0.112137
    32  C   -0.091144
    33  C   -0.143596
    34  C   -0.118105
    35  C    0.144940
    36  C    0.172344
    37  C   -0.378401
    38  C   -0.364869
    39  C   -0.125175
    40  C   -0.135869
    41  C   -0.083652
    42  C   -0.101576
    43  H    0.097365
    44  H    0.085355
    45  H    0.061533
    46  H    0.088932
    47  H    0.064271
    48  H    0.018131
    49  H    0.100059
    50  H    0.078046
    51  H    0.096387
    52  H    0.108777
    53  H    0.114186
    54  H    0.100598
    55  H    0.086223
    56  H    0.113294
    57  H    0.102649
    58  H    0.101554
    59  H    0.107429
    60  H    0.110675
    61  H    0.082379
    62  H    0.099035
    63  H    0.108259
    64  H    0.105784
    65  H    0.086283
    66  H    0.087619
    67  H    0.117112
    68  H    0.117433
    69  H    0.096959
    70  H    0.113337
    71  H    0.114121
    72  H    0.111086
    73  H    0.314259
    74  H    0.331228
    75  H    0.098183
    76  H   -0.018237
    77  H    0.118721
    78  H    0.101154
    79  H    0.116382
    80  H    0.115700
    81  H    0.127258
    82  H    0.096937
    83  H    0.076585
    84  H    0.067323
    85  H    0.090044
    86  H    0.069259
    87  H    0.085235
    88  H    0.081200
    89  H    0.109113
    90  H    0.115188
    91  H    0.098628
    92  H    0.101558
    93  H    0.090889
    94  H    0.113868
    95  H    0.086410
    96  H    0.073721
    97  H    0.093632
    98  H    0.083309
 Sum of Mulliken charges =  -0.00000

 Dipole moment (field-independent basis, Debye):
    X=             -1.3000    Y=             -1.0094    Z=              2.2611  Tot=              2.7967
 Quadrupole moment (field-independent basis, Debye-Ang):
   XX=           -257.8208   YY=           -242.3556   ZZ=           -262.6176
   XY=             -8.3620   XZ=             -5.1672   YZ=              4.2779

 Normal termination of Gaussian 16 at Thu Jul  4 20:56:59 2019.
