 Gaussian 16, Revision A.03,
 Gaussian 16:  ES64L-G16RevA.03 25-Dec-2016

 -------------------------------------
 # td=(NStates=1) CAM-B3LYP/6-31G(d,p)
 -------------------------------------

 --
 TD
 --
 Symbolic Z-matrix:
 Charge =  0 Multiplicity = 1

                         Standard orientation:
 ---------------------------------------------------------------------
 Center     Atomic      Atomic             Coordinates (Angstroms)
 Number     Number       Type             X           Y           Z
 ---------------------------------------------------------------------
      1          8           0       14.810410   -2.159025   -0.385007
      2          8           0      -14.748868    1.966762    0.569524
      3          6           0       11.508405   -1.044774    1.206626
      4          6           0      -12.306589   -0.881802    0.802602
      5          6           0       12.967312   -1.412186    1.154981
      6          6           0      -13.654930   -0.200275    0.764865
      7          6           0       13.387871   -1.925115   -0.220380
      8          6           0      -13.551944    1.331058    0.759334
      9          6           0       10.958031   -0.301978   -0.093148
     10          6           0      -11.268098   -0.266639   -0.177220
     11          6           0       13.003354   -1.026637   -1.414078
     12          6           0      -12.792555    1.684816   -0.532114
     13          6           0       11.618101   -0.296482   -1.260184
     14          6           0      -11.554806    0.826729   -0.832324
     15          6           0       11.257121   -0.029182    2.395682
     16          6           0       10.610608   -2.204026    1.560185
     17          6           0      -11.653256   -0.719465    2.239417
     18          6           0      -12.478760   -2.388962    0.466552
     19          6           0        9.606893    0.349845    0.136671
     20          6           0      -10.059148   -0.993755   -0.339465
     21          6           0       11.175254    0.343169   -2.486153
     22          6           0      -10.725913    1.400000   -1.956238
     23          6           0        9.363930    1.586081   -0.058081
     24          6           0       -8.925268   -0.504537   -0.225706
     25          6           0        8.090350    2.207705    0.134014
     26          6           0       -7.676912   -1.297021   -0.459952
     27          6           0        8.161135    3.699920    0.435551
     28          6           0       -7.818976   -2.693887   -0.820490
     29          6           0        6.935536    1.611442   -0.115800
     30          6           0       -6.439946   -0.646764   -0.296825
     31          6           0        5.595586    2.033129    0.117702
     32          6           0       -5.051170   -1.221114   -0.533315
     33          6           0        4.467163    1.311693   -0.029601
     34          6           0       -3.989723   -0.457226   -0.400280
     35          6           0        3.049463    1.683399    0.138687
     36          6           0       -2.589880   -0.865860   -0.458299
     37          6           0        2.798654    3.182605    0.468988
     38          6           0       -2.430856   -2.275287   -0.850281
     39          6           0        2.068380    0.726962   -0.102503
     40          6           0       -1.617058    0.086686   -0.209714
     41          6           0        0.608371    0.810600    0.146813
     42          6           0       -0.211396   -0.137155   -0.144846
     43          1           0       13.548267   -0.477467    1.376173
     44          1           0       13.047046   -2.515133    1.788873
     45          1           0      -14.247999   -0.690484    1.414934
     46          1           0      -14.073416   -0.459001   -0.208416
     47          1           0       12.800069   -2.865044   -0.200613
     48          1           0      -13.018468    1.627744    1.646457
     49          1           0       13.661130   -0.297341   -1.451861
     50          1           0       13.082299   -1.812048   -2.351572
     51          1           0      -13.446693    1.634775   -1.274808
     52          1           0      -12.568218    2.712306   -0.326834
     53          1           0       11.785614   -0.526428    3.303548
     54          1           0       10.130709   -0.066352    2.694463
     55          1           0       11.745843    0.822405    2.353765
     56          1           0       10.464554   -3.117247    0.705469
     57          1           0       10.925858   -2.816864    2.380908
     58          1           0        9.472840   -1.941331    1.646744
     59          1           0      -11.665233    0.348189    2.820681
     60          1           0      -10.632534   -1.008749    2.239001
     61          1           0      -12.142586   -1.623162    2.988274
     62          1           0      -13.546803   -2.874493    0.943618
     63          1           0      -11.583433   -2.733880    1.026437
     64          1           0      -12.605070   -2.315534   -0.653983
     65          1           0        8.750043   -0.192998    0.749458
     66          1           0       -9.885949   -2.170203   -0.564616
     67          1           0       10.078012    0.812515   -2.586010
     68          1           0       11.681503    1.347284   -2.688764
     69          1           0       11.380024   -0.223510   -3.496386
     70          1           0      -11.412059    1.819312   -2.554135
     71          1           0       -9.997559    0.828816   -2.323730
     72          1           0      -10.128287    2.301623   -1.717208
     73          1           0       15.014588   -2.896173    0.161335
     74          1           0      -15.343505    1.892260    1.250173
     75          1           0       10.293146    2.284560   -0.420766
     76          1           0       -8.958748    0.545184    0.070805
     77          1           0        8.658709    4.126820   -0.465257
     78          1           0        7.361185    4.216404    0.544812
     79          1           0        8.698296    3.953976    1.273356
     80          1           0       -8.675839   -3.228385   -0.276564
     81          1           0       -8.104772   -2.690878   -1.987152
     82          1           0       -6.801781   -3.305094   -0.640525
     83          1           0        6.903085    0.583811   -0.510980
     84          1           0       -6.357964    0.409530   -0.051690
     85          1           0        5.395133    2.942336    0.607940
     86          1           0       -4.894701   -2.334557   -0.634322
     87          1           0        4.575321    0.317576   -0.433933
     88          1           0       -4.030880    0.604198   -0.121089
     89          1           0        3.056211    3.244009    1.726514
     90          1           0        1.722318    3.574732    0.272389
     91          1           0        3.310116    3.736184   -0.171890
     92          1           0       -3.079626   -2.995846   -0.181010
     93          1           0       -2.636384   -2.413135   -1.876692
     94          1           0       -1.339579   -2.602873   -0.605359
     95          1           0        2.260605   -0.162263   -0.326297
     96          1           0       -2.140411    1.018240    0.023512
     97          1           0        0.406888    1.901392    0.469788
     98          1           0        0.010754   -1.225859   -0.323143
 ---------------------------------------------------------------------

 SCF Done:  E(RCAM-B3LYP) =  -1706.91342660     A.U. after   13 cycles

 Excitation energies and oscillator strengths:

 Excited State   1:      Singlet-A      3.0433 eV  407.41 nm  f=3.5124  <S**2>=0.000
     155 ->158        -0.17366
     156 ->157         0.67870
 This state for optimization and/or second-order correction.
 Total Energy, E(TD-HF/TD-DFT) =  -1706.80158884
 Copying the excited state density for this state as the 1-particle RhoCI density.

 The electronic state is 1-A.
 Alpha  occ. eigenvalues --  -19.21207 -19.20616 -10.30444 -10.29572 -10.28291
 Alpha  occ. eigenvalues --  -10.28063 -10.28055 -10.27626 -10.27422 -10.27100
 Alpha  occ. eigenvalues --  -10.26928 -10.26872 -10.26842 -10.26755 -10.26675
 Alpha  occ. eigenvalues --  -10.26609 -10.26586 -10.26570 -10.26514 -10.26498
 Alpha  occ. eigenvalues --  -10.26474 -10.26444 -10.26425 -10.26367 -10.26177
 Alpha  occ. eigenvalues --  -10.26128 -10.25868 -10.25806 -10.25699 -10.25658
 Alpha  occ. eigenvalues --  -10.25461 -10.25318 -10.25275 -10.24927 -10.24736
 Alpha  occ. eigenvalues --  -10.24537 -10.24294 -10.24107 -10.23449 -10.23321
 Alpha  occ. eigenvalues --  -10.22734 -10.22578  -1.11883  -1.09232  -0.94141
 Alpha  occ. eigenvalues --   -0.93356  -0.92241  -0.91710  -0.90777  -0.90085
 Alpha  occ. eigenvalues --   -0.88073  -0.87040  -0.86724  -0.85770  -0.85102
 Alpha  occ. eigenvalues --   -0.83439  -0.82336  -0.81029  -0.80693  -0.78560
 Alpha  occ. eigenvalues --   -0.76855  -0.76791  -0.75914  -0.75573  -0.75397
 Alpha  occ. eigenvalues --   -0.75322  -0.75127  -0.74368  -0.74105  -0.70402
 Alpha  occ. eigenvalues --   -0.69060  -0.67744  -0.65952  -0.64758  -0.63619
 Alpha  occ. eigenvalues --   -0.62973  -0.62323  -0.61488  -0.60533  -0.60232
 Alpha  occ. eigenvalues --   -0.59416  -0.58991  -0.58831  -0.58327  -0.57195
 Alpha  occ. eigenvalues --   -0.56000  -0.55479  -0.55310  -0.54330  -0.53869
 Alpha  occ. eigenvalues --   -0.53547  -0.53403  -0.52128  -0.51955  -0.51580
 Alpha  occ. eigenvalues --   -0.50734  -0.50587  -0.49876  -0.49725  -0.49501
 Alpha  occ. eigenvalues --   -0.49238  -0.48966  -0.48752  -0.47943  -0.47652
 Alpha  occ. eigenvalues --   -0.47343  -0.47269  -0.46685  -0.46606  -0.46340
 Alpha  occ. eigenvalues --   -0.46072  -0.45591  -0.45428  -0.44889  -0.44475
 Alpha  occ. eigenvalues --   -0.44246  -0.43781  -0.43337  -0.42999  -0.42770
 Alpha  occ. eigenvalues --   -0.42475  -0.42435  -0.42303  -0.42162  -0.41972
 Alpha  occ. eigenvalues --   -0.41818  -0.41644  -0.41555  -0.40974  -0.40780
 Alpha  occ. eigenvalues --   -0.40363  -0.39539  -0.39258  -0.39147  -0.38874
 Alpha  occ. eigenvalues --   -0.38834  -0.38453  -0.38239  -0.37946  -0.37516
 Alpha  occ. eigenvalues --   -0.37364  -0.37267  -0.36767  -0.36612  -0.36225
 Alpha  occ. eigenvalues --   -0.35850  -0.34422  -0.34165  -0.32316  -0.31838
 Alpha  occ. eigenvalues --   -0.31588  -0.29767  -0.28558  -0.27245  -0.24632
 Alpha  occ. eigenvalues --   -0.21534
 Alpha virt. eigenvalues --   -0.03467   0.00528   0.03805   0.06434   0.08473
 Alpha virt. eigenvalues --    0.09554   0.09939   0.11837   0.11940   0.12349
 Alpha virt. eigenvalues --    0.12694   0.12902   0.13238   0.13727   0.13882

 Mulliken charges:
               1
     1  O   -0.550310
     2  O   -0.539953
     3  C    0.006437
     4  C   -0.022083
     5  C   -0.190134
     6  C   -0.175693
     7  C    0.145554
     8  C    0.165832
     9  C    0.048568
    10  C    0.044012
    11  C   -0.195708
    12  C   -0.222014
    13  C    0.069404
    14  C    0.034816
    15  C   -0.285633
    16  C   -0.300740
    17  C   -0.305822
    18  C   -0.282737
    19  C   -0.125326
    20  C   -0.122596
    21  C   -0.383058
    22  C   -0.346324
    23  C   -0.071615
    24  C   -0.052926
    25  C    0.067826
    26  C    0.101972
    27  C   -0.356924
    28  C   -0.385245
    29  C   -0.114039
    30  C   -0.138224
    31  C   -0.074839
    32  C   -0.101407
    33  C   -0.115058
    34  C   -0.090834
    35  C    0.081680
    36  C    0.111454
    37  C   -0.351280
    38  C   -0.380187
    39  C   -0.097151
    40  C   -0.116507
    41  C   -0.074633
    42  C   -0.083941
    43  H    0.102417
    44  H    0.058959
    45  H    0.082372
    46  H    0.084257
    47  H    0.078514
    48  H    0.073263
    49  H    0.134009
    50  H    0.097216
    51  H    0.130650
    52  H    0.111690
    53  H    0.077976
    54  H    0.099858
    55  H    0.113639
    56  H    0.062458
    57  H    0.114439
    58  H    0.097997
    59  H    0.088216
    60  H    0.119797
    61  H    0.053201
    62  H    0.069117
    63  H    0.111645
    64  H    0.115695
    65  H    0.090310
    66  H    0.064307
    67  H    0.109156
    68  H    0.109280
    69  H    0.102504
    70  H    0.112697
    71  H    0.121555
    72  H    0.100841
    73  H    0.301538
    74  H    0.293824
    75  H    0.077628
    76  H    0.080189
    77  H    0.112201
    78  H    0.113965
    79  H    0.120756
    80  H    0.125128
    81  H    0.120005
    82  H    0.104038
    83  H    0.077176
    84  H    0.084098
    85  H    0.073756
    86  H    0.078647
    87  H    0.072592
    88  H    0.071660
    89  H    0.097896
    90  H    0.100168
    91  H    0.140140
    92  H    0.109571
    93  H    0.143336
    94  H    0.087738
    95  H    0.052721
    96  H    0.076257
    97  H    0.079445
    98  H    0.092881
 Sum of Mulliken charges =  -0.00000

 Dipole moment (field-independent basis, Debye):
    X=             -0.3093    Y=             -0.5711    Z=              1.6879  Tot=              1.8086
 Quadrupole moment (field-independent basis, Debye-Ang):
   XX=           -270.0038   YY=           -243.0878   ZZ=           -261.5560
   XY=              0.9590   XZ=             -0.0890   YZ=              1.3409

 Normal termination of Gaussian 16 at Wed Jul 10 09:59:03 2019.
