 Gaussian 16, Revision A.03,
 Gaussian 16:  ES64L-G16RevA.03 25-Dec-2016

 -------------------------------------
 # td=(NStates=1) CAM-B3LYP/6-31G(d,p)
 -------------------------------------

 --
 TD
 --
 Symbolic Z-matrix:
 Charge =  0 Multiplicity = 1

                         Standard orientation:
 ---------------------------------------------------------------------
 Center     Atomic      Atomic             Coordinates (Angstroms)
 Number     Number       Type             X           Y           Z
 ---------------------------------------------------------------------
      1          8           0       14.742818   -2.189727   -0.439414
      2          8           0      -14.823020    1.956909    0.590579
      3          6           0       11.501753   -1.044987    1.126501
      4          6           0      -12.313503   -0.819900    0.820695
      5          6           0       12.936870   -1.457421    1.085273
      6          6           0      -13.766496   -0.127468    0.752331
      7          6           0       13.335303   -1.836709   -0.358552
      8          6           0      -13.489924    1.389412    0.639300
      9          6           0       11.038606   -0.266357   -0.114476
     10          6           0      -11.412231   -0.235900   -0.167495
     11          6           0       13.094679   -0.761299   -1.298688
     12          6           0      -12.827526    1.688044   -0.697276
     13          6           0       11.744421   -0.143400   -1.209096
     14          6           0      -11.622579    0.837692   -0.907898
     15          6           0       11.318952   -0.222473    2.408916
     16          6           0       10.609422   -2.337976    1.249248
     17          6           0      -11.694449   -0.718613    2.251641
     18          6           0      -12.532431   -2.415207    0.451309
     19          6           0        9.721466    0.287181    0.128479
     20          6           0      -10.161539   -1.030616   -0.337937
     21          6           0       11.320560    0.571486   -2.402168
     22          6           0      -10.657754    1.527805   -1.925366
     23          6           0        9.389389    1.628915   -0.157072
     24          6           0       -8.892114   -0.492333   -0.206976
     25          6           0        7.993508    2.218949    0.089812
     26          6           0       -7.652580   -1.272841   -0.414410
     27          6           0        8.032087    3.629792    0.593041
     28          6           0       -7.851979   -2.775541   -0.952270
     29          6           0        6.895071    1.522284   -0.059757
     30          6           0       -6.455319   -0.740762   -0.193873
     31          6           0        5.588188    2.028581    0.136789
     32          6           0       -5.071927   -1.204073   -0.361296
     33          6           0        4.467084    1.158169    0.084782
     34          6           0       -3.984919   -0.455626   -0.323838
     35          6           0        3.118320    1.592122    0.219847
     36          6           0       -2.583544   -0.880161   -0.420562
     37          6           0        2.781412    3.002241    0.653910
     38          6           0       -2.301392   -2.302287   -0.779596
     39          6           0        2.058811    0.683042    0.035500
     40          6           0       -1.650841    0.032086   -0.099853
     41          6           0        0.667096    0.860126    0.067291
     42          6           0       -0.173296   -0.150952   -0.248549
     43          1           0       13.490031   -0.378701    1.219090
     44          1           0       13.070115   -2.139595    1.847171
     45          1           0      -14.601626   -0.340563    1.677710
     46          1           0      -14.163066   -0.528619   -0.252832
     47          1           0       12.898313   -2.771501   -0.535053
     48          1           0      -12.917391    1.586615    1.471293
     49          1           0       14.008842   -0.194921   -1.270946
     50          1           0       13.072045   -1.236093   -2.374712
     51          1           0      -13.747595    1.643193   -1.481507
     52          1           0      -12.588746    2.769555   -0.862880
     53          1           0       11.632946   -0.914621    3.299141
     54          1           0       10.250194    0.273618    2.605423
     55          1           0       12.031878    0.636986    2.357007
     56          1           0       10.632068   -3.020385    0.361684
     57          1           0       11.030734   -3.041777    2.102045
     58          1           0        9.496865   -2.328345    1.688379
     59          1           0      -11.764096    0.382325    2.387804
     60          1           0      -10.599013   -1.033089    2.035890
     61          1           0      -12.235668   -1.411509    2.831724
     62          1           0      -13.431560   -2.813041    0.996963
     63          1           0      -11.413923   -2.752777    0.872094
     64          1           0      -12.786918   -2.360500   -0.609535
     65          1           0        8.955996   -0.202684    0.113121
     66          1           0      -10.330026   -2.016482   -0.349837
     67          1           0       10.264384    0.871288   -2.370783
     68          1           0       11.918726    1.495751   -2.329875
     69          1           0       11.541534   -0.061482   -3.282666
     70          1           0      -11.256576    1.691726   -2.713689
     71          1           0      -10.005717    0.650646   -2.286799
     72          1           0      -10.227628    2.385611   -1.410944
     73          1           0       14.855088   -2.778577    0.322052
     74          1           0      -15.654892    1.728359    1.212822
     75          1           0       10.068696    2.494139   -0.299344
     76          1           0       -8.951025    0.485722    0.238713
     77          1           0        8.998810    4.095076   -0.138741
     78          1           0        7.205441    4.234784    0.398895
     79          1           0        8.255599    3.812601    1.575401
     80          1           0       -8.247035   -3.318917   -0.100858
     81          1           0       -8.399228   -2.766146   -1.896328
     82          1           0       -6.729751   -3.250373   -1.015789
     83          1           0        6.823801    0.424851   -0.248412
     84          1           0       -6.695382    0.403262    0.072278
     85          1           0        5.408950    3.102423    0.006606
     86          1           0       -4.950446   -2.255598   -0.585747
     87          1           0        4.854879    0.142806   -0.113832
     88          1           0       -4.136424    0.614885   -0.128817
     89          1           0        3.631410    3.296056    1.461289
     90          1           0        1.709262    3.207833    0.729758
     91          1           0        3.029930    3.799123   -0.340567
     92          1           0       -3.023707   -2.773361   -0.219069
     93          1           0       -2.535232   -2.333537   -1.988067
     94          1           0       -1.274815   -2.660292   -0.621401
     95          1           0        2.458866   -0.338979   -0.162329
     96          1           0       -2.097011    1.105258    0.067408
     97          1           0        0.359911    1.761598    0.396622
     98          1           0        0.350862   -1.001239   -0.512299
 ---------------------------------------------------------------------

 SCF Done:  E(RCAM-B3LYP) =  -1706.93113966     A.U. after   14 cycles

 Excitation energies and oscillator strengths:

 Excited State   1:      Singlet-A      2.7676 eV  447.99 nm  f=3.4769  <S**2>=0.000
     155 ->158        -0.15761
     156 ->157         0.68405
 This state for optimization and/or second-order correction.
 Total Energy, E(TD-HF/TD-DFT) =  -1706.82943310
 Copying the excited state density for this state as the 1-particle RhoCI density.

 The electronic state is 1-A.
 Alpha  occ. eigenvalues --  -19.20275 -19.19872 -10.30065 -10.29305 -10.28570
 Alpha  occ. eigenvalues --  -10.27823 -10.27652 -10.27449 -10.27206 -10.27194
 Alpha  occ. eigenvalues --  -10.27122 -10.27077 -10.27066 -10.27063 -10.26883
 Alpha  occ. eigenvalues --  -10.26811 -10.26803 -10.26802 -10.26700 -10.26588
 Alpha  occ. eigenvalues --  -10.26559 -10.26516 -10.26478 -10.26377 -10.26302
 Alpha  occ. eigenvalues --  -10.26267 -10.26232 -10.26140 -10.26060 -10.26046
 Alpha  occ. eigenvalues --  -10.25571 -10.25440 -10.25426 -10.25384 -10.25162
 Alpha  occ. eigenvalues --  -10.25133 -10.25073 -10.24972 -10.24886 -10.24806
 Alpha  occ. eigenvalues --  -10.24605 -10.24428  -1.08431  -1.05363  -0.94634
 Alpha  occ. eigenvalues --   -0.93875  -0.92282  -0.91729  -0.90562  -0.89508
 Alpha  occ. eigenvalues --   -0.88076  -0.87407  -0.86292  -0.85844  -0.84960
 Alpha  occ. eigenvalues --   -0.82976  -0.82086  -0.80518  -0.79411  -0.77997
 Alpha  occ. eigenvalues --   -0.76519  -0.76114  -0.75940  -0.75672  -0.75236
 Alpha  occ. eigenvalues --   -0.75010  -0.74833  -0.74139  -0.73882  -0.70831
 Alpha  occ. eigenvalues --   -0.69231  -0.67785  -0.65970  -0.65436  -0.64519
 Alpha  occ. eigenvalues --   -0.63826  -0.63344  -0.62441  -0.61026  -0.60032
 Alpha  occ. eigenvalues --   -0.59425  -0.59197  -0.58555  -0.57212  -0.56145
 Alpha  occ. eigenvalues --   -0.55648  -0.55263  -0.54497  -0.53371  -0.52929
 Alpha  occ. eigenvalues --   -0.52847  -0.52498  -0.51831  -0.51672  -0.50888
 Alpha  occ. eigenvalues --   -0.50662  -0.50550  -0.50403  -0.50121  -0.49713
 Alpha  occ. eigenvalues --   -0.49398  -0.49079  -0.48993  -0.48699  -0.48293
 Alpha  occ. eigenvalues --   -0.48081  -0.47846  -0.46723  -0.46424  -0.46192
 Alpha  occ. eigenvalues --   -0.46013  -0.45861  -0.45321  -0.45171  -0.44858
 Alpha  occ. eigenvalues --   -0.44548  -0.43941  -0.43877  -0.43278  -0.42899
 Alpha  occ. eigenvalues --   -0.42626  -0.42164  -0.42112  -0.41967  -0.41712
 Alpha  occ. eigenvalues --   -0.41487  -0.41225  -0.40819  -0.40762  -0.40729
 Alpha  occ. eigenvalues --   -0.40525  -0.40076  -0.40013  -0.39925  -0.39589
 Alpha  occ. eigenvalues --   -0.39393  -0.38600  -0.38374  -0.37951  -0.37705
 Alpha  occ. eigenvalues --   -0.37405  -0.37152  -0.36929  -0.36286  -0.36138
 Alpha  occ. eigenvalues --   -0.34945  -0.34006  -0.33169  -0.31632  -0.31369
 Alpha  occ. eigenvalues --   -0.30180  -0.29618  -0.28690  -0.27075  -0.24458
 Alpha  occ. eigenvalues --   -0.20926
 Alpha virt. eigenvalues --   -0.04344  -0.00354   0.02702   0.05848   0.08301
 Alpha virt. eigenvalues --    0.09227   0.10043   0.10422   0.11245   0.11692
 Alpha virt. eigenvalues --    0.11925   0.12373   0.12878   0.13128   0.13601

 Mulliken charges:
               1
     1  O   -0.575018
     2  O   -0.620371
     3  C   -0.008731
     4  C   -0.089678
     5  C   -0.195141
     6  C   -0.173216
     7  C    0.177588
     8  C    0.219004
     9  C    0.066239
    10  C    0.091942
    11  C   -0.227605
    12  C   -0.229121
    13  C    0.060333
    14  C    0.025604
    15  C   -0.285131
    16  C   -0.312896
    17  C   -0.279194
    18  C   -0.302456
    19  C   -0.076823
    20  C   -0.154070
    21  C   -0.351318
    22  C   -0.344517
    23  C   -0.115496
    24  C   -0.089171
    25  C    0.057017
    26  C    0.086899
    27  C   -0.347275
    28  C   -0.357170
    29  C   -0.099537
    30  C   -0.127563
    31  C   -0.099270
    32  C   -0.102906
    33  C   -0.130195
    34  C   -0.087469
    35  C    0.119954
    36  C    0.117371
    37  C   -0.356260
    38  C   -0.349819
    39  C   -0.143154
    40  C   -0.152293
    41  C   -0.031625
    42  C   -0.089209
    43  H    0.079169
    44  H    0.090667
    45  H    0.050067
    46  H    0.090028
    47  H    0.088352
    48  H    0.090368
    49  H    0.134035
    50  H    0.091399
    51  H    0.108438
    52  H    0.103376
    53  H    0.082883
    54  H    0.099633
    55  H    0.099561
    56  H    0.107219
    57  H    0.074224
    58  H    0.096547
    59  H    0.097850
    60  H    0.096170
    61  H    0.113460
    62  H    0.102810
    63  H    0.086042
    64  H    0.114504
    65  H    0.078573
    66  H    0.091817
    67  H    0.118859
    68  H    0.118673
    69  H    0.103518
    70  H    0.124875
    71  H    0.110862
    72  H    0.125578
    73  H    0.300417
    74  H    0.314097
    75  H    0.077965
    76  H    0.093151
    77  H    0.061067
    78  H    0.122193
    79  H    0.143322
    80  H    0.130514
    81  H    0.133309
    82  H    0.083406
    83  H    0.080149
    84  H    0.064720
    85  H    0.091861
    86  H    0.080997
    87  H    0.084210
    88  H    0.081568
    89  H    0.117495
    90  H    0.122447
    91  H    0.070523
    92  H    0.130589
    93  H    0.104236
    94  H    0.117195
    95  H    0.069656
    96  H    0.081538
    97  H    0.069955
    98  H    0.085613
 Sum of Mulliken charges =  -0.00000

 Dipole moment (field-independent basis, Debye):
    X=             -1.3312    Y=             -1.0744    Z=              1.5650  Tot=              2.3186
 Quadrupole moment (field-independent basis, Debye-Ang):
   XX=           -280.7500   YY=           -248.6349   ZZ=           -263.5287
   XY=              9.7576   XZ=              4.0952   YZ=             -0.1439

 Normal termination of Gaussian 16 at Mon Jul  1 01:29:19 2019.
