 Gaussian 16, Revision A.03,
 Gaussian 16:  ES64L-G16RevA.03 25-Dec-2016

 -------------------------------------
 # td=(NStates=1) CAM-B3LYP/6-31G(d,p)
 -------------------------------------

 --
 TD
 --
 Symbolic Z-matrix:
 Charge =  0 Multiplicity = 1

                         Standard orientation:
 ---------------------------------------------------------------------
 Center     Atomic      Atomic             Coordinates (Angstroms)
 Number     Number       Type             X           Y           Z
 ---------------------------------------------------------------------
      1          8           0       14.710946   -2.283324   -0.773206
      2          8           0      -14.990773    1.655701    0.616594
      3          6           0       11.494993   -1.296531    1.016665
      4          6           0      -12.222326   -0.996128    0.704374
      5          6           0       12.930689   -1.608015    0.974983
      6          6           0      -13.663221   -0.334770    0.639451
      7          6           0       13.312778   -2.041829   -0.453290
      8          6           0      -13.629470    1.143193    0.660665
      9          6           0       10.894444   -0.390220   -0.035173
     10          6           0      -11.316640   -0.309761   -0.349530
     11          6           0       12.956956   -0.814595   -1.405894
     12          6           0      -12.967225    1.573068   -0.653269
     13          6           0       11.577146   -0.198612   -1.245420
     14          6           0      -11.679797    0.853390   -0.911142
     15          6           0       11.352691   -0.577333    2.400263
     16          6           0       10.637511   -2.575949    1.126239
     17          6           0      -11.557123   -0.849375    2.153502
     18          6           0      -12.377181   -2.568180    0.452887
     19          6           0        9.585828    0.322624    0.204301
     20          6           0      -10.012193   -1.018839   -0.478613
     21          6           0       11.048578    0.582913   -2.459844
     22          6           0      -10.775796    1.609227   -1.907322
     23          6           0        9.359063    1.684121    0.003685
     24          6           0       -8.823218   -0.564881   -0.365125
     25          6           0        8.087580    2.263782    0.144487
     26          6           0       -7.601701   -1.237823   -0.545354
     27          6           0        8.112328    3.745328    0.738494
     28          6           0       -7.599582   -2.675736   -0.888747
     29          6           0        6.992335    1.594544    0.034858
     30          6           0       -6.400094   -0.556489   -0.367344
     31          6           0        5.555708    2.072319    0.217210
     32          6           0       -5.033427   -1.036878   -0.441949
     33          6           0        4.489307    1.396444   -0.033894
     34          6           0       -3.972882   -0.152610   -0.194985
     35          6           0        3.083829    1.739841    0.217824
     36          6           0       -2.608536   -0.621623   -0.152799
     37          6           0        2.872167    3.216119    0.652824
     38          6           0       -2.408458   -2.157152   -0.279294
     39          6           0        2.024499    0.946313    0.022210
     40          6           0       -1.654009    0.344673   -0.050969
     41          6           0        0.620338    1.166125    0.121535
     42          6           0       -0.147694    0.068781    0.018647
     43          1           0       13.668491   -0.934903    1.188365
     44          1           0       13.255044   -2.611596    1.758599
     45          1           0      -14.404602   -0.637856    1.469420
     46          1           0      -13.971701   -0.647627   -0.482756
     47          1           0       12.657611   -2.926576   -0.666411
     48          1           0      -13.110120    1.392940    1.519781
     49          1           0       13.561430    0.008690   -1.331959
     50          1           0       13.117030   -1.334103   -2.525937
     51          1           0      -13.550060    1.328187   -1.556171
     52          1           0      -12.541351    2.616053   -0.588583
     53          1           0       11.912553   -1.138019    3.261174
     54          1           0       10.361822   -0.425088    2.813911
     55          1           0       11.829943    0.474092    2.384716
     56          1           0       10.950225   -3.166961    0.147550
     57          1           0       10.843806   -3.065952    2.130500
     58          1           0        9.569812   -2.293135    0.969152
     59          1           0      -11.398244    0.216793    2.443033
     60          1           0      -10.614197   -1.508625    2.171357
     61          1           0      -12.321523   -1.213362    2.881761
     62          1           0      -13.192901   -3.053487    1.050077
     63          1           0      -11.263598   -2.945178    0.575906
     64          1           0      -12.788993   -2.766517   -0.636062
     65          1           0        8.935489   -0.311686    0.698426
     66          1           0      -10.165103   -2.026507   -0.832317
     67          1           0       10.076783    0.919736   -2.059816
     68          1           0       11.637558    1.546497   -2.546082
     69          1           0       11.001790   -0.120538   -3.264038
     70          1           0      -11.380028    2.107282   -2.711208
     71          1           0      -10.111039    0.665008   -2.070029
     72          1           0      -10.394172    2.583274   -1.357822
     73          1           0       15.087177   -2.914107   -0.089056
     74          1           0      -15.259695    1.234469    1.414268
     75          1           0       10.124703    2.325368   -0.378295
     76          1           0       -8.914851    0.553251    0.063199
     77          1           0        9.068845    4.512010    0.366614
     78          1           0        7.141409    4.254873    0.436803
     79          1           0        8.497534    3.747309    1.550444
     80          1           0       -8.475345   -3.288569   -0.361426
     81          1           0       -8.094540   -2.833911   -2.063074
     82          1           0       -6.700950   -3.322166   -0.815765
     83          1           0        7.136224    0.554280   -0.187813
     84          1           0       -6.532219    0.381434   -0.113478
     85          1           0        5.531889    3.272374    0.518312
     86          1           0       -4.859348   -2.080366   -0.611048
     87          1           0        4.491201    0.363751   -0.337835
     88          1           0       -4.110144    0.859957   -0.058599
     89          1           0        3.236690    3.575842    1.659729
     90          1           0        1.881670    3.630550    0.744504
     91          1           0        3.466171    3.880930    0.066602
     92          1           0       -2.755845   -2.756876    0.649053
     93          1           0       -2.838016   -2.589139   -1.066935
     94          1           0       -1.154628   -2.308444   -0.185009
     95          1           0        2.121913   -0.231676   -0.293900
     96          1           0       -1.792089    1.444545   -0.050729
     97          1           0        0.253990    2.363897    0.234910
     98          1           0        0.285939   -0.776293   -0.384002
 ---------------------------------------------------------------------

 SCF Done:  E(RCAM-B3LYP) =  -1706.91248249     A.U. after   13 cycles

 Excitation energies and oscillator strengths:

 Excited State   1:      Singlet-A      3.0117 eV  411.67 nm  f=3.6287  <S**2>=0.000
     155 ->158        -0.18888
     156 ->157         0.67067
 This state for optimization and/or second-order correction.
 Total Energy, E(TD-HF/TD-DFT) =  -1706.80180397
 Copying the excited state density for this state as the 1-particle RhoCI density.

 The electronic state is 1-A.
 Alpha  occ. eigenvalues --  -19.21874 -19.20774 -10.31084 -10.29436 -10.28281
 Alpha  occ. eigenvalues --  -10.28262 -10.28153 -10.27947 -10.27849 -10.27835
 Alpha  occ. eigenvalues --  -10.27814 -10.27676 -10.27527 -10.27311 -10.27306
 Alpha  occ. eigenvalues --  -10.27124 -10.26883 -10.26868 -10.26758 -10.26699
 Alpha  occ. eigenvalues --  -10.26624 -10.26595 -10.26533 -10.26526 -10.26428
 Alpha  occ. eigenvalues --  -10.26392 -10.26381 -10.26323 -10.26233 -10.26048
 Alpha  occ. eigenvalues --  -10.25992 -10.25943 -10.25922 -10.25796 -10.25600
 Alpha  occ. eigenvalues --  -10.25537 -10.25420 -10.25407 -10.25396 -10.25325
 Alpha  occ. eigenvalues --  -10.25072 -10.24825  -1.09627  -1.07817  -0.93895
 Alpha  occ. eigenvalues --   -0.93476  -0.92319  -0.91838  -0.91303  -0.90281
 Alpha  occ. eigenvalues --   -0.88027  -0.86656  -0.85873  -0.85771  -0.84401
 Alpha  occ. eigenvalues --   -0.83099  -0.82038  -0.79969  -0.79742  -0.77960
 Alpha  occ. eigenvalues --   -0.77349  -0.76296  -0.76132  -0.75404  -0.75266
 Alpha  occ. eigenvalues --   -0.74781  -0.74454  -0.74353  -0.74145  -0.70799
 Alpha  occ. eigenvalues --   -0.69539  -0.67607  -0.65998  -0.65514  -0.63897
 Alpha  occ. eigenvalues --   -0.63210  -0.62552  -0.62433  -0.61500  -0.59925
 Alpha  occ. eigenvalues --   -0.59654  -0.58864  -0.58455  -0.57900  -0.56459
 Alpha  occ. eigenvalues --   -0.56189  -0.55595  -0.54791  -0.54051  -0.53450
 Alpha  occ. eigenvalues --   -0.52808  -0.52244  -0.51606  -0.51275  -0.50919
 Alpha  occ. eigenvalues --   -0.50495  -0.50218  -0.50129  -0.49757  -0.49223
 Alpha  occ. eigenvalues --   -0.48818  -0.48747  -0.48362  -0.48219  -0.47882
 Alpha  occ. eigenvalues --   -0.47243  -0.47113  -0.46779  -0.46501  -0.46246
 Alpha  occ. eigenvalues --   -0.45746  -0.45533  -0.45410  -0.45017  -0.44639
 Alpha  occ. eigenvalues --   -0.44523  -0.44319  -0.44246  -0.43860  -0.43056
 Alpha  occ. eigenvalues --   -0.42948  -0.42850  -0.42630  -0.42508  -0.42442
 Alpha  occ. eigenvalues --   -0.42275  -0.41556  -0.41294  -0.41224  -0.40269
 Alpha  occ. eigenvalues --   -0.40194  -0.39955  -0.39834  -0.39491  -0.39014
 Alpha  occ. eigenvalues --   -0.38941  -0.38694  -0.38475  -0.38224  -0.37993
 Alpha  occ. eigenvalues --   -0.37773  -0.37341  -0.36681  -0.36469  -0.35869
 Alpha  occ. eigenvalues --   -0.35405  -0.34220  -0.33653  -0.32456  -0.32111
 Alpha  occ. eigenvalues --   -0.32016  -0.30031  -0.28444  -0.26863  -0.24503
 Alpha  occ. eigenvalues --   -0.21783
 Alpha virt. eigenvalues --   -0.03904  -0.00673   0.02472   0.06394   0.08059
 Alpha virt. eigenvalues --    0.09290   0.09844   0.10439   0.10935   0.11279
 Alpha virt. eigenvalues --    0.12245   0.12467   0.12692   0.12882   0.13001

 Mulliken charges:
               1
     1  O   -0.567241
     2  O   -0.542887
     3  C   -0.011253
     4  C   -0.021428
     5  C   -0.159519
     6  C   -0.193361
     7  C    0.156360
     8  C    0.162581
     9  C    0.050823
    10  C    0.065206
    11  C   -0.203765
    12  C   -0.208625
    13  C    0.005480
    14  C    0.013800
    15  C   -0.304722
    16  C   -0.282254
    17  C   -0.298373
    18  C   -0.295883
    19  C   -0.111867
    20  C   -0.176301
    21  C   -0.345791
    22  C   -0.347215
    23  C   -0.122394
    24  C   -0.073664
    25  C    0.099799
    26  C    0.140156
    27  C   -0.325824
    28  C   -0.378931
    29  C   -0.112230
    30  C   -0.104821
    31  C   -0.090690
    32  C   -0.095266
    33  C   -0.089283
    34  C   -0.084917
    35  C    0.118914
    36  C    0.109721
    37  C   -0.389345
    38  C   -0.358763
    39  C   -0.157414
    40  C   -0.144478
    41  C   -0.033840
    42  C   -0.109041
    43  H    0.116818
    44  H    0.031886
    45  H    0.060901
    46  H    0.088577
    47  H    0.079757
    48  H    0.090398
    49  H    0.131097
    50  H    0.081255
    51  H    0.131506
    52  H    0.097679
    53  H    0.082264
    54  H    0.100573
    55  H    0.094218
    56  H    0.089406
    57  H    0.106045
    58  H    0.102638
    59  H    0.100072
    60  H    0.106611
    61  H    0.095099
    62  H    0.106767
    63  H    0.093109
    64  H    0.088555
    65  H    0.091172
    66  H    0.091226
    67  H    0.120483
    68  H    0.110439
    69  H    0.124394
    70  H    0.108657
    71  H    0.124103
    72  H    0.097702
    73  H    0.304414
    74  H    0.293837
    75  H    0.099987
    76  H    0.085624
    77  H    0.050411
    78  H    0.113912
    79  H    0.141816
    80  H    0.101682
    81  H    0.082571
    82  H    0.118860
    83  H    0.079892
    84  H    0.065571
    85  H    0.067360
    86  H    0.080179
    87  H    0.081419
    88  H    0.085132
    89  H    0.110107
    90  H    0.103479
    91  H    0.121202
    92  H    0.119593
    93  H    0.141456
    94  H    0.077278
    95  H    0.062245
    96  H    0.096280
    97  H    0.085943
    98  H    0.104886
 Sum of Mulliken charges =  -0.00000

 Dipole moment (field-independent basis, Debye):
    X=              1.5412    Y=             -1.1315    Z=              2.4028  Tot=              3.0706
 Quadrupole moment (field-independent basis, Debye-Ang):
   XX=           -298.4920   YY=           -246.0910   ZZ=           -265.1383
   XY=             14.8525   XZ=              3.1781   YZ=              1.0848

 Normal termination of Gaussian 16 at Sun Jun 30 01:38:11 2019.
