 Gaussian 16, Revision A.03,
 Gaussian 16:  ES64L-G16RevA.03 25-Dec-2016

 -------------------------------------
 # td=(NStates=1) CAM-B3LYP/6-31G(d,p)
 -------------------------------------

 --
 TD
 --
 Symbolic Z-matrix:
 Charge =  0 Multiplicity = 1

                         Standard orientation:
 ---------------------------------------------------------------------
 Center     Atomic      Atomic             Coordinates (Angstroms)
 Number     Number       Type             X           Y           Z
 ---------------------------------------------------------------------
      1          8           0       14.669547   -2.307356   -0.364099
      2          8           0      -14.682612    1.991282    0.667824
      3          6           0       11.387319   -1.156538    1.147532
      4          6           0      -12.302567   -1.005086    0.767193
      5          6           0       12.839106   -1.431713    1.051923
      6          6           0      -13.581791   -0.163795    0.710109
      7          6           0       13.316347   -2.035534   -0.339955
      8          6           0      -13.415595    1.309437    0.779377
      9          6           0       10.857496   -0.355455   -0.098616
     10          6           0      -11.318861   -0.321474   -0.267683
     11          6           0       13.007962   -0.968183   -1.351475
     12          6           0      -12.731161    1.789868   -0.388261
     13          6           0       11.613874   -0.233421   -1.194487
     14          6           0      -11.570755    0.842513   -0.828707
     15          6           0       11.279885   -0.246923    2.388032
     16          6           0       10.663277   -2.409793    1.295930
     17          6           0      -11.672545   -0.947202    2.221178
     18          6           0      -12.572011   -2.430692    0.359890
     19          6           0        9.561223    0.400233    0.141364
     20          6           0      -10.078860   -1.070118   -0.612792
     21          6           0       11.194156    0.469359   -2.314577
     22          6           0      -10.643492    1.492173   -1.948543
     23          6           0        9.351309    1.645219   -0.059469
     24          6           0       -8.874626   -0.640772   -0.318714
     25          6           0        7.977302    2.291483    0.109912
     26          6           0       -7.581586   -1.354786   -0.542558
     27          6           0        8.213596    3.791902    0.286360
     28          6           0       -7.698647   -2.788316   -0.856053
     29          6           0        6.829744    1.651334    0.015275
     30          6           0       -6.401377   -0.643475   -0.341607
     31          6           0        5.511079    2.153665    0.284379
     32          6           0       -5.091767   -1.153354   -0.338696
     33          6           0        4.513551    1.310616    0.004542
     34          6           0       -4.009395   -0.389261   -0.258723
     35          6           0        3.036308    1.680529    0.209463
     36          6           0       -2.593265   -0.780887   -0.386283
     37          6           0        2.749926    3.153678    0.638305
     38          6           0       -2.239099   -2.170488   -0.688498
     39          6           0        2.069201    0.843284   -0.109043
     40          6           0       -1.628993    0.129727   -0.162416
     41          6           0        0.671785    0.955580   -0.037128
     42          6           0       -0.232893   -0.017478   -0.247837
     43          1           0       13.330009   -0.429668    1.054210
     44          1           0       13.252797   -2.158052    1.920373
     45          1           0      -14.312259   -0.377435    1.481110
     46          1           0      -14.055221   -0.627629   -0.177133
     47          1           0       12.865224   -2.943257   -0.586248
     48          1           0      -12.963280    1.699433    1.807612
     49          1           0       13.828878   -0.174701   -1.546587
     50          1           0       13.061190   -1.430911   -2.326335
     51          1           0      -13.490543    2.010181   -1.294050
     52          1           0      -12.390937    2.749843   -0.047212
     53          1           0       11.685289   -0.970676    3.242267
     54          1           0       10.226061    0.068529    2.711847
     55          1           0       12.028717    0.541012    2.452370
     56          1           0       10.681920   -3.157588    0.403675
     57          1           0       10.784717   -2.927642    2.294754
     58          1           0        9.537894   -2.465949    1.561358
     59          1           0      -11.784627    0.052142    2.483657
     60          1           0      -10.640767   -1.417729    2.212958
     61          1           0      -12.251494   -1.633598    2.767521
     62          1           0      -13.375868   -2.838006    0.810561
     63          1           0      -11.702928   -3.167060    0.479444
     64          1           0      -12.881092   -2.512205   -0.845292
     65          1           0        8.905125   -0.123778    0.484667
     66          1           0      -10.144081   -2.028572   -0.879100
     67          1           0        9.947205    0.365194   -2.296108
     68          1           0       11.583879    1.448097   -2.613044
     69          1           0       11.506855   -0.021036   -3.193410
     70          1           0      -11.367351    1.985496   -2.657928
     71          1           0       -9.878275    0.763511   -2.239025
     72          1           0      -10.205127    2.343132   -1.399079
     73          1           0       15.043047   -2.740809    0.522140
     74          1           0      -15.151243    1.959573    1.494507
     75          1           0       10.064538    2.217328   -0.538253
     76          1           0       -8.766629    0.399693    0.030176
     77          1           0        8.587014    4.303841   -0.663663
     78          1           0        7.227543    4.266634    0.562023
     79          1           0        8.671989    4.018531    1.123981
     80          1           0       -8.403074   -3.085262   -0.077890
     81          1           0       -8.145735   -3.038941   -1.994439
     82          1           0       -6.785229   -3.268943   -0.567231
     83          1           0        6.932143    0.592836   -0.097544
     84          1           0       -6.585801    0.593451   -0.095177
     85          1           0        5.310241    3.177877    0.448243
     86          1           0       -5.045670   -2.359171   -0.397301
     87          1           0        4.867782    0.285102   -0.158913
     88          1           0       -4.411605    0.605321    0.035901
     89          1           0        3.188633    3.220535    1.445312
     90          1           0        1.619889    3.197266    0.799097
     91          1           0        3.129441    3.934226   -0.050723
     92          1           0       -2.439990   -2.768787    0.267120
     93          1           0       -2.712019   -2.776809   -1.468356
     94          1           0       -1.239841   -2.253707   -0.738470
     95          1           0        2.388111   -0.233411   -0.457795
     96          1           0       -1.892023    1.134783    0.359805
     97          1           0        0.307109    2.142262    0.149069
     98          1           0        0.133044   -0.791034   -0.741115
 ---------------------------------------------------------------------

 SCF Done:  E(RCAM-B3LYP) =  -1706.95369053     A.U. after   13 cycles

 Excitation energies and oscillator strengths:

 Excited State   1:      Singlet-A      3.0118 eV  411.66 nm  f=3.5834  <S**2>=0.000
     155 ->158         0.16055
     156 ->157         0.68380
 This state for optimization and/or second-order correction.
 Total Energy, E(TD-HF/TD-DFT) =  -1706.84300811
 Copying the excited state density for this state as the 1-particle RhoCI density.

 The electronic state is 1-A.
 Alpha  occ. eigenvalues --  -19.20935 -19.20481 -10.30603 -10.29426 -10.27786
 Alpha  occ. eigenvalues --  -10.27679 -10.27607 -10.27549 -10.27410 -10.27388
 Alpha  occ. eigenvalues --  -10.27003 -10.26783 -10.26603 -10.26561 -10.26502
 Alpha  occ. eigenvalues --  -10.26181 -10.26166 -10.26145 -10.25869 -10.25857
 Alpha  occ. eigenvalues --  -10.25789 -10.25711 -10.25674 -10.25633 -10.25633
 Alpha  occ. eigenvalues --  -10.25440 -10.25433 -10.25364 -10.25096 -10.25056
 Alpha  occ. eigenvalues --  -10.25004 -10.25002 -10.24974 -10.24915 -10.24910
 Alpha  occ. eigenvalues --  -10.24719 -10.24540 -10.24493 -10.24180 -10.24169
 Alpha  occ. eigenvalues --  -10.23889 -10.23275  -1.09104  -1.08608  -0.93842
 Alpha  occ. eigenvalues --   -0.93287  -0.92549  -0.91768  -0.90903  -0.90091
 Alpha  occ. eigenvalues --   -0.88339  -0.87690  -0.86597  -0.86099  -0.85116
 Alpha  occ. eigenvalues --   -0.83774  -0.82771  -0.80898  -0.80078  -0.78990
 Alpha  occ. eigenvalues --   -0.76823  -0.76521  -0.76372  -0.76114  -0.75939
 Alpha  occ. eigenvalues --   -0.75519  -0.75071  -0.74428  -0.74153  -0.70510
 Alpha  occ. eigenvalues --   -0.68729  -0.67424  -0.66134  -0.65096  -0.64016
 Alpha  occ. eigenvalues --   -0.63471  -0.62980  -0.61674  -0.61074  -0.60231
 Alpha  occ. eigenvalues --   -0.59033  -0.58810  -0.57997  -0.57602  -0.56302
 Alpha  occ. eigenvalues --   -0.55803  -0.55385  -0.54664  -0.54326  -0.53503
 Alpha  occ. eigenvalues --   -0.52775  -0.52356  -0.52087  -0.51921  -0.50902
 Alpha  occ. eigenvalues --   -0.50682  -0.50606  -0.50353  -0.50063  -0.49846
 Alpha  occ. eigenvalues --   -0.49566  -0.49097  -0.48934  -0.48744  -0.48310
 Alpha  occ. eigenvalues --   -0.47881  -0.47692  -0.47202  -0.46988  -0.46861
 Alpha  occ. eigenvalues --   -0.46270  -0.45240  -0.45107  -0.44914  -0.44626
 Alpha  occ. eigenvalues --   -0.44400  -0.44173  -0.43724  -0.43567  -0.43407
 Alpha  occ. eigenvalues --   -0.42809  -0.42718  -0.42277  -0.41932  -0.41814
 Alpha  occ. eigenvalues --   -0.41467  -0.41421  -0.40971  -0.40754  -0.40564
 Alpha  occ. eigenvalues --   -0.40527  -0.40300  -0.40102  -0.39869  -0.39228
 Alpha  occ. eigenvalues --   -0.39183  -0.38858  -0.38322  -0.38204  -0.38000
 Alpha  occ. eigenvalues --   -0.37346  -0.36671  -0.36034  -0.35817  -0.35212
 Alpha  occ. eigenvalues --   -0.34841  -0.34371  -0.33676  -0.32677  -0.32343
 Alpha  occ. eigenvalues --   -0.31314  -0.29482  -0.28477  -0.27229  -0.24991
 Alpha  occ. eigenvalues --   -0.21514
 Alpha virt. eigenvalues --   -0.03758   0.00605   0.03618   0.06923   0.08907
 Alpha virt. eigenvalues --    0.10348   0.10767   0.11318   0.11515   0.12023
 Alpha virt. eigenvalues --    0.12201   0.12637   0.12896   0.13348   0.14258

 Mulliken charges:
               1
     1  O   -0.580478
     2  O   -0.565324
     3  C    0.021970
     4  C   -0.009049
     5  C   -0.205169
     6  C   -0.178512
     7  C    0.217137
     8  C    0.155366
     9  C    0.021068
    10  C    0.058963
    11  C   -0.241276
    12  C   -0.193522
    13  C    0.094334
    14  C    0.017233
    15  C   -0.298643
    16  C   -0.307179
    17  C   -0.291018
    18  C   -0.313932
    19  C   -0.072170
    20  C   -0.150162
    21  C   -0.391561
    22  C   -0.345940
    23  C   -0.053749
    24  C   -0.069381
    25  C    0.029883
    26  C    0.097022
    27  C   -0.364980
    28  C   -0.362362
    29  C   -0.104428
    30  C   -0.123857
    31  C   -0.059053
    32  C   -0.073026
    33  C   -0.104306
    34  C   -0.112862
    35  C    0.052188
    36  C    0.105821
    37  C   -0.349501
    38  C   -0.373883
    39  C   -0.104796
    40  C   -0.117057
    41  C   -0.079095
    42  C   -0.084662
    43  H    0.103022
    44  H    0.057814
    45  H    0.068681
    46  H    0.106902
    47  H    0.083236
    48  H    0.072977
    49  H    0.108244
    50  H    0.107099
    51  H    0.113899
    52  H    0.108702
    53  H    0.071266
    54  H    0.101762
    55  H    0.113844
    56  H    0.104979
    57  H    0.092802
    58  H    0.085034
    59  H    0.103693
    60  H    0.100014
    61  H    0.102679
    62  H    0.117804
    63  H    0.097196
    64  H    0.073544
    65  H    0.050140
    66  H    0.074561
    67  H    0.100365
    68  H    0.114673
    69  H    0.107831
    70  H    0.106161
    71  H    0.124099
    72  H    0.110842
    73  H    0.308549
    74  H    0.295429
    75  H    0.087100
    76  H    0.076561
    77  H    0.118121
    78  H    0.085322
    79  H    0.136734
    80  H    0.123686
    81  H    0.108571
    82  H    0.109425
    83  H    0.077717
    84  H    0.065460
    85  H    0.087851
    86  H    0.071988
    87  H    0.084366
    88  H    0.084493
    89  H    0.138090
    90  H    0.096491
    91  H    0.121648
    92  H    0.114319
    93  H    0.122405
    94  H    0.118630
    95  H    0.067212
    96  H    0.077366
    97  H    0.063990
    98  H    0.084561
 Sum of Mulliken charges =  -0.00000

 Dipole moment (field-independent basis, Debye):
    X=              0.2950    Y=             -1.1058    Z=              2.6037  Tot=              2.8441
 Quadrupole moment (field-independent basis, Debye-Ang):
   XX=           -269.3860   YY=           -243.7991   ZZ=           -259.9327
   XY=             14.2484   XZ=             -8.0114   YZ=              1.4284

 Normal termination of Gaussian 16 at Thu Jul 11 04:11:33 2019.
