 Gaussian 16, Revision A.03,
 Gaussian 16:  ES64L-G16RevA.03 25-Dec-2016

 -------------------------------------
 # td=(NStates=1) CAM-B3LYP/6-31G(d,p)
 -------------------------------------

 --
 TD
 --
 Symbolic Z-matrix:
 Charge =  0 Multiplicity = 1

                         Standard orientation:
 ---------------------------------------------------------------------
 Center     Atomic      Atomic             Coordinates (Angstroms)
 Number     Number       Type             X           Y           Z
 ---------------------------------------------------------------------
      1          8           0       14.587006   -2.218586   -0.663743
      2          8           0      -14.732633    2.126552    0.634037
      3          6           0       11.444784   -1.272359    1.111175
      4          6           0      -12.361468   -0.941071    0.661954
      5          6           0       12.860954   -1.549839    0.930431
      6          6           0      -13.702348   -0.158210    0.566600
      7          6           0       13.253580   -1.973513   -0.545557
      8          6           0      -13.515877    1.321001    0.569820
      9          6           0       10.872089   -0.302844    0.082663
     10          6           0      -11.269156   -0.374967   -0.273960
     11          6           0       12.898405   -0.834094   -1.427555
     12          6           0      -12.670974    1.665715   -0.684065
     13          6           0       11.556665   -0.145844   -1.187858
     14          6           0      -11.394848    0.814820   -0.810967
     15          6           0       11.049269   -0.704493    2.435878
     16          6           0       10.554159   -2.539949    1.146874
     17          6           0      -11.750220   -0.874985    2.041077
     18          6           0      -12.655581   -2.422385    0.291421
     19          6           0        9.562263    0.429638    0.174529
     20          6           0       -9.929433   -1.132630   -0.433270
     21          6           0       11.176939    0.756234   -2.233130
     22          6           0      -10.609497    1.395800   -1.954094
     23          6           0        9.387191    1.693280   -0.077358
     24          6           0       -8.787994   -0.591025   -0.193418
     25          6           0        7.941526    2.291939    0.094610
     26          6           0       -7.496440   -1.325637   -0.432409
     27          6           0        8.042118    3.808182    0.390642
     28          6           0       -7.637999   -2.711104   -0.867599
     29          6           0        6.802533    1.608800    0.046945
     30          6           0       -6.373476   -0.683071   -0.276086
     31          6           0        5.547803    2.199896    0.187062
     32          6           0       -4.996098   -1.168615   -0.437217
     33          6           0        4.489068    1.409463    0.149906
     34          6           0       -3.925336   -0.401693   -0.078429
     35          6           0        3.070364    1.772263    0.276592
     36          6           0       -2.545557   -0.854639   -0.138256
     37          6           0        2.849713    3.158775    0.570427
     38          6           0       -2.373352   -2.110211   -0.776650
     39          6           0        2.135782    0.795770    0.088112
     40          6           0       -1.557801    0.013343    0.121554
     41          6           0        0.719848    0.964072    0.217316
     42          6           0       -0.154070   -0.078546    0.071756
     43          1           0       13.526915   -0.670085    1.198532
     44          1           0       13.059391   -2.463668    1.563899
     45          1           0      -14.182599   -0.335932    1.563403
     46          1           0      -14.393876   -0.472162   -0.209832
     47          1           0       12.881484   -2.957536   -0.875767
     48          1           0      -12.822066    1.502844    1.560246
     49          1           0       13.712584   -0.210765   -1.518265
     50          1           0       12.864851   -1.379289   -2.440155
     51          1           0      -13.450505    1.725521   -1.530827
     52          1           0      -12.504241    2.848709   -0.558101
     53          1           0       11.627266   -1.077328    3.345035
     54          1           0       10.041346   -0.342062    2.689209
     55          1           0       11.452102    0.254131    2.682621
     56          1           0       10.723607   -3.155370    0.244162
     57          1           0       11.057936   -3.137162    1.937470
     58          1           0        9.554551   -2.450167    1.304258
     59          1           0      -11.544128    0.018663    2.494640
     60          1           0      -10.851132   -1.511656    2.269650
     61          1           0      -12.340725   -1.406925    2.690056
     62          1           0      -13.380182   -3.010089    0.881041
     63          1           0      -11.747455   -2.867091    0.157420
     64          1           0      -13.099880   -2.450376   -0.660715
     65          1           0        8.913544   -0.309389    0.661691
     66          1           0       -9.933446   -2.248093   -0.669444
     67          1           0       10.082328    0.828285   -2.273442
     68          1           0       11.611910    1.857636   -2.034172
     69          1           0       11.665723    0.330321   -3.246291
     70          1           0      -11.261218    1.893716   -2.649210
     71          1           0       -9.903743    0.770708   -2.489055
     72          1           0      -10.223430    2.273066   -1.561020
     73          1           0       14.857142   -2.690188    0.108714
     74          1           0      -14.981858    2.254901    1.582141
     75          1           0        9.916866    2.449915   -0.613725
     76          1           0       -8.884746    0.583332    0.077387
     77          1           0        9.000365    4.192932   -0.330009
     78          1           0        7.100069    4.288153    0.017125
     79          1           0        8.320712    3.968269    1.474150
     80          1           0       -8.388917   -3.279278   -0.238478
     81          1           0       -8.115118   -2.779434   -1.807008
     82          1           0       -6.806405   -3.205611   -0.867126
     83          1           0        6.921951    0.550329   -0.180333
     84          1           0       -6.414290    0.354610   -0.090249
     85          1           0        5.354277    3.241424    0.330726
     86          1           0       -4.815008   -2.098209   -0.962863
     87          1           0        4.712821    0.333120   -0.139404
     88          1           0       -3.909543    0.395083    0.725434
     89          1           0        3.222202    3.438690    1.586533
     90          1           0        1.793074    3.566728    0.556119
     91          1           0        3.240199    3.830298   -0.157522
     92          1           0       -2.803127   -2.876058   -0.163368
     93          1           0       -2.705203   -2.300944   -1.740679
     94          1           0       -1.233238   -2.415027   -0.687428
     95          1           0        2.467742   -0.193431   -0.231485
     96          1           0       -1.729295    0.817325    0.549183
     97          1           0        0.387902    1.848066    0.596182
     98          1           0        0.474362   -1.070782   -0.080208
 ---------------------------------------------------------------------

 SCF Done:  E(RCAM-B3LYP) =  -1707.00380328     A.U. after   14 cycles

 Excitation energies and oscillator strengths:

 Excited State   1:      Singlet-A      2.9687 eV  417.64 nm  f=3.4863  <S**2>=0.000
     155 ->158         0.15024
     156 ->157         0.68315
 This state for optimization and/or second-order correction.
 Total Energy, E(TD-HF/TD-DFT) =  -1706.89470542
 Copying the excited state density for this state as the 1-particle RhoCI density.

 The electronic state is 1-A.
 Alpha  occ. eigenvalues --  -19.21425 -19.20659 -10.30950 -10.29902 -10.27652
 Alpha  occ. eigenvalues --  -10.27623 -10.27430 -10.26920 -10.26767 -10.26541
 Alpha  occ. eigenvalues --  -10.26537 -10.26457 -10.26433 -10.26399 -10.26311
 Alpha  occ. eigenvalues --  -10.26276 -10.26251 -10.26194 -10.26169 -10.26151
 Alpha  occ. eigenvalues --  -10.26080 -10.26018 -10.25962 -10.25924 -10.25782
 Alpha  occ. eigenvalues --  -10.25633 -10.25561 -10.25492 -10.25439 -10.24951
 Alpha  occ. eigenvalues --  -10.24838 -10.24681 -10.24472 -10.24375 -10.24237
 Alpha  occ. eigenvalues --  -10.24157 -10.24134 -10.24105 -10.24037 -10.23422
 Alpha  occ. eigenvalues --  -10.23383 -10.22773  -1.12047  -1.07532  -0.93900
 Alpha  occ. eigenvalues --   -0.93506  -0.92905  -0.92255  -0.91342  -0.90149
 Alpha  occ. eigenvalues --   -0.88092  -0.87399  -0.86962  -0.85930  -0.85024
 Alpha  occ. eigenvalues --   -0.83181  -0.82410  -0.80876  -0.80261  -0.79590
 Alpha  occ. eigenvalues --   -0.77577  -0.77494  -0.76732  -0.76490  -0.76407
 Alpha  occ. eigenvalues --   -0.75935  -0.74861  -0.74612  -0.74447  -0.70504
 Alpha  occ. eigenvalues --   -0.68480  -0.66631  -0.65321  -0.64791  -0.64366
 Alpha  occ. eigenvalues --   -0.63804  -0.62673  -0.62279  -0.60794  -0.60305
 Alpha  occ. eigenvalues --   -0.59524  -0.58537  -0.58426  -0.58072  -0.57264
 Alpha  occ. eigenvalues --   -0.56804  -0.54860  -0.54671  -0.54574  -0.54184
 Alpha  occ. eigenvalues --   -0.53527  -0.52900  -0.52476  -0.51896  -0.51166
 Alpha  occ. eigenvalues --   -0.50998  -0.50537  -0.50368  -0.50198  -0.49902
 Alpha  occ. eigenvalues --   -0.49700  -0.49259  -0.48859  -0.48799  -0.48547
 Alpha  occ. eigenvalues --   -0.48008  -0.47863  -0.47799  -0.46981  -0.46347
 Alpha  occ. eigenvalues --   -0.46126  -0.45904  -0.45539  -0.45390  -0.45166
 Alpha  occ. eigenvalues --   -0.45024  -0.44546  -0.44239  -0.43640  -0.43292
 Alpha  occ. eigenvalues --   -0.43011  -0.42949  -0.42636  -0.42244  -0.41933
 Alpha  occ. eigenvalues --   -0.41697  -0.41692  -0.41618  -0.41050  -0.41020
 Alpha  occ. eigenvalues --   -0.40608  -0.39989  -0.39868  -0.39829  -0.39398
 Alpha  occ. eigenvalues --   -0.39088  -0.39010  -0.38449  -0.38131  -0.37595
 Alpha  occ. eigenvalues --   -0.37258  -0.36245  -0.36142  -0.35718  -0.35429
 Alpha  occ. eigenvalues --   -0.35213  -0.34400  -0.33985  -0.32807  -0.31723
 Alpha  occ. eigenvalues --   -0.31665  -0.29679  -0.27933  -0.26125  -0.24559
 Alpha  occ. eigenvalues --   -0.21194
 Alpha virt. eigenvalues --   -0.03642   0.00861   0.03333   0.05946   0.07914
 Alpha virt. eigenvalues --    0.09744   0.11119   0.11381   0.11942   0.12444
 Alpha virt. eigenvalues --    0.12786   0.13289   0.13661   0.13846   0.14256

 Mulliken charges:
               1
     1  O   -0.549833
     2  O   -0.572515
     3  C    0.009731
     4  C   -0.016756
     5  C   -0.230872
     6  C   -0.162022
     7  C    0.175819
     8  C    0.152228
     9  C    0.042294
    10  C    0.058608
    11  C   -0.217278
    12  C   -0.229631
    13  C    0.060798
    14  C    0.041467
    15  C   -0.327780
    16  C   -0.288418
    17  C   -0.309749
    18  C   -0.315088
    19  C   -0.124477
    20  C   -0.141210
    21  C   -0.359815
    22  C   -0.353270
    23  C   -0.067059
    24  C   -0.072270
    25  C    0.013407
    26  C    0.121478
    27  C   -0.344519
    28  C   -0.376252
    29  C   -0.083780
    30  C   -0.129139
    31  C   -0.065191
    32  C   -0.109695
    33  C   -0.129912
    34  C   -0.107417
    35  C    0.141122
    36  C    0.115742
    37  C   -0.407209
    38  C   -0.392077
    39  C   -0.137925
    40  C   -0.075800
    41  C   -0.066263
    42  C   -0.098073
    43  H    0.108106
    44  H    0.072537
    45  H    0.076942
    46  H    0.103146
    47  H    0.080404
    48  H    0.049000
    49  H    0.129711
    50  H    0.092607
    51  H    0.114549
    52  H    0.084222
    53  H    0.086207
    54  H    0.116517
    55  H    0.097243
    56  H    0.092341
    57  H    0.094864
    58  H    0.114422
    59  H    0.112504
    60  H    0.099620
    61  H    0.101027
    62  H    0.102714
    63  H    0.103322
    64  H    0.108670
    65  H    0.095615
    66  H    0.077080
    67  H    0.127535
    68  H    0.101367
    69  H    0.086075
    70  H    0.114752
    71  H    0.116652
    72  H    0.118146
    73  H    0.301147
    74  H    0.313856
    75  H    0.103408
    76  H    0.085232
    77  H    0.071202
    78  H    0.113754
    79  H    0.131376
    80  H    0.110572
    81  H    0.133913
    82  H    0.107917
    83  H    0.081597
    84  H    0.083978
    85  H    0.085532
    86  H    0.090693
    87  H    0.069509
    88  H    0.084453
    89  H    0.124867
    90  H    0.102556
    91  H    0.131615
    92  H    0.121870
    93  H    0.136491
    94  H    0.085699
    95  H    0.080629
    96  H    0.052734
    97  H    0.077045
    98  H    0.069059
 Sum of Mulliken charges =  -0.00000

 Dipole moment (field-independent basis, Debye):
    X=              0.6311    Y=             -0.8564    Z=              2.3540  Tot=              2.5832
 Quadrupole moment (field-independent basis, Debye-Ang):
   XX=           -278.2032   YY=           -243.8662   ZZ=           -258.5954
   XY=             11.6774   XZ=              3.1573   YZ=              3.6694

 Normal termination of Gaussian 16 at Wed Jul 10 05:23:09 2019.
