 Gaussian 16, Revision A.03,
 Gaussian 16:  ES64L-G16RevA.03 25-Dec-2016

 -------------------------------------
 # td=(NStates=1) CAM-B3LYP/6-31G(d,p)
 -------------------------------------

 --
 TD
 --
 Symbolic Z-matrix:
 Charge =  0 Multiplicity = 1

                         Standard orientation:
 ---------------------------------------------------------------------
 Center     Atomic      Atomic             Coordinates (Angstroms)
 Number     Number       Type             X           Y           Z
 ---------------------------------------------------------------------
      1          8           0       14.749262   -2.428663   -0.294254
      2          8           0      -14.730338    2.050216    0.674666
      3          6           0       11.417104   -1.128039    1.199250
      4          6           0      -12.261253   -0.859029    0.913574
      5          6           0       13.011063   -1.434096    1.087911
      6          6           0      -13.628709   -0.163451    0.854703
      7          6           0       13.349943   -1.988155   -0.324232
      8          6           0      -13.472223    1.337720    0.707072
      9          6           0       10.937121   -0.315415   -0.000976
     10          6           0      -11.257351   -0.338207   -0.228788
     11          6           0       12.993623   -0.892959   -1.247211
     12          6           0      -12.779948    1.652808   -0.605770
     13          6           0       11.572255   -0.305678   -1.141863
     14          6           0      -11.577560    0.759447   -0.821404
     15          6           0       11.206027   -0.282596    2.497708
     16          6           0       10.597956   -2.407631    1.371985
     17          6           0      -11.624073   -0.715380    2.341021
     18          6           0      -12.556131   -2.342460    0.745439
     19          6           0        9.601775    0.374592    0.241161
     20          6           0      -10.106741   -1.163096   -0.434068
     21          6           0       11.173364    0.433839   -2.428250
     22          6           0      -10.713461    1.239345   -2.054584
     23          6           0        9.356620    1.654998   -0.088984
     24          6           0       -8.818177   -0.695079   -0.279554
     25          6           0        8.069029    2.342220    0.156036
     26          6           0       -7.540126   -1.428602   -0.465428
     27          6           0        8.025454    3.828721    0.377435
     28          6           0       -7.700332   -2.874215   -0.795691
     29          6           0        6.878857    1.620238   -0.054436
     30          6           0       -6.398446   -0.644999   -0.365934
     31          6           0        5.567255    2.073528    0.182212
     32          6           0       -5.086758   -1.175020   -0.455956
     33          6           0        4.465598    1.387219   -0.180550
     34          6           0       -4.046296   -0.281467   -0.408120
     35          6           0        3.125376    1.832225    0.057686
     36          6           0       -2.676172   -0.752838   -0.547584
     37          6           0        2.789091    3.105824    0.794008
     38          6           0       -2.342154   -2.172487   -0.938266
     39          6           0        2.099492    0.906839   -0.242575
     40          6           0       -1.682239    0.117736   -0.405578
     41          6           0        0.694155    0.987026   -0.012228
     42          6           0       -0.222219    0.016239   -0.430376
     43          1           0       13.499684   -0.483935    1.202022
     44          1           0       13.193883   -2.023651    1.816127
     45          1           0      -14.220789   -0.375591    1.752568
     46          1           0      -14.134746   -0.502251    0.068942
     47          1           0       12.599032   -2.920582   -0.596731
     48          1           0      -13.005724    1.863786    1.472830
     49          1           0       13.677858   -0.120670   -0.949921
     50          1           0       13.212598   -1.145492   -2.328682
     51          1           0      -13.541257    1.622358   -1.470377
     52          1           0      -12.472034    2.569722   -0.457812
     53          1           0       11.556092   -0.772459    3.450898
     54          1           0       10.253884   -0.164612    2.644918
     55          1           0       11.614690    0.510065    2.543703
     56          1           0       10.488092   -3.114415    0.502780
     57          1           0       11.051918   -2.950587    2.106045
     58          1           0        9.385056   -2.293935    1.720267
     59          1           0      -11.496456    0.541960    2.402582
     60          1           0      -10.687127   -1.440674    2.433546
     61          1           0      -12.174756   -1.181779    3.282163
     62          1           0      -13.494898   -2.763442    1.247075
     63          1           0      -11.590995   -2.879650    0.880472
     64          1           0      -12.934015   -2.352355   -0.320706
     65          1           0        8.761924   -0.020283    0.823432
     66          1           0      -10.126971   -2.264830   -0.563250
     67          1           0       10.082653    0.647764   -2.380120
     68          1           0       11.585112    1.590082   -2.429885
     69          1           0       11.280434   -0.042031   -3.446673
     70          1           0      -11.286030    1.657277   -2.827177
     71          1           0       -9.957548    0.512065   -2.390125
     72          1           0      -10.128513    2.148088   -1.708737
     73          1           0       14.808872   -3.566949   -0.023482
     74          1           0      -15.110517    1.634221    1.511244
     75          1           0       10.144163    2.438415   -0.438992
     76          1           0       -8.534507    0.482128   -0.084510
     77          1           0        8.542894    4.440274   -0.412059
     78          1           0        6.970629    4.262129    0.303725
     79          1           0        8.520275    4.004093    1.267241
     80          1           0       -8.493293   -3.208067   -0.132171
     81          1           0       -8.012625   -2.832229   -1.827950
     82          1           0       -6.771312   -3.473281   -0.787865
     83          1           0        7.066922    0.577784   -0.122169
     84          1           0       -6.514166    0.342443   -0.159715
     85          1           0        5.420982    2.905595    0.943483
     86          1           0       -4.755826   -2.184325   -0.801692
     87          1           0        4.469240    0.378881   -0.530778
     88          1           0       -4.229929    0.685029    0.074359
     89          1           0        3.086764    3.055237    1.881193
     90          1           0        1.769256    3.180158    0.629376
     91          1           0        3.420749    3.934211    0.187069
     92          1           0       -2.520925   -2.888399    0.004165
     93          1           0       -2.865547   -2.583367   -1.768341
     94          1           0       -1.242219   -2.317896   -1.354875
     95          1           0        2.489243   -0.033192   -0.826237
     96          1           0       -1.950756    1.087389   -0.086930
     97          1           0        0.349554    1.833777    0.630944
     98          1           0        0.154904   -0.834417   -1.011276
 ---------------------------------------------------------------------

 SCF Done:  E(RCAM-B3LYP) =  -1706.97681378     A.U. after   14 cycles

 Excitation energies and oscillator strengths:

 Excited State   1:      Singlet-A      2.5872 eV  479.21 nm  f=3.6178  <S**2>=0.000
     155 ->158        -0.17009
     156 ->157         0.68268
 This state for optimization and/or second-order correction.
 Total Energy, E(TD-HF/TD-DFT) =  -1706.88173462
 Copying the excited state density for this state as the 1-particle RhoCI density.

 The electronic state is 1-A.
 Alpha  occ. eigenvalues --  -19.22373 -19.20787 -10.31360 -10.29035 -10.27701
 Alpha  occ. eigenvalues --  -10.27643 -10.27578 -10.27568 -10.27513 -10.27479
 Alpha  occ. eigenvalues --  -10.27335 -10.27286 -10.27257 -10.27214 -10.27197
 Alpha  occ. eigenvalues --  -10.27114 -10.26712 -10.26680 -10.26568 -10.26542
 Alpha  occ. eigenvalues --  -10.26492 -10.26402 -10.26360 -10.26339 -10.26323
 Alpha  occ. eigenvalues --  -10.25989 -10.25947 -10.25869 -10.25813 -10.25707
 Alpha  occ. eigenvalues --  -10.25631 -10.25466 -10.25466 -10.25356 -10.25311
 Alpha  occ. eigenvalues --  -10.25088 -10.25025 -10.24566 -10.24464 -10.24185
 Alpha  occ. eigenvalues --  -10.23506 -10.21240  -1.08324  -1.04965  -0.93714
 Alpha  occ. eigenvalues --   -0.93214  -0.92218  -0.91554  -0.90474  -0.89679
 Alpha  occ. eigenvalues --   -0.87176  -0.86707  -0.86512  -0.85694  -0.84671
 Alpha  occ. eigenvalues --   -0.83596  -0.82171  -0.80103  -0.79485  -0.77935
 Alpha  occ. eigenvalues --   -0.77740  -0.77081  -0.76456  -0.76358  -0.75602
 Alpha  occ. eigenvalues --   -0.75426  -0.75263  -0.74088  -0.73674  -0.70538
 Alpha  occ. eigenvalues --   -0.68541  -0.66913  -0.65692  -0.64501  -0.64267
 Alpha  occ. eigenvalues --   -0.63115  -0.62267  -0.61509  -0.60814  -0.59515
 Alpha  occ. eigenvalues --   -0.58957  -0.57827  -0.57647  -0.56986  -0.56540
 Alpha  occ. eigenvalues --   -0.55172  -0.54859  -0.54691  -0.54129  -0.53648
 Alpha  occ. eigenvalues --   -0.53258  -0.52854  -0.51790  -0.51557  -0.51056
 Alpha  occ. eigenvalues --   -0.50461  -0.50357  -0.49965  -0.49771  -0.49371
 Alpha  occ. eigenvalues --   -0.48974  -0.48884  -0.48326  -0.48192  -0.47997
 Alpha  occ. eigenvalues --   -0.47849  -0.47440  -0.47354  -0.46635  -0.46523
 Alpha  occ. eigenvalues --   -0.46037  -0.45889  -0.45748  -0.44858  -0.44723
 Alpha  occ. eigenvalues --   -0.44203  -0.44105  -0.43861  -0.43665  -0.43328
 Alpha  occ. eigenvalues --   -0.43093  -0.42883  -0.42825  -0.42500  -0.42454
 Alpha  occ. eigenvalues --   -0.42166  -0.41722  -0.41176  -0.41111  -0.41048
 Alpha  occ. eigenvalues --   -0.40726  -0.40515  -0.40291  -0.40224  -0.39572
 Alpha  occ. eigenvalues --   -0.39262  -0.39148  -0.38820  -0.38260  -0.38094
 Alpha  occ. eigenvalues --   -0.36966  -0.36298  -0.36240  -0.35886  -0.35489
 Alpha  occ. eigenvalues --   -0.35255  -0.34536  -0.33762  -0.32365  -0.31900
 Alpha  occ. eigenvalues --   -0.31069  -0.30205  -0.29024  -0.26975  -0.23927
 Alpha  occ. eigenvalues --   -0.20517
 Alpha virt. eigenvalues --   -0.04777  -0.00660   0.02784   0.06211   0.06932
 Alpha virt. eigenvalues --    0.08096   0.09766   0.11125   0.11536   0.11879
 Alpha virt. eigenvalues --    0.12431   0.12690   0.12778   0.13089   0.13627

 Mulliken charges:
               1
     1  O   -0.574953
     2  O   -0.572600
     3  C   -0.056572
     4  C   -0.028107
     5  C   -0.149954
     6  C   -0.179114
     7  C    0.169594
     8  C    0.138154
     9  C    0.095141
    10  C    0.105119
    11  C   -0.211820
    12  C   -0.201216
    13  C    0.043924
    14  C    0.025568
    15  C   -0.274047
    16  C   -0.289918
    17  C   -0.272017
    18  C   -0.303494
    19  C   -0.145712
    20  C   -0.190168
    21  C   -0.364438
    22  C   -0.361244
    23  C   -0.083150
    24  C   -0.076533
    25  C    0.051304
    26  C    0.102948
    27  C   -0.374240
    28  C   -0.371367
    29  C   -0.105880
    30  C   -0.121460
    31  C   -0.119641
    32  C   -0.081446
    33  C   -0.081782
    34  C   -0.115551
    35  C    0.089865
    36  C    0.139130
    37  C   -0.350565
    38  C   -0.384599
    39  C   -0.130737
    40  C   -0.140553
    41  C   -0.094431
    42  C   -0.090215
    43  H    0.104754
    44  H    0.081651
    45  H    0.078518
    46  H    0.110103
    47  H    0.051439
    48  H    0.092182
    49  H    0.121028
    50  H    0.093867
    51  H    0.118796
    52  H    0.122143
    53  H    0.075605
    54  H    0.107899
    55  H    0.102685
    56  H    0.100203
    57  H    0.113472
    58  H    0.067048
    59  H    0.072447
    60  H    0.090914
    61  H    0.087557
    62  H    0.100209
    63  H    0.094228
    64  H    0.092597
    65  H    0.102382
    66  H    0.096098
    67  H    0.123384
    68  H    0.094232
    69  H    0.110603
    70  H    0.112211
    71  H    0.118800
    72  H    0.096898
    73  H    0.308961
    74  H    0.298562
    75  H    0.082866
    76  H    0.071110
    77  H    0.111723
    78  H    0.110369
    79  H    0.130467
    80  H    0.123179
    81  H    0.139846
    82  H    0.111188
    83  H    0.079954
    84  H    0.081869
    85  H    0.097659
    86  H    0.088920
    87  H    0.081903
    88  H    0.090860
    89  H    0.124896
    90  H    0.116917
    91  H    0.101738
    92  H    0.110589
    93  H    0.127582
    94  H    0.101085
    95  H    0.072584
    96  H    0.069436
    97  H    0.089967
    98  H    0.078595
 Sum of Mulliken charges =  -0.00000

 Dipole moment (field-independent basis, Debye):
    X=             -0.2005    Y=             -2.2307    Z=              1.5421  Tot=              2.7192
 Quadrupole moment (field-independent basis, Debye-Ang):
   XX=           -297.6764   YY=           -243.1385   ZZ=           -258.9544
   XY=             11.6922   XZ=             -0.9933   YZ=              4.0323

 Normal termination of Gaussian 16 at Mon Jul  1 08:52:48 2019.
