 Gaussian 16, Revision A.03,
 Gaussian 16:  ES64L-G16RevA.03 25-Dec-2016

 -------------------------------------
 # td=(NStates=1) CAM-B3LYP/6-31G(d,p)
 -------------------------------------

 --
 TD
 --
 Symbolic Z-matrix:
 Charge =  0 Multiplicity = 1

                         Standard orientation:
 ---------------------------------------------------------------------
 Center     Atomic      Atomic             Coordinates (Angstroms)
 Number     Number       Type             X           Y           Z
 ---------------------------------------------------------------------
      1          8           0       14.718588   -2.268329   -0.333242
      2          8           0      -14.913450    1.864265    0.448665
      3          6           0       11.445799   -1.019310    1.117634
      4          6           0      -12.240284   -0.915816    0.833895
      5          6           0       12.957130   -1.251690    1.111709
      6          6           0      -13.624012   -0.155637    0.776209
      7          6           0       13.337071   -1.938064   -0.235946
      8          6           0      -13.532551    1.427741    0.642366
      9          6           0       10.893822   -0.324459   -0.093832
     10          6           0      -11.384361   -0.270388   -0.203238
     11          6           0       12.964752   -0.988534   -1.478286
     12          6           0      -12.846627    1.672047   -0.653409
     13          6           0       11.539109   -0.384254   -1.301247
     14          6           0      -11.542137    0.836143   -0.868575
     15          6           0       11.308491   -0.070271    2.365225
     16          6           0       10.651895   -2.241634    1.421367
     17          6           0      -11.693266   -0.698665    2.216876
     18          6           0      -12.555310   -2.314735    0.515034
     19          6           0        9.622159    0.348826    0.056053
     20          6           0      -10.036138   -1.043418   -0.343883
     21          6           0       11.138443    0.230331   -2.550477
     22          6           0      -10.732957    1.431679   -1.959261
     23          6           0        9.281861    1.617247   -0.215029
     24          6           0       -8.908040   -0.481880   -0.260878
     25          6           0        8.042437    2.344775    0.076769
     26          6           0       -7.515653   -1.227389   -0.433868
     27          6           0        8.279973    3.838670    0.135627
     28          6           0       -7.712160   -2.800087   -0.789580
     29          6           0        6.932409    1.558450    0.117134
     30          6           0       -6.434530   -0.678222   -0.231841
     31          6           0        5.594595    2.068726    0.268277
     32          6           0       -5.078530   -1.203754   -0.453246
     33          6           0        4.468520    1.370277    0.204592
     34          6           0       -3.968269   -0.374084   -0.269776
     35          6           0        3.076795    1.615841    0.376640
     36          6           0       -2.652322   -0.830424   -0.296143
     37          6           0        2.739117    3.000034    0.694627
     38          6           0       -2.340272   -2.246095   -0.729114
     39          6           0        2.186731    0.689526    0.061713
     40          6           0       -1.605704    0.084438   -0.152739
     41          6           0        0.727598    0.824506    0.101145
     42          6           0       -0.176292   -0.100750   -0.193582
     43          1           0       13.502401   -0.245569    1.528640
     44          1           0       13.263575   -1.850085    1.973992
     45          1           0      -14.200358   -0.576340    1.563549
     46          1           0      -14.078925   -0.647547   -0.218438
     47          1           0       12.641185   -2.691374   -0.238081
     48          1           0      -12.985525    2.088101    1.252191
     49          1           0       13.684744   -0.173731   -1.708049
     50          1           0       12.994124   -1.675758   -2.308172
     51          1           0      -13.504982    1.410460   -1.474889
     52          1           0      -12.641414    2.743225   -0.709236
     53          1           0       11.621544   -0.640429    3.379945
     54          1           0       10.402445    0.268793    2.587184
     55          1           0       11.917250    0.827120    2.271987
     56          1           0       10.396284   -2.888873    0.562038
     57          1           0       11.076429   -3.050503    2.094218
     58          1           0        9.625975   -1.984479    1.613692
     59          1           0      -11.590923    0.258267    2.435120
     60          1           0      -10.744084   -1.064094    2.097640
     61          1           0      -12.273538   -1.256041    3.032325
     62          1           0      -13.327816   -2.732205    1.173056
     63          1           0      -11.734418   -3.053401    0.778384
     64          1           0      -12.675511   -2.678316   -0.624470
     65          1           0        8.847260   -0.084470    0.966565
     66          1           0       -9.944820   -2.078433   -0.377261
     67          1           0        9.986904    0.320529   -2.687998
     68          1           0       11.719347    0.993090   -2.598169
     69          1           0       11.334001   -0.383513   -3.440619
     70          1           0      -11.402733    1.873738   -2.603871
     71          1           0      -10.074508    0.671586   -2.361328
     72          1           0      -10.101845    2.350426   -1.676427
     73          1           0       14.910485   -2.919590    0.258089
     74          1           0      -15.448708    1.964760    1.337898
     75          1           0       10.102966    2.187983   -0.591853
     76          1           0       -8.849192    0.516218   -0.345912
     77          1           0        9.089830    4.115511   -0.658880
     78          1           0        7.302486    4.260507   -0.235737
     79          1           0        8.391590    4.226684    1.027362
     80          1           0       -8.195079   -3.344952    0.047404
     81          1           0       -8.267260   -3.055182   -1.651414
     82          1           0       -6.686679   -3.303756   -1.159586
     83          1           0        7.176713    0.483501   -0.279125
     84          1           0       -6.470467    0.322952    0.089194
     85          1           0        5.643409    3.164152    0.544266
     86          1           0       -5.009562   -2.108968   -0.860789
     87          1           0        4.649703    0.176334   -0.070233
     88          1           0       -4.111996    0.727945   -0.198123
     89          1           0        3.297151    3.132288    1.502795
     90          1           0        1.692943    3.048775    0.785966
     91          1           0        3.139705    3.624106   -0.124535
     92          1           0       -3.011947   -3.054063   -0.156321
     93          1           0       -3.006553   -2.435855   -1.687263
     94          1           0       -1.349401   -2.400787   -0.787453
     95          1           0        2.620199   -0.154785   -0.308484
     96          1           0       -1.957905    0.976958    0.224035
     97          1           0        0.382605    1.762411    0.342724
     98          1           0        0.136048   -1.128989   -0.524565
 ---------------------------------------------------------------------

 SCF Done:  E(RCAM-B3LYP) =  -1706.95766255     A.U. after   14 cycles

 Excitation energies and oscillator strengths:

 Excited State   1:      Singlet-A      2.9045 eV  426.87 nm  f=3.4092  <S**2>=0.000
     155 ->158        -0.19281
     156 ->157         0.67468
 This state for optimization and/or second-order correction.
 Total Energy, E(TD-HF/TD-DFT) =  -1706.85092399
 Copying the excited state density for this state as the 1-particle RhoCI density.

 The electronic state is 1-A.
 Alpha  occ. eigenvalues --  -19.20846 -19.20645 -10.30314 -10.30193 -10.27248
 Alpha  occ. eigenvalues --  -10.27146 -10.26971 -10.26841 -10.26784 -10.26714
 Alpha  occ. eigenvalues --  -10.26689 -10.26673 -10.26646 -10.26576 -10.26448
 Alpha  occ. eigenvalues --  -10.26431 -10.26332 -10.26247 -10.26110 -10.26053
 Alpha  occ. eigenvalues --  -10.25957 -10.25924 -10.25923 -10.25891 -10.25721
 Alpha  occ. eigenvalues --  -10.25679 -10.25625 -10.25368 -10.25358 -10.25288
 Alpha  occ. eigenvalues --  -10.25127 -10.24972 -10.24657 -10.24429 -10.24302
 Alpha  occ. eigenvalues --  -10.24155 -10.24007 -10.23959 -10.23763 -10.23711
 Alpha  occ. eigenvalues --  -10.23577 -10.22760  -1.10292  -1.06217  -0.94063
 Alpha  occ. eigenvalues --   -0.93778  -0.93043  -0.91948  -0.90861  -0.90238
 Alpha  occ. eigenvalues --   -0.87957  -0.87672  -0.87377  -0.85835  -0.84965
 Alpha  occ. eigenvalues --   -0.83233  -0.81907  -0.80669  -0.80350  -0.78758
 Alpha  occ. eigenvalues --   -0.77439  -0.77385  -0.76715  -0.76645  -0.76317
 Alpha  occ. eigenvalues --   -0.76274  -0.75134  -0.74649  -0.74284  -0.71181
 Alpha  occ. eigenvalues --   -0.68816  -0.67205  -0.66426  -0.65125  -0.64743
 Alpha  occ. eigenvalues --   -0.64073  -0.62841  -0.62487  -0.61221  -0.59758
 Alpha  occ. eigenvalues --   -0.59667  -0.58534  -0.58273  -0.57697  -0.56752
 Alpha  occ. eigenvalues --   -0.56006  -0.55283  -0.54771  -0.54436  -0.54327
 Alpha  occ. eigenvalues --   -0.53112  -0.52741  -0.52296  -0.52214  -0.51577
 Alpha  occ. eigenvalues --   -0.50657  -0.50390  -0.50275  -0.50186  -0.50083
 Alpha  occ. eigenvalues --   -0.49422  -0.49160  -0.48841  -0.48287  -0.48087
 Alpha  occ. eigenvalues --   -0.47859  -0.47663  -0.47638  -0.47271  -0.46986
 Alpha  occ. eigenvalues --   -0.46442  -0.45822  -0.45750  -0.45452  -0.45304
 Alpha  occ. eigenvalues --   -0.44522  -0.44167  -0.43942  -0.43771  -0.43613
 Alpha  occ. eigenvalues --   -0.43437  -0.43095  -0.42524  -0.42509  -0.41941
 Alpha  occ. eigenvalues --   -0.41508  -0.41326  -0.41304  -0.40733  -0.40527
 Alpha  occ. eigenvalues --   -0.40360  -0.39894  -0.39712  -0.39586  -0.39385
 Alpha  occ. eigenvalues --   -0.39014  -0.38970  -0.38672  -0.37929  -0.37645
 Alpha  occ. eigenvalues --   -0.37144  -0.37063  -0.36577  -0.35802  -0.35750
 Alpha  occ. eigenvalues --   -0.34934  -0.34395  -0.33896  -0.32863  -0.31463
 Alpha  occ. eigenvalues --   -0.31054  -0.30601  -0.28547  -0.27369  -0.24417
 Alpha  occ. eigenvalues --   -0.21384
 Alpha virt. eigenvalues --   -0.04041  -0.00161   0.04110   0.06322   0.08602
 Alpha virt. eigenvalues --    0.10340   0.11662   0.11996   0.12391   0.12639
 Alpha virt. eigenvalues --    0.13177   0.13488   0.13612   0.14339   0.14631

 Mulliken charges:
               1
     1  O   -0.549975
     2  O   -0.578340
     3  C   -0.027090
     4  C   -0.012633
     5  C   -0.184573
     6  C   -0.176575
     7  C    0.165038
     8  C    0.164218
     9  C    0.093518
    10  C    0.065032
    11  C   -0.217335
    12  C   -0.229954
    13  C    0.016785
    14  C    0.039943
    15  C   -0.297727
    16  C   -0.307250
    17  C   -0.276577
    18  C   -0.315460
    19  C   -0.140687
    20  C   -0.131921
    21  C   -0.352077
    22  C   -0.359652
    23  C   -0.102348
    24  C   -0.067075
    25  C    0.096988
    26  C    0.087209
    27  C   -0.366016
    28  C   -0.385423
    29  C   -0.128792
    30  C   -0.105527
    31  C   -0.104254
    32  C   -0.079816
    33  C   -0.117254
    34  C   -0.125625
    35  C    0.119424
    36  C    0.142691
    37  C   -0.348034
    38  C   -0.361643
    39  C   -0.113488
    40  C   -0.142979
    41  C   -0.086404
    42  C   -0.073718
    43  H    0.075914
    44  H    0.081431
    45  H    0.077111
    46  H    0.086993
    47  H    0.097109
    48  H    0.095661
    49  H    0.118263
    50  H    0.112301
    51  H    0.129062
    52  H    0.093720
    53  H    0.069985
    54  H    0.106567
    55  H    0.102080
    56  H    0.095753
    57  H    0.098514
    58  H    0.109678
    59  H    0.108525
    60  H    0.110637
    61  H    0.086653
    62  H    0.104388
    63  H    0.088214
    64  H    0.098654
    65  H    0.068058
    66  H    0.070046
    67  H    0.108949
    68  H    0.132349
    69  H    0.103986
    70  H    0.120455
    71  H    0.123570
    72  H    0.102674
    73  H    0.294700
    74  H    0.304472
    75  H    0.078444
    76  H    0.073069
    77  H    0.116952
    78  H    0.107729
    79  H    0.144195
    80  H    0.126125
    81  H    0.128567
    82  H    0.082704
    83  H    0.099735
    84  H    0.072744
    85  H    0.075824
    86  H    0.068347
    87  H    0.054189
    88  H    0.089453
    89  H    0.129512
    90  H    0.104713
    91  H    0.122957
    92  H    0.106073
    93  H    0.108518
    94  H    0.111502
    95  H    0.069771
    96  H    0.072212
    97  H    0.077769
    98  H    0.077803
 Sum of Mulliken charges =  -0.00000

 Dipole moment (field-independent basis, Debye):
    X=             -0.1313    Y=             -0.0723    Z=              1.3718  Tot=              1.3799
 Quadrupole moment (field-independent basis, Debye-Ang):
   XX=           -280.3426   YY=           -238.9391   ZZ=           -258.7515
   XY=              1.9526   XZ=             -9.8708   YZ=              2.9065

 Normal termination of Gaussian 16 at Tue Jul  2 03:57:19 2019.
