 Gaussian 16, Revision A.03,
 Gaussian 16:  ES64L-G16RevA.03 25-Dec-2016

 -------------------------------------
 # td=(NStates=1) CAM-B3LYP/6-31G(d,p)
 -------------------------------------

 --
 TD
 --
 Symbolic Z-matrix:
 Charge =  0 Multiplicity = 1

                         Standard orientation:
 ---------------------------------------------------------------------
 Center     Atomic      Atomic             Coordinates (Angstroms)
 Number     Number       Type             X           Y           Z
 ---------------------------------------------------------------------
      1          8           0       14.739409   -2.144964   -0.314931
      2          8           0      -14.680008    1.965690    0.860393
      3          6           0       11.462228   -1.071910    1.413802
      4          6           0      -12.198064   -0.895433    1.027480
      5          6           0       13.026553   -1.339275    1.167153
      6          6           0      -13.634155   -0.159307    1.068564
      7          6           0       13.308772   -1.899603   -0.128386
      8          6           0      -13.401246    1.335301    0.930934
      9          6           0       11.010882   -0.444257    0.075030
     10          6           0      -11.305621   -0.331681   -0.018608
     11          6           0       12.979631   -1.036558   -1.333799
     12          6           0      -12.816549    1.672822   -0.412603
     13          6           0       11.610338   -0.411172   -1.084251
     14          6           0      -11.613408    0.744828   -0.691410
     15          6           0       11.391967   -0.075054    2.549013
     16          6           0       10.660928   -2.331402    1.752215
     17          6           0      -11.535640   -0.888733    2.428094
     18          6           0      -12.485534   -2.279071    0.613541
     19          6           0        9.647950    0.274180    0.282922
     20          6           0      -10.072017   -1.068960   -0.338776
     21          6           0       10.945243    0.243292   -2.346188
     22          6           0      -10.840855    1.334073   -1.965698
     23          6           0        9.307098    1.584701   -0.134224
     24          6           0       -8.829751   -0.633642   -0.255169
     25          6           0        8.058282    2.230704   -0.039349
     26          6           0       -7.575764   -1.324749   -0.593444
     27          6           0        8.038640    3.668882    0.496539
     28          6           0       -7.709031   -2.817569   -1.005662
     29          6           0        6.827803    1.605577   -0.255874
     30          6           0       -6.424388   -0.587062   -0.566987
     31          6           0        5.547846    2.121597   -0.093146
     32          6           0       -5.056141   -1.187105   -0.699190
     33          6           0        4.379179    1.358603   -0.181578
     34          6           0       -4.041403   -0.362644   -0.480646
     35          6           0        3.022448    1.800276    0.043879
     36          6           0       -2.606032   -0.770943   -0.708005
     37          6           0        2.709066    3.229033    0.396385
     38          6           0       -2.360172   -2.243153   -1.079579
     39          6           0        2.087312    0.816316   -0.276806
     40          6           0       -1.585554    0.149336   -0.364304
     41          6           0        0.600484    0.939074   -0.117792
     42          6           0       -0.252947   -0.046146   -0.432279
     43          1           0       13.271945   -0.287791    1.275689
     44          1           0       13.331690   -1.994892    1.984467
     45          1           0      -14.149147   -0.472065    2.122993
     46          1           0      -14.281319   -0.539232    0.112706
     47          1           0       12.718784   -2.753549   -0.363216
     48          1           0      -12.686627    1.715166    1.637184
     49          1           0       13.668025   -0.204538   -1.464891
     50          1           0       12.946493   -1.550354   -2.328437
     51          1           0      -13.475676    1.700310   -1.186992
     52          1           0      -12.460909    2.747785   -0.485058
     53          1           0       11.545740   -0.699427    3.521547
     54          1           0       10.361290    0.408904    2.622788
     55          1           0       12.184835    0.749569    2.467572
     56          1           0       10.609032   -3.001467    0.956908
     57          1           0       11.157787   -2.909456    2.800165
     58          1           0        9.608712   -2.033987    1.972360
     59          1           0      -11.302531    0.230006    2.800288
     60          1           0      -10.552530   -1.337923    2.366913
     61          1           0      -12.246463   -1.255691    3.101950
     62          1           0      -13.376075   -2.632652    1.144857
     63          1           0      -11.883943   -3.130892    0.758400
     64          1           0      -12.772097   -2.174231   -0.712213
     65          1           0        8.877274   -0.098482    0.877316
     66          1           0      -10.230638   -2.175345   -0.699038
     67          1           0        9.874148    0.195531   -2.267972
     68          1           0       11.454111    1.237084   -2.633696
     69          1           0       11.254724   -0.360330   -3.346659
     70          1           0      -11.375741    1.450956   -2.968879
     71          1           0      -10.050551    0.690482   -2.416915
     72          1           0      -10.221449    2.258130   -1.716630
     73          1           0       15.110952   -2.744709    0.299279
     74          1           0      -14.954760    2.079077    1.854982
     75          1           0       10.120447    2.122849   -0.582153
     76          1           0       -8.593349    0.516609   -0.120235
     77          1           0        8.674233    4.452507   -0.242131
     78          1           0        7.167283    4.299787    0.698985
     79          1           0        8.671907    3.595216    1.470612
     80          1           0       -7.886508   -3.480500   -0.269313
     81          1           0       -8.464000   -3.004371   -2.059039
     82          1           0       -6.599683   -3.107901   -1.334254
     83          1           0        6.925690    0.480976   -0.482298
     84          1           0       -6.548411    0.468014   -0.386639
     85          1           0        5.495828    3.138545    0.191999
     86          1           0       -4.951779   -2.250188   -0.938487
     87          1           0        4.443810    0.264512   -0.460504
     88          1           0       -4.106895    0.535930   -0.083964
     89          1           0        2.863287    3.331523    1.380979
     90          1           0        1.647290    3.397309    0.159567
     91          1           0        3.188294    4.105256   -0.380906
     92          1           0       -2.935825   -2.758784   -0.508353
     93          1           0       -2.793642   -2.411385   -2.034162
     94          1           0       -1.396841   -2.420099   -1.094358
     95          1           0        2.330691   -0.123726   -0.677651
     96          1           0       -1.818449    0.989131    0.042438
     97          1           0        0.348283    1.943471   -0.093053
     98          1           0        0.117765   -1.175463   -0.499321
 ---------------------------------------------------------------------

 SCF Done:  E(RCAM-B3LYP) =  -1706.96078663     A.U. after   14 cycles

 Excitation energies and oscillator strengths:

 Excited State   1:      Singlet-A      2.6411 eV  469.45 nm  f=3.5041  <S**2>=0.000
     155 ->158         0.16344
     156 ->157         0.68400
 This state for optimization and/or second-order correction.
 Total Energy, E(TD-HF/TD-DFT) =  -1706.86372892
 Copying the excited state density for this state as the 1-particle RhoCI density.

 The electronic state is 1-A.
 Alpha  occ. eigenvalues --  -19.21448 -19.19823 -10.29694 -10.29674 -10.27990
 Alpha  occ. eigenvalues --  -10.27873 -10.27618 -10.27599 -10.27535 -10.27392
 Alpha  occ. eigenvalues --  -10.27313 -10.27279 -10.27132 -10.26814 -10.26756
 Alpha  occ. eigenvalues --  -10.26634 -10.26580 -10.26557 -10.26535 -10.26529
 Alpha  occ. eigenvalues --  -10.26362 -10.26333 -10.26320 -10.26303 -10.26178
 Alpha  occ. eigenvalues --  -10.26119 -10.26013 -10.25928 -10.25901 -10.25890
 Alpha  occ. eigenvalues --  -10.25810 -10.25722 -10.25573 -10.25446 -10.25416
 Alpha  occ. eigenvalues --  -10.25230 -10.25142 -10.25087 -10.24628 -10.24463
 Alpha  occ. eigenvalues --  -10.24068 -10.23248  -1.08224  -1.07940  -0.93840
 Alpha  occ. eigenvalues --   -0.93700  -0.92239  -0.91092  -0.90286  -0.89400
 Alpha  occ. eigenvalues --   -0.87635  -0.86820  -0.86197  -0.85204  -0.84603
 Alpha  occ. eigenvalues --   -0.83042  -0.82346  -0.79627  -0.78990  -0.78855
 Alpha  occ. eigenvalues --   -0.76636  -0.76243  -0.76141  -0.75886  -0.75413
 Alpha  occ. eigenvalues --   -0.75330  -0.74906  -0.74240  -0.73336  -0.70539
 Alpha  occ. eigenvalues --   -0.68738  -0.66833  -0.65903  -0.64867  -0.64526
 Alpha  occ. eigenvalues --   -0.63405  -0.62809  -0.62713  -0.61639  -0.59733
 Alpha  occ. eigenvalues --   -0.59176  -0.58809  -0.58084  -0.58073  -0.56599
 Alpha  occ. eigenvalues --   -0.55396  -0.54941  -0.54437  -0.54347  -0.53730
 Alpha  occ. eigenvalues --   -0.53341  -0.52666  -0.52309  -0.51589  -0.50961
 Alpha  occ. eigenvalues --   -0.50489  -0.50353  -0.50081  -0.49719  -0.49279
 Alpha  occ. eigenvalues --   -0.48947  -0.48667  -0.48348  -0.48198  -0.47897
 Alpha  occ. eigenvalues --   -0.47477  -0.47344  -0.46864  -0.46666  -0.46388
 Alpha  occ. eigenvalues --   -0.46014  -0.45282  -0.44971  -0.44722  -0.44462
 Alpha  occ. eigenvalues --   -0.43996  -0.43806  -0.43312  -0.43109  -0.42986
 Alpha  occ. eigenvalues --   -0.42480  -0.42444  -0.42279  -0.41810  -0.41667
 Alpha  occ. eigenvalues --   -0.41452  -0.41297  -0.40875  -0.40728  -0.40709
 Alpha  occ. eigenvalues --   -0.40614  -0.40224  -0.39964  -0.39511  -0.39346
 Alpha  occ. eigenvalues --   -0.39193  -0.38858  -0.38557  -0.38470  -0.38117
 Alpha  occ. eigenvalues --   -0.37511  -0.37346  -0.36868  -0.35604  -0.34979
 Alpha  occ. eigenvalues --   -0.34566  -0.34407  -0.33365  -0.32440  -0.32047
 Alpha  occ. eigenvalues --   -0.31740  -0.29833  -0.28719  -0.27000  -0.24057
 Alpha  occ. eigenvalues --   -0.20352
 Alpha virt. eigenvalues --   -0.04392  -0.00131   0.03206   0.06152   0.08480
 Alpha virt. eigenvalues --    0.09528   0.10460   0.10702   0.11783   0.11964
 Alpha virt. eigenvalues --    0.12026   0.12264   0.12609   0.13680   0.14023

 Mulliken charges:
               1
     1  O   -0.575129
     2  O   -0.557819
     3  C   -0.034266
     4  C   -0.017978
     5  C   -0.173544
     6  C   -0.166047
     7  C    0.178267
     8  C    0.149985
     9  C    0.074552
    10  C    0.075802
    11  C   -0.214026
    12  C   -0.202569
    13  C    0.029450
    14  C    0.034553
    15  C   -0.290855
    16  C   -0.282282
    17  C   -0.295754
    18  C   -0.282124
    19  C   -0.144853
    20  C   -0.151547
    21  C   -0.352325
    22  C   -0.372231
    23  C   -0.118898
    24  C   -0.076337
    25  C    0.080291
    26  C    0.111748
    27  C   -0.359157
    28  C   -0.347314
    29  C   -0.106155
    30  C   -0.133293
    31  C   -0.081889
    32  C   -0.097660
    33  C   -0.112930
    34  C   -0.065703
    35  C    0.098824
    36  C    0.037357
    37  C   -0.357557
    38  C   -0.345390
    39  C   -0.134162
    40  C   -0.095262
    41  C   -0.105000
    42  C   -0.065688
    43  H    0.106259
    44  H    0.084668
    45  H    0.065368
    46  H    0.097942
    47  H    0.090144
    48  H    0.093607
    49  H    0.123618
    50  H    0.109496
    51  H    0.128963
    52  H    0.098550
    53  H    0.088497
    54  H    0.104848
    55  H    0.100626
    56  H    0.116887
    57  H    0.061616
    58  H    0.107634
    59  H    0.075912
    60  H    0.120053
    61  H    0.106979
    62  H    0.096238
    63  H    0.109788
    64  H    0.050566
    65  H    0.085441
    66  H    0.089454
    67  H    0.139389
    68  H    0.111703
    69  H    0.074114
    70  H    0.103193
    71  H    0.108266
    72  H    0.104404
    73  H    0.292765
    74  H    0.299137
    75  H    0.091771
    76  H    0.067024
    77  H    0.077593
    78  H    0.124598
    79  H    0.112943
    80  H    0.140983
    81  H    0.090982
    82  H    0.081257
    83  H    0.069241
    84  H    0.088974
    85  H    0.076855
    86  H    0.091876
    87  H    0.080423
    88  H    0.075320
    89  H    0.143958
    90  H    0.112084
    91  H    0.099567
    92  H    0.133209
    93  H    0.122826
    94  H    0.107146
    95  H    0.084166
    96  H    0.067020
    97  H    0.080938
    98  H    0.078039
 Sum of Mulliken charges =  -0.00000

 Dipole moment (field-independent basis, Debye):
    X=             -0.5519    Y=             -1.1123    Z=              2.5533  Tot=              2.8392
 Quadrupole moment (field-independent basis, Debye-Ang):
   XX=           -298.2601   YY=           -243.1403   ZZ=           -257.7422
   XY=              2.3321   XZ=             -5.6030   YZ=              2.1863

 Normal termination of Gaussian 16 at Thu Jun 27 18:45:42 2019.
