 Gaussian 16, Revision A.03,
 Gaussian 16:  ES64L-G16RevA.03 25-Dec-2016

 -------------------------------------
 # td=(NStates=1) CAM-B3LYP/6-31G(d,p)
 -------------------------------------

 --
 TD
 --
 Symbolic Z-matrix:
 Charge =  0 Multiplicity = 1

                         Standard orientation:
 ---------------------------------------------------------------------
 Center     Atomic      Atomic             Coordinates (Angstroms)
 Number     Number       Type             X           Y           Z
 ---------------------------------------------------------------------
      1          8           0       14.604571   -2.321895   -0.393476
      2          8           0      -14.778782    2.007292    0.858792
      3          6           0       11.395075   -1.136847    1.251331
      4          6           0      -12.335197   -0.947143    0.708671
      5          6           0       12.848492   -1.461619    1.027552
      6          6           0      -13.739038   -0.218149    0.636807
      7          6           0       13.188660   -2.006657   -0.265412
      8          6           0      -13.458257    1.233590    0.884572
      9          6           0       10.881188   -0.287979    0.014251
     10          6           0      -11.279608   -0.241511   -0.183782
     11          6           0       12.937224   -0.941409   -1.330717
     12          6           0      -12.736959    1.815289   -0.326580
     13          6           0       11.697189   -0.157894   -1.062609
     14          6           0      -11.469586    0.936795   -0.705067
     15          6           0       11.077328   -0.524023    2.546757
     16          6           0       10.444316   -2.552497    1.237797
     17          6           0      -11.877132   -1.116865    2.101185
     18          6           0      -12.633682   -2.479008    0.151825
     19          6           0        9.662636    0.435185    0.205263
     20          6           0      -10.004379   -0.994382   -0.376715
     21          6           0       11.411371    0.690885   -2.410877
     22          6           0      -10.580454    1.658993   -1.696930
     23          6           0        9.383966    1.684668   -0.036525
     24          6           0       -8.792739   -0.585287   -0.271776
     25          6           0        8.004970    2.270334    0.202582
     26          6           0       -7.534837   -1.269739   -0.554320
     27          6           0        7.960646    3.722077    0.393899
     28          6           0       -7.670017   -2.601615   -1.148797
     29          6           0        6.865819    1.714861   -0.008921
     30          6           0       -6.384249   -0.580230   -0.335238
     31          6           0        5.571890    2.172656    0.142411
     32          6           0       -5.100773   -1.121240   -0.538594
     33          6           0        4.491981    1.353020   -0.020504
     34          6           0       -3.948552   -0.520223   -0.189744
     35          6           0        3.073843    1.727509    0.167904
     36          6           0       -2.544420   -0.884522   -0.409722
     37          6           0        2.800665    3.226903    0.379876
     38          6           0       -2.196033   -2.251055   -0.875230
     39          6           0        2.080412    0.796087   -0.010999
     40          6           0       -1.568659    0.026140   -0.094232
     41          6           0        0.720677    0.892533    0.091240
     42          6           0       -0.131836   -0.063459   -0.261615
     43          1           0       13.502274   -0.696010    1.220496
     44          1           0       13.197523   -2.306235    1.796995
     45          1           0      -14.375460   -0.774565    1.291950
     46          1           0      -14.244923   -0.307247   -0.545313
     47          1           0       12.558784   -2.905537   -0.311640
     48          1           0      -13.133798    1.196693    1.826062
     49          1           0       14.013326   -0.305020   -1.315382
     50          1           0       13.206374   -1.306581   -2.312749
     51          1           0      -13.487366    1.888465   -1.148897
     52          1           0      -12.208854    2.864866   -0.291218
     53          1           0       11.358972   -1.270126    3.350012
     54          1           0       10.198073   -0.069103    2.545166
     55          1           0       11.789342    0.272638    2.676880
     56          1           0       10.801154   -3.165187    0.520999
     57          1           0       10.736879   -2.945440    2.307561
     58          1           0        9.374521   -2.292683    0.976559
     59          1           0      -11.871728   -0.232478    2.798806
     60          1           0      -10.842650   -1.507674    2.077377
     61          1           0      -12.551886   -2.050817    2.533881
     62          1           0      -13.456386   -2.819172    0.843218
     63          1           0      -11.611833   -3.008670    0.334135
     64          1           0      -12.642653   -2.401550   -0.999239
     65          1           0        8.726315   -0.437490    0.512289
     66          1           0      -10.158838   -2.165567   -0.568380
     67          1           0       10.491287    1.008259   -2.356767
     68          1           0       12.335487    1.368935   -2.646399
     69          1           0       11.592629   -0.020466   -3.347626
     70          1           0      -11.056742    2.197758   -2.362040
     71          1           0       -9.675091    0.906477   -2.080544
     72          1           0       -9.805094    2.368358   -1.080576
     73          1           0       14.827809   -2.722231    0.356165
     74          1           0      -15.268476    1.534707    1.493535
     75          1           0       10.162430    2.485528   -0.371910
     76          1           0       -8.691575    0.506639   -0.111454
     77          1           0        8.552201    4.175138   -0.293554
     78          1           0        6.966663    4.213037    0.291244
     79          1           0        8.485775    4.003476    1.360342
     80          1           0       -8.034484   -3.409498   -0.486828
     81          1           0       -8.567800   -2.357707   -1.906082
     82          1           0       -6.680388   -2.931428   -1.846700
     83          1           0        6.884158    0.594094   -0.368564
     84          1           0       -6.438430    0.411205    0.089799
     85          1           0        5.328361    3.264784    0.311374
     86          1           0       -5.112143   -2.133783   -1.224155
     87          1           0        4.749989    0.364018   -0.270117
     88          1           0       -4.188227    0.361845    0.355941
     89          1           0        3.245434    3.437355    1.401031
     90          1           0        1.762215    3.469323    0.544306
     91          1           0        3.105669    3.941344   -0.247106
     92          1           0       -2.975825   -2.977893   -0.441057
     93          1           0       -2.552147   -2.421369   -1.924079
     94          1           0       -1.205617   -2.450744   -0.421078
     95          1           0        2.528885   -0.164775   -0.277879
     96          1           0       -1.932790    0.896456    0.074397
     97          1           0        0.321291    2.042437    0.033177
     98          1           0        0.289423   -1.184998   -0.262986
 ---------------------------------------------------------------------

 SCF Done:  E(RCAM-B3LYP) =  -1706.90989292     A.U. after   14 cycles

 Excitation energies and oscillator strengths:

 Excited State   1:      Singlet-A      2.8275 eV  438.50 nm  f=3.6733  <S**2>=0.000
     155 ->158         0.16211
     156 ->157         0.68412
 This state for optimization and/or second-order correction.
 Total Energy, E(TD-HF/TD-DFT) =  -1706.80598603
 Copying the excited state density for this state as the 1-particle RhoCI density.

 The electronic state is 1-A.
 Alpha  occ. eigenvalues --  -19.20394 -19.19698 -10.30132 -10.29770 -10.28137
 Alpha  occ. eigenvalues --  -10.28099 -10.28054 -10.28014 -10.27995 -10.27601
 Alpha  occ. eigenvalues --  -10.27571 -10.27536 -10.27443 -10.27408 -10.27219
 Alpha  occ. eigenvalues --  -10.27095 -10.27043 -10.26916 -10.26762 -10.26631
 Alpha  occ. eigenvalues --  -10.26600 -10.26471 -10.26439 -10.26383 -10.26183
 Alpha  occ. eigenvalues --  -10.26173 -10.26146 -10.26120 -10.26111 -10.26071
 Alpha  occ. eigenvalues --  -10.25938 -10.25908 -10.25772 -10.25722 -10.25679
 Alpha  occ. eigenvalues --  -10.25548 -10.25071 -10.25013 -10.24909 -10.24822
 Alpha  occ. eigenvalues --  -10.24481 -10.23464  -1.10625  -1.06980  -0.94134
 Alpha  occ. eigenvalues --   -0.93885  -0.92645  -0.92385  -0.91585  -0.90332
 Alpha  occ. eigenvalues --   -0.88058  -0.87242  -0.86653  -0.86403  -0.85708
 Alpha  occ. eigenvalues --   -0.83972  -0.82873  -0.81191  -0.80561  -0.78878
 Alpha  occ. eigenvalues --   -0.76954  -0.76713  -0.76468  -0.76336  -0.75851
 Alpha  occ. eigenvalues --   -0.75683  -0.75069  -0.74657  -0.74600  -0.70714
 Alpha  occ. eigenvalues --   -0.69164  -0.67748  -0.66366  -0.65000  -0.64203
 Alpha  occ. eigenvalues --   -0.63581  -0.62404  -0.60967  -0.60804  -0.60090
 Alpha  occ. eigenvalues --   -0.59595  -0.59197  -0.58337  -0.58082  -0.57010
 Alpha  occ. eigenvalues --   -0.56606  -0.55357  -0.55117  -0.54641  -0.53866
 Alpha  occ. eigenvalues --   -0.53588  -0.52933  -0.52222  -0.51580  -0.50920
 Alpha  occ. eigenvalues --   -0.50774  -0.50511  -0.50101  -0.49952  -0.49451
 Alpha  occ. eigenvalues --   -0.49346  -0.48882  -0.48658  -0.48580  -0.48143
 Alpha  occ. eigenvalues --   -0.47929  -0.47506  -0.47301  -0.46842  -0.46319
 Alpha  occ. eigenvalues --   -0.46298  -0.46008  -0.45723  -0.45291  -0.45065
 Alpha  occ. eigenvalues --   -0.44839  -0.44419  -0.44156  -0.43310  -0.43248
 Alpha  occ. eigenvalues --   -0.42830  -0.42613  -0.42566  -0.42418  -0.42311
 Alpha  occ. eigenvalues --   -0.41970  -0.41567  -0.41436  -0.41367  -0.40801
 Alpha  occ. eigenvalues --   -0.40612  -0.40118  -0.39702  -0.39608  -0.38941
 Alpha  occ. eigenvalues --   -0.38865  -0.38772  -0.38418  -0.38262  -0.38050
 Alpha  occ. eigenvalues --   -0.37909  -0.37733  -0.36767  -0.36642  -0.35802
 Alpha  occ. eigenvalues --   -0.35508  -0.34911  -0.33786  -0.33117  -0.32470
 Alpha  occ. eigenvalues --   -0.31613  -0.30004  -0.28565  -0.27223  -0.24893
 Alpha  occ. eigenvalues --   -0.21258
 Alpha virt. eigenvalues --   -0.04391  -0.00116   0.02932   0.05732   0.07461
 Alpha virt. eigenvalues --    0.08809   0.10336   0.10708   0.11207   0.11747
 Alpha virt. eigenvalues --    0.11868   0.12611   0.13169   0.13393   0.13858

 Mulliken charges:
               1
     1  O   -0.548227
     2  O   -0.569825
     3  C   -0.016011
     4  C   -0.046164
     5  C   -0.190774
     6  C   -0.180968
     7  C    0.166625
     8  C    0.158108
     9  C    0.056630
    10  C    0.081489
    11  C   -0.233026
    12  C   -0.204716
    13  C    0.055620
    14  C    0.043811
    15  C   -0.284636
    16  C   -0.309628
    17  C   -0.284196
    18  C   -0.299024
    19  C   -0.112193
    20  C   -0.157628
    21  C   -0.340388
    22  C   -0.352816
    23  C   -0.114986
    24  C   -0.075230
    25  C    0.088896
    26  C    0.131923
    27  C   -0.381593
    28  C   -0.369597
    29  C   -0.109733
    30  C   -0.123905
    31  C   -0.060284
    32  C   -0.069693
    33  C   -0.119204
    34  C   -0.122485
    35  C    0.092772
    36  C    0.110806
    37  C   -0.380828
    38  C   -0.374640
    39  C   -0.112526
    40  C   -0.097866
    41  C   -0.068525
    42  C   -0.091700
    43  H    0.112765
    44  H    0.046701
    45  H    0.089390
    46  H    0.068377
    47  H    0.082682
    48  H    0.097700
    49  H    0.093264
    50  H    0.124764
    51  H    0.132235
    52  H    0.100998
    53  H    0.094374
    54  H    0.123011
    55  H    0.097938
    56  H    0.115472
    57  H    0.089735
    58  H    0.102056
    59  H    0.104225
    60  H    0.117551
    61  H    0.066807
    62  H    0.107740
    63  H    0.091236
    64  H    0.113254
    65  H    0.071167
    66  H    0.064563
    67  H    0.117118
    68  H    0.109883
    69  H    0.094654
    70  H    0.122977
    71  H    0.102520
    72  H    0.091710
    73  H    0.286044
    74  H    0.291221
    75  H    0.106108
    76  H    0.078365
    77  H    0.124184
    78  H    0.108433
    79  H    0.103920
    80  H    0.133122
    81  H    0.108632
    82  H    0.091202
    83  H    0.061829
    84  H    0.085688
    85  H    0.083383
    86  H    0.055168
    87  H    0.076639
    88  H    0.078256
    89  H    0.113936
    90  H    0.105441
    91  H    0.135375
    92  H    0.104989
    93  H    0.129843
    94  H    0.119438
    95  H    0.076958
    96  H    0.063722
    97  H    0.074701
    98  H    0.072867
 Sum of Mulliken charges =  -0.00000

 Dipole moment (field-independent basis, Debye):
    X=              0.3762    Y=             -0.8344    Z=              1.3660  Tot=              1.6443
 Quadrupole moment (field-independent basis, Debye-Ang):
   XX=           -283.6972   YY=           -251.9231   ZZ=           -261.0144
   XY=             26.3351   XZ=              1.4906   YZ=             -2.9450

 Normal termination of Gaussian 16 at Tue Jul  2 06:58:27 2019.
