 Gaussian 16, Revision A.03,
 Gaussian 16:  ES64L-G16RevA.03 25-Dec-2016

 -------------------------------------
 # td=(NStates=1) CAM-B3LYP/6-31G(d,p)
 -------------------------------------

 --
 TD
 --
 Symbolic Z-matrix:
 Charge =  0 Multiplicity = 1

                         Standard orientation:
 ---------------------------------------------------------------------
 Center     Atomic      Atomic             Coordinates (Angstroms)
 Number     Number       Type             X           Y           Z
 ---------------------------------------------------------------------
      1          8           0       14.858790   -2.051833   -0.113923
      2          8           0      -14.738237    2.138649    0.844683
      3          6           0       11.596069   -0.869718    1.316404
      4          6           0      -12.350443   -0.912114    0.745129
      5          6           0       13.033582   -1.083541    1.173619
      6          6           0      -13.758922   -0.103917    0.808042
      7          6           0       13.512644   -1.841929   -0.096949
      8          6           0      -13.570315    1.462244    0.915728
      9          6           0       11.109139   -0.146904    0.094437
     10          6           0      -11.336781   -0.209863   -0.149739
     11          6           0       13.029236   -0.932107   -1.200818
     12          6           0      -12.709830    2.006617   -0.255359
     13          6           0       11.681569   -0.300032   -1.216373
     14          6           0      -11.493089    1.080180   -0.632278
     15          6           0       11.424697    0.190553    2.470653
     16          6           0       10.904907   -2.209924    1.605142
     17          6           0      -11.923905   -1.108522    2.304090
     18          6           0      -12.805128   -2.273304    0.044934
     19          6           0        9.748707    0.400940    0.103441
     20          6           0      -10.191255   -1.015159   -0.439422
     21          6           0       11.196393    0.300345   -2.417000
     22          6           0      -10.615815    1.728699   -1.552078
     23          6           0        9.283834    1.543121   -0.315376
     24          6           0       -8.941825   -0.571225   -0.254540
     25          6           0        7.977428    2.185465   -0.065234
     26          6           0       -7.676779   -1.324992   -0.570259
     27          6           0        8.001387    3.609916    0.095677
     28          6           0       -7.763664   -2.740930   -1.134674
     29          6           0        6.848678    1.398564   -0.046262
     30          6           0       -6.544264   -0.747818   -0.365381
     31          6           0        5.519386    1.800228    0.114606
     32          6           0       -5.072593   -1.378963   -0.538020
     33          6           0        4.449154    1.100877   -0.052048
     34          6           0       -4.047869   -0.609653   -0.272106
     35          6           0        3.061307    1.448591    0.053813
     36          6           0       -2.696004   -0.905718   -0.469147
     37          6           0        2.760078    2.946597    0.366751
     38          6           0       -2.376954   -2.335916   -0.964075
     39          6           0        2.029550    0.548717   -0.218395
     40          6           0       -1.667523   -0.060506   -0.219871
     41          6           0        0.675518    0.742138   -0.138921
     42          6           0       -0.178590   -0.254901   -0.233278
     43          1           0       13.734748   -0.275125    1.435254
     44          1           0       13.110130   -1.842194    1.913728
     45          1           0      -14.148429   -0.524383    1.776496
     46          1           0      -14.303411   -0.291063   -0.142149
     47          1           0       13.091701   -2.812243   -0.177744
     48          1           0      -12.944051    1.581061    1.852797
     49          1           0       13.810512   -0.024094   -1.137868
     50          1           0       13.299877   -1.475883   -2.148093
     51          1           0      -13.382705    1.787489   -1.121839
     52          1           0      -12.488215    3.041274   -0.067322
     53          1           0       11.852773   -0.224375    3.378008
     54          1           0       10.346115    0.168604    2.742564
     55          1           0       11.858745    1.117289    2.018534
     56          1           0       10.516093   -2.677407    0.506722
     57          1           0       11.612972   -2.822451    2.389590
     58          1           0       10.019980   -2.116917    2.298628
     59          1           0      -11.843665   -0.119054    2.599220
     60          1           0      -10.810059   -1.597651    2.473138
     61          1           0      -12.912333   -1.663032    2.884679
     62          1           0      -13.605630   -2.594240    0.659739
     63          1           0      -11.890595   -2.912328    0.247957
     64          1           0      -13.102975   -2.218551   -0.758012
     65          1           0        9.192666   -0.440316    0.800870
     66          1           0      -10.437588   -1.999597   -0.872713
     67          1           0       10.326301    0.880125   -2.341917
     68          1           0       12.103379    1.122523   -2.817902
     69          1           0       11.241340   -0.346858   -3.327446
     70          1           0      -11.275691    2.398063   -2.270922
     71          1           0      -10.008498    1.198186   -2.097049
     72          1           0       -9.900247    2.478071   -1.030645
     73          1           0       15.318823   -2.670002    0.609720
     74          1           0      -15.254821    1.488036    1.484868
     75          1           0        9.901735    2.235446   -0.709925
     76          1           0       -8.731325    0.434283    0.159379
     77          1           0        8.740735    4.199998   -0.674879
     78          1           0        6.934583    4.248868    0.000366
     79          1           0        8.352460    3.908985    1.089807
     80          1           0       -8.279000   -3.499933   -0.532727
     81          1           0       -8.375685   -2.448922   -2.000967
     82          1           0       -6.768652   -3.273390   -1.341924
     83          1           0        7.037277    0.291476   -0.518638
     84          1           0       -6.627917    0.242027    0.316784
     85          1           0        5.400217    2.962182    0.197771
     86          1           0       -5.014702   -2.423909   -0.830968
     87          1           0        4.715189    0.129747   -0.354196
     88          1           0       -4.294707    0.466965   -0.036698
     89          1           0        3.323806    3.162766    1.233758
     90          1           0        1.772093    3.225501    0.202268
     91          1           0        3.180618    3.689649   -0.437246
     92          1           0       -2.716118   -3.029427   -0.231985
     93          1           0       -3.053948   -2.483422   -1.993310
     94          1           0       -1.239029   -2.584127   -1.105070
     95          1           0        2.494491   -0.537193   -0.304717
     96          1           0       -1.873251    0.860964    0.143520
     97          1           0        0.226096    1.895634   -0.030801
     98          1           0        0.073082   -1.318456   -0.215751
 ---------------------------------------------------------------------

 SCF Done:  E(RCAM-B3LYP) =  -1706.87154214     A.U. after   14 cycles

 Excitation energies and oscillator strengths:

 Excited State   1:      Singlet-A      2.9621 eV  418.57 nm  f=3.4193  <S**2>=0.000
     155 ->158         0.15987
     156 ->157         0.67987
 This state for optimization and/or second-order correction.
 Total Energy, E(TD-HF/TD-DFT) =  -1706.76268612
 Copying the excited state density for this state as the 1-particle RhoCI density.

 The electronic state is 1-A.
 Alpha  occ. eigenvalues --  -19.22602 -19.21476 -10.30265 -10.29724 -10.28258
 Alpha  occ. eigenvalues --  -10.28242 -10.27838 -10.27698 -10.27606 -10.27459
 Alpha  occ. eigenvalues --  -10.27144 -10.27142 -10.26912 -10.26905 -10.26762
 Alpha  occ. eigenvalues --  -10.26660 -10.26650 -10.26592 -10.26556 -10.26528
 Alpha  occ. eigenvalues --  -10.26411 -10.26326 -10.26321 -10.26239 -10.26190
 Alpha  occ. eigenvalues --  -10.26001 -10.25941 -10.25845 -10.25745 -10.25529
 Alpha  occ. eigenvalues --  -10.25524 -10.25399 -10.25371 -10.25191 -10.25183
 Alpha  occ. eigenvalues --  -10.25172 -10.25068 -10.24561 -10.24370 -10.24334
 Alpha  occ. eigenvalues --  -10.23265 -10.22629  -1.11678  -1.09471  -0.94337
 Alpha  occ. eigenvalues --   -0.92685  -0.92101  -0.91535  -0.90522  -0.89648
 Alpha  occ. eigenvalues --   -0.88201  -0.87584  -0.86615  -0.85168  -0.84479
 Alpha  occ. eigenvalues --   -0.83283  -0.81475  -0.80395  -0.79899  -0.77348
 Alpha  occ. eigenvalues --   -0.77212  -0.76420  -0.76211  -0.75878  -0.75603
 Alpha  occ. eigenvalues --   -0.75176  -0.74588  -0.74222  -0.73910  -0.70157
 Alpha  occ. eigenvalues --   -0.68953  -0.67099  -0.65547  -0.64201  -0.64074
 Alpha  occ. eigenvalues --   -0.63364  -0.62558  -0.61154  -0.59901  -0.59358
 Alpha  occ. eigenvalues --   -0.58845  -0.58709  -0.58041  -0.57304  -0.56576
 Alpha  occ. eigenvalues --   -0.55770  -0.55414  -0.54917  -0.54673  -0.53877
 Alpha  occ. eigenvalues --   -0.53471  -0.52802  -0.52342  -0.52166  -0.51826
 Alpha  occ. eigenvalues --   -0.51573  -0.50264  -0.49749  -0.49375  -0.48853
 Alpha  occ. eigenvalues --   -0.48730  -0.48444  -0.48141  -0.47748  -0.47638
 Alpha  occ. eigenvalues --   -0.47523  -0.47277  -0.47250  -0.47070  -0.46457
 Alpha  occ. eigenvalues --   -0.46180  -0.46053  -0.45573  -0.45282  -0.45040
 Alpha  occ. eigenvalues --   -0.44982  -0.44202  -0.43713  -0.43558  -0.43293
 Alpha  occ. eigenvalues --   -0.43217  -0.43054  -0.42741  -0.41877  -0.41712
 Alpha  occ. eigenvalues --   -0.41612  -0.41050  -0.40732  -0.40457  -0.40387
 Alpha  occ. eigenvalues --   -0.40281  -0.39941  -0.39532  -0.39307  -0.39133
 Alpha  occ. eigenvalues --   -0.38787  -0.38633  -0.38605  -0.37862  -0.37608
 Alpha  occ. eigenvalues --   -0.37022  -0.36611  -0.36368  -0.35743  -0.35345
 Alpha  occ. eigenvalues --   -0.35281  -0.34549  -0.34094  -0.31773  -0.31116
 Alpha  occ. eigenvalues --   -0.30869  -0.29426  -0.27452  -0.25771  -0.24374
 Alpha  occ. eigenvalues --   -0.21170
 Alpha virt. eigenvalues --   -0.03545   0.00633   0.02878   0.04958   0.07335
 Alpha virt. eigenvalues --    0.09205   0.10050   0.10488   0.11214   0.11232
 Alpha virt. eigenvalues --    0.11290   0.11446   0.12445   0.12915   0.13559

 Mulliken charges:
               1
     1  O   -0.580479
     2  O   -0.523436
     3  C   -0.011943
     4  C   -0.047634
     5  C   -0.190058
     6  C   -0.232283
     7  C    0.208002
     8  C    0.168093
     9  C    0.002639
    10  C    0.050922
    11  C   -0.227885
    12  C   -0.224506
    13  C    0.121737
    14  C    0.064599
    15  C   -0.292285
    16  C   -0.306389
    17  C   -0.296407
    18  C   -0.260820
    19  C   -0.074064
    20  C   -0.147921
    21  C   -0.357296
    22  C   -0.351392
    23  C   -0.125271
    24  C   -0.091596
    25  C    0.118159
    26  C    0.130315
    27  C   -0.385275
    28  C   -0.360473
    29  C   -0.131090
    30  C   -0.175678
    31  C   -0.063817
    32  C   -0.106934
    33  C   -0.100334
    34  C   -0.081392
    35  C    0.095342
    36  C    0.120899
    37  C   -0.362452
    38  C   -0.367217
    39  C   -0.133684
    40  C   -0.140672
    41  C   -0.065961
    42  C   -0.076198
    43  H    0.100976
    44  H    0.064672
    45  H    0.079903
    46  H    0.099856
    47  H    0.075139
    48  H    0.055741
    49  H    0.100095
    50  H    0.086976
    51  H    0.117537
    52  H    0.119853
    53  H    0.095335
    54  H    0.101088
    55  H    0.116394
    56  H    0.104128
    57  H    0.089760
    58  H    0.106090
    59  H    0.127425
    60  H    0.095877
    61  H    0.075213
    62  H    0.094562
    63  H    0.093935
    64  H    0.097424
    65  H    0.074066
    66  H    0.099931
    67  H    0.130992
    68  H    0.072094
    69  H    0.119949
    70  H    0.088129
    71  H    0.125755
    72  H    0.101161
    73  H    0.322670
    74  H    0.309721
    75  H    0.081207
    76  H    0.087759
    77  H    0.100023
    78  H    0.094508
    79  H    0.137085
    80  H    0.120186
    81  H    0.123767
    82  H    0.101366
    83  H    0.072963
    84  H    0.068964
    85  H    0.063386
    86  H    0.091542
    87  H    0.068436
    88  H    0.085088
    89  H    0.132419
    90  H    0.111323
    91  H    0.096053
    92  H    0.128425
    93  H    0.093502
    94  H    0.098074
    95  H    0.077444
    96  H    0.066808
    97  H    0.083514
    98  H    0.085844
 Sum of Mulliken charges =  -0.00000

 Dipole moment (field-independent basis, Debye):
    X=              1.4199    Y=             -1.8803    Z=              1.8184  Tot=              2.9763
 Quadrupole moment (field-independent basis, Debye-Ang):
   XX=           -243.4325   YY=           -247.4531   ZZ=           -260.7830
   XY=             10.0408   XZ=              7.9583   YZ=             -2.2411

 Normal termination of Gaussian 16 at Wed Jun 26 16:46:48 2019.
