 Gaussian 16, Revision A.03,
 Gaussian 16:  ES64L-G16RevA.03 25-Dec-2016

 -------------------------------------
 # td=(NStates=1) CAM-B3LYP/6-31G(d,p)
 -------------------------------------

 --
 TD
 --
 Symbolic Z-matrix:
 Charge =  0 Multiplicity = 1

                         Standard orientation:
 ---------------------------------------------------------------------
 Center     Atomic      Atomic             Coordinates (Angstroms)
 Number     Number       Type             X           Y           Z
 ---------------------------------------------------------------------
      1          8           0       14.865660   -1.999309   -0.351233
      2          8           0      -14.724391    2.030833    0.755958
      3          6           0       11.426576   -1.063552    1.180713
      4          6           0      -12.296977   -0.840385    0.777470
      5          6           0       12.990495   -1.419147    1.105767
      6          6           0      -13.560935   -0.190760    0.746902
      7          6           0       13.416169   -1.752147   -0.315907
      8          6           0      -13.482365    1.379667    0.791140
      9          6           0       10.974211   -0.302633   -0.037167
     10          6           0      -11.258626   -0.210557   -0.172115
     11          6           0       13.020599   -0.769599   -1.418602
     12          6           0      -12.814004    1.786677   -0.555544
     13          6           0       11.719053   -0.138094   -1.091067
     14          6           0      -11.642392    0.918937   -0.811324
     15          6           0       11.128399   -0.385140    2.450007
     16          6           0       10.757967   -2.420691    1.306764
     17          6           0      -11.858246   -0.900928    2.353851
     18          6           0      -12.491319   -2.283964    0.410186
     19          6           0        9.638651    0.326945    0.157693
     20          6           0      -10.040694   -1.072421   -0.406751
     21          6           0       11.218489    0.519952   -2.316027
     22          6           0      -10.856958    1.411619   -1.985678
     23          6           0        9.433827    1.601664   -0.020730
     24          6           0       -8.823536   -0.608481   -0.260172
     25          6           0        8.090135    2.160434    0.115144
     26          6           0       -7.635869   -1.332201   -0.499736
     27          6           0        8.033551    3.588263    0.529776
     28          6           0       -7.641491   -2.766623   -0.863254
     29          6           0        6.843490    1.416020   -0.032264
     30          6           0       -6.522688   -0.664922   -0.233727
     31          6           0        5.547953    1.965346    0.250630
     32          6           0       -5.077876   -1.166757   -0.480433
     33          6           0        4.517849    1.222333   -0.129078
     34          6           0       -4.024490   -0.380973   -0.210057
     35          6           0        3.123678    1.602326   -0.006359
     36          6           0       -2.610162   -0.842635   -0.381529
     37          6           0        2.716778    2.988193    0.636000
     38          6           0       -2.348773   -2.209802   -0.942265
     39          6           0        2.114717    0.707064   -0.311337
     40          6           0       -1.742374    0.089345   -0.134357
     41          6           0        0.675198    0.951494   -0.115851
     42          6           0       -0.248640   -0.037225   -0.375630
     43          1           0       13.481246   -0.372947    1.262121
     44          1           0       13.251286   -2.144923    1.831321
     45          1           0      -14.364287   -0.575163    1.580633
     46          1           0      -14.181389   -0.581785   -0.202228
     47          1           0       12.822858   -2.835315   -0.365626
     48          1           0      -12.996144    1.631945    1.746481
     49          1           0       13.845338   -0.023133   -1.347667
     50          1           0       13.109849   -1.251710   -2.347031
     51          1           0      -13.631059    1.611868   -1.362005
     52          1           0      -12.334534    2.890774   -0.686049
     53          1           0       11.531999   -0.763331    3.406654
     54          1           0        9.981650   -0.195145    2.473161
     55          1           0       11.843759    0.561410    2.345297
     56          1           0       10.999116   -2.966525    0.462723
     57          1           0       10.842896   -2.911480    2.375579
     58          1           0        9.693718   -2.337011    1.135015
     59          1           0      -11.777619    0.188835    2.776263
     60          1           0      -10.914208   -1.228651    2.540980
     61          1           0      -12.717305   -1.416414    2.851440
     62          1           0      -13.204731   -2.791335    0.998612
     63          1           0      -11.467304   -2.936087    0.548930
     64          1           0      -13.110885   -2.479215   -0.555663
     65          1           0        8.906992   -0.277726    0.851920
     66          1           0      -10.126149   -2.091276   -0.508547
     67          1           0       10.027840    0.684512   -2.133602
     68          1           0       11.754514    1.503579   -2.565972
     69          1           0       11.399892   -0.127580   -3.370938
     70          1           0      -11.593699    1.849537   -2.750845
     71          1           0      -10.132974    0.707478   -2.352856
     72          1           0      -10.077549    2.189444   -1.799051
     73          1           0       15.030164   -2.406138    0.536911
     74          1           0      -15.151098    1.824184    1.502327
     75          1           0       10.305000    2.082675   -0.398124
     76          1           0       -8.695411    0.506867   -0.177622
     77          1           0        8.756800    4.359991   -0.090575
     78          1           0        7.039092    4.034807    0.537880
     79          1           0        8.374096    3.749823    1.675829
     80          1           0       -8.207845   -3.508496   -0.202972
     81          1           0       -8.344099   -2.855455   -1.703755
     82          1           0       -6.681813   -3.266159   -1.252038
     83          1           0        7.111525    0.552179   -0.538456
     84          1           0       -6.577364    0.388430    0.337590
     85          1           0        5.412693    3.059277    0.508170
     86          1           0       -4.909693   -2.236007   -0.971966
     87          1           0        4.709735    0.474860   -0.484605
     88          1           0       -4.331941    0.586549    0.066018
     89          1           0        3.258512    3.033887    1.575918
     90          1           0        1.626255    3.002980    0.720514
     91          1           0        3.375072    3.912292    0.027294
     92          1           0       -2.990236   -2.967741   -0.314622
     93          1           0       -2.851158   -2.164626   -1.840010
     94          1           0       -1.349986   -2.568180   -1.018670
     95          1           0        2.380598   -0.290939   -0.641909
     96          1           0       -2.069867    0.978526    0.249500
     97          1           0        0.199191    1.771002    0.357430
     98          1           0        0.132282   -1.079244   -0.767396
 ---------------------------------------------------------------------

 SCF Done:  E(RCAM-B3LYP) =  -1706.93079323     A.U. after   14 cycles

 Excitation energies and oscillator strengths:

 Excited State   1:      Singlet-A      3.0170 eV  410.95 nm  f=3.2359  <S**2>=0.000
     155 ->158        -0.17489
     156 ->157         0.67347
 This state for optimization and/or second-order correction.
 Total Energy, E(TD-HF/TD-DFT) =  -1706.81991931
 Copying the excited state density for this state as the 1-particle RhoCI density.

 The electronic state is 1-A.
 Alpha  occ. eigenvalues --  -19.21146 -19.20393 -10.31412 -10.31031 -10.27946
 Alpha  occ. eigenvalues --  -10.27700 -10.27613 -10.27515 -10.27508 -10.27398
 Alpha  occ. eigenvalues --  -10.27205 -10.27151 -10.27044 -10.27022 -10.26936
 Alpha  occ. eigenvalues --  -10.26875 -10.26832 -10.26771 -10.26689 -10.26643
 Alpha  occ. eigenvalues --  -10.26585 -10.26529 -10.26464 -10.26437 -10.26326
 Alpha  occ. eigenvalues --  -10.26078 -10.26006 -10.25991 -10.25959 -10.25927
 Alpha  occ. eigenvalues --  -10.25833 -10.25723 -10.25590 -10.25589 -10.25575
 Alpha  occ. eigenvalues --  -10.25403 -10.25311 -10.24955 -10.24931 -10.24522
 Alpha  occ. eigenvalues --  -10.24294 -10.23742  -1.11685  -1.07610  -0.95084
 Alpha  occ. eigenvalues --   -0.94082  -0.92420  -0.92077  -0.91499  -0.89981
 Alpha  occ. eigenvalues --   -0.88442  -0.87503  -0.87279  -0.85550  -0.84634
 Alpha  occ. eigenvalues --   -0.83196  -0.81834  -0.80243  -0.80009  -0.78561
 Alpha  occ. eigenvalues --   -0.77021  -0.76648  -0.76156  -0.75771  -0.75489
 Alpha  occ. eigenvalues --   -0.75247  -0.75204  -0.74419  -0.74163  -0.69904
 Alpha  occ. eigenvalues --   -0.68842  -0.67262  -0.65891  -0.64435  -0.64294
 Alpha  occ. eigenvalues --   -0.63317  -0.63237  -0.61560  -0.61265  -0.60465
 Alpha  occ. eigenvalues --   -0.59841  -0.59322  -0.58613  -0.57086  -0.56643
 Alpha  occ. eigenvalues --   -0.55949  -0.55637  -0.55399  -0.54636  -0.54423
 Alpha  occ. eigenvalues --   -0.53986  -0.53072  -0.52720  -0.51437  -0.50814
 Alpha  occ. eigenvalues --   -0.50524  -0.50268  -0.49782  -0.49320  -0.49114
 Alpha  occ. eigenvalues --   -0.48866  -0.48553  -0.48453  -0.48139  -0.48021
 Alpha  occ. eigenvalues --   -0.47473  -0.47119  -0.46873  -0.46601  -0.46023
 Alpha  occ. eigenvalues --   -0.45807  -0.45746  -0.45528  -0.45028  -0.44854
 Alpha  occ. eigenvalues --   -0.44520  -0.44210  -0.44002  -0.43866  -0.43649
 Alpha  occ. eigenvalues --   -0.43405  -0.43322  -0.42540  -0.42412  -0.42022
 Alpha  occ. eigenvalues --   -0.41862  -0.41685  -0.41273  -0.40906  -0.40603
 Alpha  occ. eigenvalues --   -0.40358  -0.39927  -0.39771  -0.39726  -0.39593
 Alpha  occ. eigenvalues --   -0.39306  -0.39074  -0.38610  -0.38461  -0.38090
 Alpha  occ. eigenvalues --   -0.37779  -0.37673  -0.37237  -0.36482  -0.35627
 Alpha  occ. eigenvalues --   -0.35234  -0.34414  -0.33890  -0.32598  -0.31841
 Alpha  occ. eigenvalues --   -0.30886  -0.29860  -0.28746  -0.26987  -0.24460
 Alpha  occ. eigenvalues --   -0.21623
 Alpha virt. eigenvalues --   -0.03542  -0.00207   0.02810   0.06058   0.07751
 Alpha virt. eigenvalues --    0.09176   0.10844   0.11474   0.11880   0.12235
 Alpha virt. eigenvalues --    0.12286   0.12862   0.12998   0.13232   0.13610

 Mulliken charges:
               1
     1  O   -0.567619
     2  O   -0.532349
     3  C   -0.042133
     4  C    0.015742
     5  C   -0.203733
     6  C   -0.210140
     7  C    0.174021
     8  C    0.166503
     9  C    0.105687
    10  C    0.057557
    11  C   -0.221154
    12  C   -0.210701
    13  C    0.058849
    14  C    0.070108
    15  C   -0.273900
    16  C   -0.295404
    17  C   -0.297734
    18  C   -0.296899
    19  C   -0.156347
    20  C   -0.140574
    21  C   -0.367570
    22  C   -0.372180
    23  C   -0.070366
    24  C   -0.083023
    25  C    0.050492
    26  C    0.172867
    27  C   -0.353710
    28  C   -0.392902
    29  C   -0.115591
    30  C   -0.169732
    31  C   -0.092217
    32  C   -0.103464
    33  C    0.016814
    34  C   -0.100838
    35  C    0.081019
    36  C    0.127277
    37  C   -0.351654
    38  C   -0.371636
    39  C   -0.131638
    40  C   -0.126905
    41  C   -0.082990
    42  C   -0.105965
    43  H    0.078912
    44  H    0.095485
    45  H    0.055937
    46  H    0.078541
    47  H    0.042319
    48  H    0.085417
    49  H    0.127732
    50  H    0.135043
    51  H    0.126432
    52  H    0.099484
    53  H    0.103327
    54  H    0.095619
    55  H    0.074016
    56  H    0.107980
    57  H    0.092989
    58  H    0.093370
    59  H    0.076892
    60  H    0.114325
    61  H    0.100113
    62  H    0.103183
    63  H    0.079653
    64  H    0.088628
    65  H    0.095949
    66  H    0.081547
    67  H    0.105384
    68  H    0.109229
    69  H    0.080401
    70  H    0.099298
    71  H    0.117445
    72  H    0.103563
    73  H    0.306776
    74  H    0.287433
    75  H    0.107473
    76  H    0.084870
    77  H    0.092493
    78  H    0.108035
    79  H    0.098815
    80  H    0.121384
    81  H    0.118573
    82  H    0.112259
    83  H    0.093291
    84  H    0.081452
    85  H    0.089305
    86  H    0.073079
    87  H    0.010379
    88  H    0.087317
    89  H    0.131476
    90  H    0.115793
    91  H    0.080626
    92  H    0.109295
    93  H    0.142366
    94  H    0.119991
    95  H    0.086661
    96  H    0.077211
    97  H    0.089078
    98  H    0.070490
 Sum of Mulliken charges =  -0.00000

 Dipole moment (field-independent basis, Debye):
    X=             -1.0201    Y=             -1.4189    Z=              2.0620  Tot=              2.7029
 Quadrupole moment (field-independent basis, Debye-Ang):
   XX=           -291.5195   YY=           -251.9162   ZZ=           -260.2453
   XY=             17.4572   XZ=              2.5263   YZ=              1.9756

 Normal termination of Gaussian 16 at Fri Jun 28 13:32:22 2019.
