 Gaussian 16, Revision A.03,
 Gaussian 16:  ES64L-G16RevA.03 25-Dec-2016

 -------------------------------------
 # td=(NStates=1) CAM-B3LYP/6-31G(d,p)
 -------------------------------------

 --
 TD
 --
 Symbolic Z-matrix:
 Charge =  0 Multiplicity = 1

                         Standard orientation:
 ---------------------------------------------------------------------
 Center     Atomic      Atomic             Coordinates (Angstroms)
 Number     Number       Type             X           Y           Z
 ---------------------------------------------------------------------
      1          8           0       14.706399   -2.079859   -0.529668
      2          8           0      -14.870013    1.989349    0.602737
      3          6           0       11.331895   -1.162874    1.121888
      4          6           0      -12.306004   -0.907970    0.832108
      5          6           0       12.892442   -1.531464    0.968020
      6          6           0      -13.704537   -0.129669    0.817904
      7          6           0       13.296180   -1.924523   -0.310593
      8          6           0      -13.562027    1.371269    0.670566
      9          6           0       10.974543   -0.297159   -0.062155
     10          6           0      -11.302194   -0.247933   -0.168937
     11          6           0       13.136594   -0.691762   -1.292869
     12          6           0      -12.797296    1.633520   -0.677362
     13          6           0       11.703766   -0.057107   -1.193387
     14          6           0      -11.580734    0.810627   -0.859440
     15          6           0       11.166511   -0.572626    2.467447
     16          6           0       10.608647   -2.574696    1.054052
     17          6           0      -11.600435   -0.844477    2.157343
     18          6           0      -12.507777   -2.392228    0.493377
     19          6           0        9.671950    0.287680    0.180981
     20          6           0      -10.083351   -1.022216   -0.439633
     21          6           0       11.412934    0.936254   -2.356656
     22          6           0      -10.737028    1.558199   -1.900345
     23          6           0        9.389523    1.608952    0.101344
     24          6           0       -8.821432   -0.584657   -0.247602
     25          6           0        8.060627    2.190758    0.268546
     26          6           0       -7.557264   -1.310573   -0.515411
     27          6           0        8.072616    3.738510    0.638477
     28          6           0       -7.666266   -2.761791   -0.782772
     29          6           0        6.854242    1.517168    0.027903
     30          6           0       -6.461496   -0.696192   -0.236877
     31          6           0        5.559276    1.955800    0.353318
     32          6           0       -5.062897   -1.166505   -0.375113
     33          6           0        4.420388    1.276896   -0.075600
     34          6           0       -4.005762   -0.399562   -0.240885
     35          6           0        3.130163    1.621673    0.205752
     36          6           0       -2.651212   -0.820114   -0.511764
     37          6           0        2.776485    3.029099    0.629516
     38          6           0       -2.284123   -2.198639   -0.993389
     39          6           0        2.119697    0.705033   -0.097713
     40          6           0       -1.708354    0.145241   -0.281912
     41          6           0        0.684112    0.880029    0.003935
     42          6           0       -0.228003   -0.138752   -0.272238
     43          1           0       13.449117   -0.648810    1.433769
     44          1           0       12.977123   -2.582495    1.693310
     45          1           0      -14.194745   -0.483732    1.745703
     46          1           0      -14.342367   -0.441189    0.067076
     47          1           0       12.754098   -2.866253   -0.746902
     48          1           0      -12.870071    1.860459    1.391049
     49          1           0       13.921416    0.064529   -1.054551
     50          1           0       13.324442   -1.113123   -2.294025
     51          1           0      -13.616956    1.343575   -1.352469
     52          1           0      -12.612677    2.785148   -0.854547
     53          1           0       11.595472   -1.004183    3.524071
     54          1           0       10.057234   -0.140472    2.743796
     55          1           0       11.826764    0.279269    2.321477
     56          1           0       11.040853   -3.057319    0.104733
     57          1           0       10.894265   -3.271593    1.853435
     58          1           0        9.526468   -2.421001    0.915649
     59          1           0      -11.689862    0.290092    2.381727
     60          1           0      -10.673658   -1.080438    2.137781
     61          1           0      -12.239139   -1.302226    2.834807
     62          1           0      -13.562722   -2.578110    0.956016
     63          1           0      -11.749791   -2.993781    0.735387
     64          1           0      -12.846475   -2.669696   -0.484440
     65          1           0        8.793225   -0.407835    0.356061
     66          1           0      -10.191003   -1.950541   -1.023466
     67          1           0       10.288467    1.224613   -2.363970
     68          1           0       11.846881    1.891926   -2.052823
     69          1           0       11.675614    0.582011   -3.310145
     70          1           0      -11.418292    2.012955   -2.657775
     71          1           0       -9.831445    1.045493   -2.290495
     72          1           0      -10.254598    2.343520   -1.341096
     73          1           0       15.039972   -2.821779    0.103804
     74          1           0      -15.444507    1.551514    1.430694
     75          1           0       10.208013    2.386193   -0.016751
     76          1           0       -8.729245    0.446768    0.118796
     77          1           0        8.690997    4.146784   -0.141924
     78          1           0        6.997261    4.170022    0.431012
     79          1           0        8.472759    4.030230    1.748415
     80          1           0       -8.269299   -3.281418    0.072597
     81          1           0       -8.283283   -2.988848   -1.659371
     82          1           0       -6.714014   -3.188646   -0.713131
     83          1           0        6.947926    0.530026   -0.204306
     84          1           0       -6.360427    0.347740    0.185012
     85          1           0        5.507524    2.983041    0.708358
     86          1           0       -4.857531   -2.204489   -0.832738
     87          1           0        4.537664    0.259100   -0.590200
     88          1           0       -4.253830    0.610394    0.235310
     89          1           0        3.260927    3.366573    1.632020
     90          1           0        1.726320    3.255790    0.861953
     91          1           0        3.187813    3.730772   -0.133867
     92          1           0       -2.771919   -2.912084   -0.188920
     93          1           0       -2.718152   -2.277049   -1.987129
     94          1           0       -1.224037   -2.556215   -0.873167
     95          1           0        2.316837   -0.340704   -0.439585
     96          1           0       -2.135979    1.146422    0.147773
     97          1           0        0.283489    1.856566    0.272323
     98          1           0        0.209603   -1.232733   -0.719630
 ---------------------------------------------------------------------

 SCF Done:  E(RCAM-B3LYP) =  -1707.04577516     A.U. after   14 cycles

 Excitation energies and oscillator strengths:

 Excited State   1:      Singlet-A      2.6127 eV  474.54 nm  f=3.3701  <S**2>=0.000
     155 ->158        -0.14483
     156 ->157         0.69038
 This state for optimization and/or second-order correction.
 Total Energy, E(TD-HF/TD-DFT) =  -1706.94975905
 Copying the excited state density for this state as the 1-particle RhoCI density.

 The electronic state is 1-A.
 Alpha  occ. eigenvalues --  -19.22269 -19.21515 -10.30578 -10.30469 -10.28763
 Alpha  occ. eigenvalues --  -10.28179 -10.27895 -10.27724 -10.27454 -10.27437
 Alpha  occ. eigenvalues --  -10.27329 -10.27329 -10.27142 -10.27124 -10.26813
 Alpha  occ. eigenvalues --  -10.26720 -10.26676 -10.26443 -10.26443 -10.26373
 Alpha  occ. eigenvalues --  -10.26359 -10.26342 -10.26277 -10.26206 -10.26200
 Alpha  occ. eigenvalues --  -10.26039 -10.26000 -10.25971 -10.25771 -10.25734
 Alpha  occ. eigenvalues --  -10.25600 -10.25472 -10.25471 -10.25348 -10.25302
 Alpha  occ. eigenvalues --  -10.25217 -10.25178 -10.24886 -10.24655 -10.24512
 Alpha  occ. eigenvalues --  -10.23978 -10.22595  -1.08197  -1.06722  -0.93712
 Alpha  occ. eigenvalues --   -0.93536  -0.92208  -0.91686  -0.90531  -0.89410
 Alpha  occ. eigenvalues --   -0.87373  -0.86654  -0.85933  -0.85251  -0.84534
 Alpha  occ. eigenvalues --   -0.83011  -0.81822  -0.80176  -0.79429  -0.77441
 Alpha  occ. eigenvalues --   -0.77250  -0.76973  -0.76131  -0.75939  -0.75891
 Alpha  occ. eigenvalues --   -0.75795  -0.75093  -0.74434  -0.73517  -0.69981
 Alpha  occ. eigenvalues --   -0.68216  -0.66823  -0.65216  -0.64190  -0.63870
 Alpha  occ. eigenvalues --   -0.63402  -0.62407  -0.60451  -0.60167  -0.60116
 Alpha  occ. eigenvalues --   -0.58945  -0.57876  -0.57863  -0.57180  -0.55756
 Alpha  occ. eigenvalues --   -0.55377  -0.55247  -0.54386  -0.53733  -0.53319
 Alpha  occ. eigenvalues --   -0.52606  -0.52487  -0.52035  -0.51762  -0.51256
 Alpha  occ. eigenvalues --   -0.50585  -0.50211  -0.49790  -0.49474  -0.49302
 Alpha  occ. eigenvalues --   -0.49237  -0.48640  -0.48366  -0.48084  -0.48001
 Alpha  occ. eigenvalues --   -0.47805  -0.47186  -0.47040  -0.46822  -0.46558
 Alpha  occ. eigenvalues --   -0.46179  -0.45404  -0.45271  -0.44904  -0.44722
 Alpha  occ. eigenvalues --   -0.44044  -0.43975  -0.43754  -0.43501  -0.43290
 Alpha  occ. eigenvalues --   -0.43043  -0.42974  -0.42572  -0.42528  -0.42043
 Alpha  occ. eigenvalues --   -0.42015  -0.41292  -0.41184  -0.40970  -0.40859
 Alpha  occ. eigenvalues --   -0.40775  -0.40422  -0.39817  -0.39360  -0.39176
 Alpha  occ. eigenvalues --   -0.39001  -0.38900  -0.38844  -0.38108  -0.38076
 Alpha  occ. eigenvalues --   -0.37509  -0.36768  -0.36116  -0.35657  -0.35508
 Alpha  occ. eigenvalues --   -0.34869  -0.34184  -0.33497  -0.32416  -0.32060
 Alpha  occ. eigenvalues --   -0.31535  -0.29582  -0.28591  -0.27285  -0.24529
 Alpha  occ. eigenvalues --   -0.20283
 Alpha virt. eigenvalues --   -0.04569   0.00176   0.03491   0.06338   0.08311
 Alpha virt. eigenvalues --    0.09423   0.10089   0.10911   0.11131   0.11517
 Alpha virt. eigenvalues --    0.12081   0.12680   0.12996   0.13299   0.13501

 Mulliken charges:
               1
     1  O   -0.564712
     2  O   -0.570231
     3  C   -0.009820
     4  C   -0.026049
     5  C   -0.169072
     6  C   -0.214743
     7  C    0.176967
     8  C    0.166673
     9  C    0.047562
    10  C    0.024952
    11  C   -0.219138
    12  C   -0.248801
    13  C    0.039420
    14  C    0.101143
    15  C   -0.292167
    16  C   -0.298715
    17  C   -0.268790
    18  C   -0.305615
    19  C   -0.121242
    20  C   -0.159972
    21  C   -0.358033
    22  C   -0.366794
    23  C   -0.091102
    24  C   -0.084986
    25  C    0.049721
    26  C    0.125110
    27  C   -0.357962
    28  C   -0.369905
    29  C   -0.090956
    30  C   -0.127181
    31  C   -0.091380
    32  C   -0.103142
    33  C   -0.123513
    34  C   -0.100509
    35  C    0.146724
    36  C    0.115599
    37  C   -0.379735
    38  C   -0.365591
    39  C   -0.141951
    40  C   -0.137761
    41  C   -0.070028
    42  C   -0.108303
    43  H    0.099887
    44  H    0.036165
    45  H    0.078294
    46  H    0.114888
    47  H    0.082613
    48  H    0.083792
    49  H    0.123625
    50  H    0.108839
    51  H    0.118843
    52  H    0.098452
    53  H    0.094901
    54  H    0.093774
    55  H    0.102567
    56  H    0.086127
    57  H    0.108411
    58  H    0.099820
    59  H    0.079060
    60  H    0.117861
    61  H    0.098672
    62  H    0.078845
    63  H    0.114983
    64  H    0.105714
    65  H    0.095935
    66  H    0.088824
    67  H    0.111814
    68  H    0.127616
    69  H    0.121728
    70  H    0.112770
    71  H    0.109170
    72  H    0.122277
    73  H    0.293414
    74  H    0.306344
    75  H    0.082013
    76  H    0.077858
    77  H    0.124373
    78  H    0.097201
    79  H    0.108065
    80  H    0.109927
    81  H    0.120101
    82  H    0.116851
    83  H    0.068851
    84  H    0.076043
    85  H    0.080682
    86  H    0.072704
    87  H    0.082404
    88  H    0.080653
    89  H    0.106459
    90  H    0.113464
    91  H    0.125301
    92  H    0.108166
    93  H    0.136240
    94  H    0.117359
    95  H    0.076862
    96  H    0.084891
    97  H    0.084239
    98  H    0.077295
 Sum of Mulliken charges =  -0.00000

 Dipole moment (field-independent basis, Debye):
    X=              0.5581    Y=             -1.6768    Z=              1.3915  Tot=              2.2493
 Quadrupole moment (field-independent basis, Debye-Ang):
   XX=           -269.5020   YY=           -246.9367   ZZ=           -261.9351
   XY=             16.5537   XZ=             -2.0967   YZ=              2.7244

 Normal termination of Gaussian 16 at Mon Jul  1 23:29:27 2019.
