 Gaussian 16, Revision A.03,
 Gaussian 16:  ES64L-G16RevA.03 25-Dec-2016

 -------------------------------------
 # td=(NStates=1) CAM-B3LYP/6-31G(d,p)
 -------------------------------------

 --
 TD
 --
 Symbolic Z-matrix:
 Charge =  0 Multiplicity = 1

                         Standard orientation:
 ---------------------------------------------------------------------
 Center     Atomic      Atomic             Coordinates (Angstroms)
 Number     Number       Type             X           Y           Z
 ---------------------------------------------------------------------
      1          8           0       14.741418   -2.117343   -0.349277
      2          8           0      -15.030437    1.813197    0.723552
      3          6           0       11.535034   -1.054759    1.267763
      4          6           0      -12.267691   -0.863304    0.880741
      5          6           0       12.989710   -1.432219    1.177160
      6          6           0      -13.646300   -0.279314    0.960850
      7          6           0       13.327810   -1.865715   -0.210661
      8          6           0      -13.681499    1.274015    0.811531
      9          6           0       11.017275   -0.347309    0.057305
     10          6           0      -11.359106   -0.372548   -0.102167
     11          6           0       13.007645   -0.853149   -1.284972
     12          6           0      -12.919431    1.610593   -0.459224
     13          6           0       11.634358   -0.385102   -1.148869
     14          6           0      -11.598067    0.757468   -0.812634
     15          6           0       11.177828   -0.168756    2.454068
     16          6           0       10.770443   -2.405514    1.571697
     17          6           0      -11.540893   -0.754292    2.391495
     18          6           0      -12.349681   -2.452721    0.772453
     19          6           0        9.687528    0.329546    0.227697
     20          6           0      -10.066260   -1.061806   -0.300274
     21          6           0       11.161980    0.346470   -2.437418
     22          6           0      -10.808695    1.423596   -1.881072
     23          6           0        9.352596    1.616011   -0.036197
     24          6           0       -8.875515   -0.512254   -0.342999
     25          6           0        8.097290    2.234829    0.217293
     26          6           0       -7.638658   -1.270057   -0.586216
     27          6           0        8.100526    3.611761    0.650124
     28          6           0       -7.723579   -2.629917   -1.186182
     29          6           0        6.927304    1.607020   -0.100213
     30          6           0       -6.433507   -0.554482   -0.276913
     31          6           0        5.586955    2.054061    0.023779
     32          6           0       -5.112622   -1.061344   -0.522634
     33          6           0        4.438460    1.282002   -0.288244
     34          6           0       -4.013537   -0.314677   -0.405980
     35          6           0        3.065749    1.700182    0.013120
     36          6           0       -2.680834   -0.734562   -0.592130
     37          6           0        2.776484    3.099671    0.509742
     38          6           0       -2.342868   -2.145119   -0.988092
     39          6           0        2.139787    0.783344   -0.291537
     40          6           0       -1.692579    0.162194   -0.449741
     41          6           0        0.637865    0.896705   -0.104437
     42          6           0       -0.204330   -0.035927   -0.446096
     43          1           0       13.679968   -0.549719    1.384908
     44          1           0       13.200261   -2.055999    1.993541
     45          1           0      -14.314987   -0.695675    1.749109
     46          1           0      -14.197941   -0.510504   -0.044096
     47          1           0       12.674252   -2.843473   -0.482107
     48          1           0      -13.061354    1.785765    1.569193
     49          1           0       13.775121   -0.030625   -1.141433
     50          1           0       13.239388   -1.248806   -2.274350
     51          1           0      -13.461346    1.404546   -1.329473
     52          1           0      -12.647430    2.683236   -0.670882
     53          1           0       11.828608   -0.687440    3.167439
     54          1           0       10.274792   -0.135813    2.787416
     55          1           0       11.680185    0.770929    2.274453
     56          1           0       10.851653   -3.097897    0.680704
     57          1           0       10.983655   -2.708007    2.485695
     58          1           0        9.616876   -2.207604    1.367414
     59          1           0      -11.273656    0.356279    2.439766
     60          1           0      -10.502682   -1.073771    2.342212
     61          1           0      -11.873675   -1.301527    3.171119
     62          1           0      -13.076410   -2.779449    1.547966
     63          1           0      -11.451095   -2.932533    1.040143
     64          1           0      -12.550737   -2.725002   -0.311513
     65          1           0        8.874930   -0.226783    0.544205
     66          1           0      -10.281745   -2.072078   -0.577131
     67          1           0       10.166904    0.332548   -2.443551
     68          1           0       11.850407    1.127712   -2.593520
     69          1           0       11.458283   -0.531760   -3.053539
     70          1           0      -11.425079    1.839935   -2.690735
     71          1           0      -10.167145    0.694751   -2.250026
     72          1           0      -10.169440    2.461029   -1.638322
     73          1           0       15.075371   -2.718605    0.300629
     74          1           0      -15.471033    1.753223    1.595687
     75          1           0       10.380391    2.122422   -0.414005
     76          1           0       -8.693675    0.520434   -0.024082
     77          1           0        8.596364    4.382276   -0.103727
     78          1           0        7.021300    3.917437    0.807869
     79          1           0        8.683990    3.706119    1.566534
     80          1           0       -8.421452   -3.316415   -0.538684
     81          1           0       -8.037482   -2.679222   -2.112495
     82          1           0       -6.705127   -3.067813   -0.926688
     83          1           0        7.185817    0.660433   -0.556789
     84          1           0       -6.445663    0.451604    0.386499
     85          1           0        5.397679    3.024000    0.419332
     86          1           0       -4.883686   -2.066693   -1.203387
     87          1           0        4.577662    0.211425   -0.579078
     88          1           0       -4.373658    0.692769   -0.189193
     89          1           0        2.865724    3.083686    1.492161
     90          1           0        1.847705    3.239611    0.319038
     91          1           0        3.182998    3.857032   -0.161029
     92          1           0       -2.765896   -2.751680   -0.061695
     93          1           0       -2.828630   -2.255069   -2.049008
     94          1           0       -1.329547   -2.545380   -1.394237
     95          1           0        2.391297   -0.238555   -0.430333
     96          1           0       -1.915169    1.222975   -0.238391
     97          1           0        0.217707    1.757931    0.393904
     98          1           0        0.196757   -0.980775   -0.729136
 ---------------------------------------------------------------------

 SCF Done:  E(RCAM-B3LYP) =  -1706.99044026     A.U. after   13 cycles

 Excitation energies and oscillator strengths:

 Excited State   1:      Singlet-A      2.9448 eV  421.03 nm  f=3.7212  <S**2>=0.000
     155 ->158         0.21747
     156 ->157         0.66570
 This state for optimization and/or second-order correction.
 Total Energy, E(TD-HF/TD-DFT) =  -1706.88222042
 Copying the excited state density for this state as the 1-particle RhoCI density.

 The electronic state is 1-A.
 Alpha  occ. eigenvalues --  -19.21296 -19.20602 -10.31182 -10.30843 -10.28053
 Alpha  occ. eigenvalues --  -10.28050 -10.27993 -10.27644 -10.27167 -10.27135
 Alpha  occ. eigenvalues --  -10.26920 -10.26745 -10.26676 -10.26534 -10.26444
 Alpha  occ. eigenvalues --  -10.26386 -10.26272 -10.26137 -10.25937 -10.25887
 Alpha  occ. eigenvalues --  -10.25785 -10.25736 -10.25725 -10.25661 -10.25616
 Alpha  occ. eigenvalues --  -10.25607 -10.25595 -10.25543 -10.25349 -10.25246
 Alpha  occ. eigenvalues --  -10.25126 -10.25063 -10.25030 -10.24873 -10.24869
 Alpha  occ. eigenvalues --  -10.24790 -10.24768 -10.24607 -10.24108 -10.23631
 Alpha  occ. eigenvalues --  -10.23454 -10.22587  -1.08780  -1.07842  -0.94285
 Alpha  occ. eigenvalues --   -0.93738  -0.92260  -0.91852  -0.90899  -0.89942
 Alpha  occ. eigenvalues --   -0.87986  -0.87343  -0.85863  -0.85441  -0.84957
 Alpha  occ. eigenvalues --   -0.83260  -0.82669  -0.80642  -0.80125  -0.79044
 Alpha  occ. eigenvalues --   -0.76951  -0.76713  -0.76528  -0.76143  -0.75860
 Alpha  occ. eigenvalues --   -0.75644  -0.75410  -0.74985  -0.73975  -0.70240
 Alpha  occ. eigenvalues --   -0.68954  -0.67160  -0.65971  -0.64662  -0.64504
 Alpha  occ. eigenvalues --   -0.64120  -0.62703  -0.61904  -0.60420  -0.59447
 Alpha  occ. eigenvalues --   -0.59142  -0.58606  -0.57942  -0.57698  -0.55975
 Alpha  occ. eigenvalues --   -0.55610  -0.55065  -0.54836  -0.54594  -0.53742
 Alpha  occ. eigenvalues --   -0.53162  -0.53054  -0.52771  -0.52653  -0.51917
 Alpha  occ. eigenvalues --   -0.51349  -0.51232  -0.50889  -0.50229  -0.49842
 Alpha  occ. eigenvalues --   -0.49466  -0.49352  -0.48979  -0.48876  -0.48818
 Alpha  occ. eigenvalues --   -0.47949  -0.47801  -0.47614  -0.47147  -0.46630
 Alpha  occ. eigenvalues --   -0.46291  -0.45848  -0.45554  -0.45382  -0.44468
 Alpha  occ. eigenvalues --   -0.44387  -0.44085  -0.43666  -0.43565  -0.43258
 Alpha  occ. eigenvalues --   -0.43133  -0.42546  -0.42422  -0.42277  -0.42140
 Alpha  occ. eigenvalues --   -0.41764  -0.41404  -0.41054  -0.40854  -0.40180
 Alpha  occ. eigenvalues --   -0.40051  -0.39714  -0.39576  -0.39502  -0.39217
 Alpha  occ. eigenvalues --   -0.39058  -0.38769  -0.38355  -0.37623  -0.37133
 Alpha  occ. eigenvalues --   -0.36942  -0.36918  -0.36774  -0.35775  -0.35454
 Alpha  occ. eigenvalues --   -0.35208  -0.35051  -0.33933  -0.32300  -0.32081
 Alpha  occ. eigenvalues --   -0.31747  -0.29304  -0.27497  -0.26799  -0.23522
 Alpha  occ. eigenvalues --   -0.21161
 Alpha virt. eigenvalues --   -0.03587  -0.00642   0.03895   0.06026   0.07495
 Alpha virt. eigenvalues --    0.09277   0.10865   0.12126   0.12535   0.12916
 Alpha virt. eigenvalues --    0.13007   0.13062   0.13492   0.13776   0.14067

 Mulliken charges:
               1
     1  O   -0.571112
     2  O   -0.565327
     3  C   -0.039456
     4  C   -0.008992
     5  C   -0.182028
     6  C   -0.190167
     7  C    0.173881
     8  C    0.166117
     9  C    0.059195
    10  C    0.067193
    11  C   -0.204792
    12  C   -0.238517
    13  C   -0.002380
    14  C    0.042373
    15  C   -0.278747
    16  C   -0.294660
    17  C   -0.329783
    18  C   -0.314890
    19  C   -0.132728
    20  C   -0.133374
    21  C   -0.322013
    22  C   -0.359104
    23  C   -0.108093
    24  C   -0.075660
    25  C    0.093964
    26  C    0.087592
    27  C   -0.362982
    28  C   -0.362995
    29  C   -0.094697
    30  C   -0.152386
    31  C   -0.108237
    32  C   -0.088833
    33  C   -0.113858
    34  C   -0.098176
    35  C    0.085248
    36  C    0.115759
    37  C   -0.351327
    38  C   -0.367171
    39  C   -0.138593
    40  C   -0.145437
    41  C   -0.091821
    42  C   -0.065524
    43  H    0.090106
    44  H    0.090542
    45  H    0.085995
    46  H    0.094526
    47  H    0.056597
    48  H    0.085238
    49  H    0.114908
    50  H    0.110181
    51  H    0.125010
    52  H    0.099021
    53  H    0.076631
    54  H    0.118002
    55  H    0.103795
    56  H    0.100112
    57  H    0.111135
    58  H    0.081516
    59  H    0.092785
    60  H    0.108540
    61  H    0.109654
    62  H    0.096105
    63  H    0.114194
    64  H    0.093786
    65  H    0.081955
    66  H    0.089019
    67  H    0.123892
    68  H    0.129473
    69  H    0.099555
    70  H    0.110729
    71  H    0.125276
    72  H    0.087354
    73  H    0.300407
    74  H    0.309163
    75  H    0.077562
    76  H    0.088857
    77  H    0.106709
    78  H    0.099711
    79  H    0.120254
    80  H    0.104547
    81  H    0.140531
    82  H    0.113851
    83  H    0.076843
    84  H    0.087635
    85  H    0.087991
    86  H    0.077132
    87  H    0.082497
    88  H    0.083575
    89  H    0.138879
    90  H    0.120717
    91  H    0.121791
    92  H    0.119214
    93  H    0.111609
    94  H    0.117053
    95  H    0.084348
    96  H    0.073368
    97  H    0.080213
    98  H    0.072450
 Sum of Mulliken charges =  -0.00000

 Dipole moment (field-independent basis, Debye):
    X=              0.1674    Y=             -1.2384    Z=              2.1338  Tot=              2.4727
 Quadrupole moment (field-independent basis, Debye-Ang):
   XX=           -285.0524   YY=           -246.6351   ZZ=           -256.5953
   XY=              5.7063   XZ=              0.4503   YZ=              1.7398

 Normal termination of Gaussian 16 at Tue Jul  2 05:29:45 2019.
