 Gaussian 16, Revision A.03,
 Gaussian 16:  ES64L-G16RevA.03 25-Dec-2016

 -------------------------------------
 # td=(NStates=1) CAM-B3LYP/6-31G(d,p)
 -------------------------------------

 --
 TD
 --
 Symbolic Z-matrix:
 Charge =  0 Multiplicity = 1

                         Standard orientation:
 ---------------------------------------------------------------------
 Center     Atomic      Atomic             Coordinates (Angstroms)
 Number     Number       Type             X           Y           Z
 ---------------------------------------------------------------------
      1          8           0       14.848354   -1.983213   -0.297296
      2          8           0      -14.868158    2.063344    0.728153
      3          6           0       11.621451   -1.048628    1.205230
      4          6           0      -12.443061   -0.853943    0.779705
      5          6           0       13.083496   -1.159348    1.145233
      6          6           0      -13.722512    0.011098    0.709623
      7          6           0       13.513963   -1.720185   -0.253414
      8          6           0      -13.587334    1.454032    0.804702
      9          6           0       11.064793   -0.289113   -0.090891
     10          6           0      -11.357935   -0.261493   -0.133965
     11          6           0       13.134732   -0.839145   -1.323010
     12          6           0      -12.746539    1.895099   -0.470215
     13          6           0       11.703450   -0.116479   -1.162344
     14          6           0      -11.612959    0.896969   -0.696129
     15          6           0       11.298729   -0.068984    2.416390
     16          6           0       10.844731   -2.363110    1.389828
     17          6           0      -11.989321   -1.037850    2.253608
     18          6           0      -12.633249   -2.355785    0.277475
     19          6           0        9.679593    0.308413    0.089848
     20          6           0      -10.200200   -1.156526   -0.437510
     21          6           0       11.204914    0.487404   -2.449865
     22          6           0      -10.574211    1.578041   -1.791559
     23          6           0        9.276564    1.548108   -0.104366
     24          6           0       -8.867613   -0.661075   -0.452769
     25          6           0        7.960559    2.132983   -0.020895
     26          6           0       -7.650909   -1.310193   -0.565970
     27          6           0        8.015485    3.598496    0.462791
     28          6           0       -7.696532   -2.859002   -0.918127
     29          6           0        6.844187    1.379490   -0.199429
     30          6           0       -6.413612   -0.735261   -0.272715
     31          6           0        5.470292    1.861822    0.028582
     32          6           0       -5.118384   -1.204537   -0.437718
     33          6           0        4.410141    1.128510    0.031512
     34          6           0       -3.996944   -0.399847   -0.255819
     35          6           0        3.054340    1.499412    0.241935
     36          6           0       -2.687603   -0.863641   -0.404218
     37          6           0        2.704338    2.942343    0.476505
     38          6           0       -2.410301   -2.265392   -0.772284
     39          6           0        2.086440    0.559268    0.106795
     40          6           0       -1.631288    0.086273   -0.274286
     41          6           0        0.587672    0.874104    0.113337
     42          6           0       -0.263638   -0.137973   -0.152550
     43          1           0       13.616628   -0.329014    1.161704
     44          1           0       13.586159   -1.684631    2.067965
     45          1           0      -14.383272   -0.377573    1.382880
     46          1           0      -14.139229   -0.197179   -0.256125
     47          1           0       12.958071   -2.793863   -0.266326
     48          1           0      -12.896034    1.796444    1.664704
     49          1           0       13.840735   -0.117773   -1.176204
     50          1           0       13.376966   -1.306175   -2.359319
     51          1           0      -13.228780    1.846687   -1.430174
     52          1           0      -12.114162    2.986949   -0.584851
     53          1           0       11.801235   -0.501074    3.300053
     54          1           0       10.271698   -0.070080    2.610851
     55          1           0       11.714160    0.969413    2.140669
     56          1           0       10.970970   -2.836751    0.386087
     57          1           0       11.339708   -2.966344    2.087620
     58          1           0        9.786118   -2.249902    1.667693
     59          1           0      -11.715642    0.016710    2.653432
     60          1           0      -10.840932   -1.530274    2.267120
     61          1           0      -12.559244   -1.592038    2.931887
     62          1           0      -13.598975   -2.837335    0.778445
     63          1           0      -11.737231   -2.855235    0.489965
     64          1           0      -12.603647   -2.195048   -0.852148
     65          1           0        8.931595   -0.417013    0.584270
     66          1           0      -10.190438   -2.332635   -0.803966
     67          1           0       10.335342    0.786659   -2.362216
     68          1           0       11.805433    1.422817   -2.774371
     69          1           0       11.377526   -0.186513   -3.318474
     70          1           0      -11.234017    2.141581   -2.513670
     71          1           0       -9.847352    0.936781   -2.334006
     72          1           0      -10.131747    2.448735   -1.241661
     73          1           0       15.355482   -2.447588    0.519627
     74          1           0      -15.403759    1.920639    1.547926
     75          1           0       10.076418    2.311690   -0.515499
     76          1           0       -8.895779    0.338911   -0.340918
     77          1           0        8.641311    3.980586   -0.284656
     78          1           0        7.152555    3.990674    0.786274
     79          1           0        8.832745    3.548408    1.288186
     80          1           0       -8.100556   -3.265918   -0.099633
     81          1           0       -8.366096   -3.074444   -1.694008
     82          1           0       -6.551244   -3.029267   -1.213609
     83          1           0        7.107643    0.236443   -0.462476
     84          1           0       -6.483268    0.402502    0.023296
     85          1           0        5.416561    2.935101    0.395019
     86          1           0       -5.094238   -2.321258   -0.517568
     87          1           0        4.608932    0.064220   -0.250593
     88          1           0       -4.012723    0.709290    0.069709
     89          1           0        3.099798    3.163035    1.509038
     90          1           0        1.657352    3.173062    0.508469
     91          1           0        3.066253    3.611258   -0.272887
     92          1           0       -2.531453   -2.837463   -0.011504
     93          1           0       -3.006436   -2.367946   -1.776291
     94          1           0       -1.303287   -2.346754   -1.308054
     95          1           0        2.242998   -0.485811   -0.233093
     96          1           0       -1.979540    1.090465   -0.106455
     97          1           0        0.294821    1.979209    0.105587
     98          1           0        0.107955   -1.102556   -0.372883
 ---------------------------------------------------------------------

 SCF Done:  E(RCAM-B3LYP) =  -1706.95437903     A.U. after   15 cycles

 Excitation energies and oscillator strengths:

 Excited State   1:      Singlet-A      2.4934 eV  497.25 nm  f=3.5768  <S**2>=0.000
     155 ->158        -0.13835
     156 ->157         0.69315
 This state for optimization and/or second-order correction.
 Total Energy, E(TD-HF/TD-DFT) =  -1706.86274925
 Copying the excited state density for this state as the 1-particle RhoCI density.

 The electronic state is 1-A.
 Alpha  occ. eigenvalues --  -19.21728 -19.21266 -10.31760 -10.30374 -10.27891
 Alpha  occ. eigenvalues --  -10.27365 -10.27324 -10.27281 -10.27185 -10.27104
 Alpha  occ. eigenvalues --  -10.27005 -10.27003 -10.26979 -10.26975 -10.26855
 Alpha  occ. eigenvalues --  -10.26634 -10.26633 -10.26626 -10.26578 -10.26495
 Alpha  occ. eigenvalues --  -10.26373 -10.26135 -10.26101 -10.26007 -10.25959
 Alpha  occ. eigenvalues --  -10.25930 -10.25812 -10.25660 -10.25450 -10.25437
 Alpha  occ. eigenvalues --  -10.25391 -10.25342 -10.25135 -10.25122 -10.24909
 Alpha  occ. eigenvalues --  -10.24752 -10.24738 -10.24424 -10.24275 -10.24177
 Alpha  occ. eigenvalues --  -10.23958 -10.23533  -1.09345  -1.09242  -0.93690
 Alpha  occ. eigenvalues --   -0.93260  -0.92318  -0.91788  -0.90484  -0.89968
 Alpha  occ. eigenvalues --   -0.87637  -0.87125  -0.85562  -0.85265  -0.84779
 Alpha  occ. eigenvalues --   -0.83605  -0.82546  -0.80672  -0.78980  -0.78071
 Alpha  occ. eigenvalues --   -0.77243  -0.76976  -0.76608  -0.76302  -0.75846
 Alpha  occ. eigenvalues --   -0.75469  -0.74699  -0.74209  -0.73889  -0.71082
 Alpha  occ. eigenvalues --   -0.68830  -0.67463  -0.65876  -0.64877  -0.63886
 Alpha  occ. eigenvalues --   -0.63070  -0.62432  -0.62104  -0.59955  -0.59416
 Alpha  occ. eigenvalues --   -0.58907  -0.58666  -0.58384  -0.57339  -0.56375
 Alpha  occ. eigenvalues --   -0.56036  -0.55224  -0.54749  -0.54035  -0.53988
 Alpha  occ. eigenvalues --   -0.53197  -0.52763  -0.52532  -0.52181  -0.51159
 Alpha  occ. eigenvalues --   -0.50548  -0.50295  -0.49867  -0.49418  -0.49350
 Alpha  occ. eigenvalues --   -0.49222  -0.48961  -0.48383  -0.48051  -0.47847
 Alpha  occ. eigenvalues --   -0.47705  -0.47524  -0.47298  -0.47021  -0.46561
 Alpha  occ. eigenvalues --   -0.46277  -0.45861  -0.45338  -0.45126  -0.44830
 Alpha  occ. eigenvalues --   -0.44740  -0.44632  -0.44407  -0.43742  -0.43330
 Alpha  occ. eigenvalues --   -0.43079  -0.42758  -0.42711  -0.42084  -0.41832
 Alpha  occ. eigenvalues --   -0.41683  -0.41391  -0.41062  -0.41042  -0.40783
 Alpha  occ. eigenvalues --   -0.40569  -0.40448  -0.39843  -0.39317  -0.39044
 Alpha  occ. eigenvalues --   -0.38949  -0.38758  -0.38184  -0.37898  -0.37723
 Alpha  occ. eigenvalues --   -0.37056  -0.36802  -0.35916  -0.35783  -0.35083
 Alpha  occ. eigenvalues --   -0.34767  -0.34314  -0.33866  -0.33011  -0.32171
 Alpha  occ. eigenvalues --   -0.30458  -0.29682  -0.29275  -0.27108  -0.24154
 Alpha  occ. eigenvalues --   -0.19894
 Alpha virt. eigenvalues --   -0.05057   0.00063   0.03366   0.06648   0.08783
 Alpha virt. eigenvalues --    0.09953   0.10289   0.11248   0.11973   0.12037
 Alpha virt. eigenvalues --    0.12419   0.12825   0.12926   0.13447   0.13544

 Mulliken charges:
               1
     1  O   -0.583563
     2  O   -0.563415
     3  C   -0.008312
     4  C   -0.029946
     5  C   -0.188869
     6  C   -0.175037
     7  C    0.202368
     8  C    0.180945
     9  C    0.054914
    10  C    0.059362
    11  C   -0.216118
    12  C   -0.216686
    13  C    0.042518
    14  C    0.034996
    15  C   -0.293725
    16  C   -0.302359
    17  C   -0.293867
    18  C   -0.299837
    19  C   -0.142952
    20  C   -0.145669
    21  C   -0.332664
    22  C   -0.370211
    23  C   -0.098542
    24  C   -0.088978
    25  C    0.081778
    26  C    0.067268
    27  C   -0.347764
    28  C   -0.362955
    29  C   -0.127873
    30  C   -0.105418
    31  C   -0.096274
    32  C   -0.117774
    33  C   -0.091802
    34  C   -0.102779
    35  C    0.110811
    36  C    0.098989
    37  C   -0.369761
    38  C   -0.355665
    39  C   -0.146204
    40  C   -0.133546
    41  C   -0.092421
    42  C   -0.060822
    43  H    0.105348
    44  H    0.060104
    45  H    0.083806
    46  H    0.111252
    47  H    0.027877
    48  H    0.082170
    49  H    0.124182
    50  H    0.104796
    51  H    0.135889
    52  H    0.080674
    53  H    0.088330
    54  H    0.105885
    55  H    0.097074
    56  H    0.110679
    57  H    0.107198
    58  H    0.104068
    59  H    0.083171
    60  H    0.074387
    61  H    0.111460
    62  H    0.082908
    63  H    0.120772
    64  H    0.096958
    65  H    0.082373
    66  H    0.079378
    67  H    0.116956
    68  H    0.093160
    69  H    0.111554
    70  H    0.096132
    71  H    0.126733
    72  H    0.113975
    73  H    0.320335
    74  H    0.309452
    75  H    0.070990
    76  H    0.077638
    77  H    0.132386
    78  H    0.118356
    79  H    0.114270
    80  H    0.139839
    81  H    0.120563
    82  H    0.091640
    83  H    0.076083
    84  H    0.067480
    85  H    0.073153
    86  H    0.099020
    87  H    0.077059
    88  H    0.089499
    89  H    0.117760
    90  H    0.108319
    91  H    0.128222
    92  H    0.138424
    93  H    0.120284
    94  H    0.086983
    95  H    0.085999
    96  H    0.070209
    97  H    0.090722
    98  H    0.083919
 Sum of Mulliken charges =  -0.00000

 Dipole moment (field-independent basis, Debye):
    X=              1.2310    Y=             -0.2387    Z=              2.0912  Tot=              2.4383
 Quadrupole moment (field-independent basis, Debye-Ang):
   XX=           -251.7809   YY=           -249.3299   ZZ=           -259.6296
   XY=              7.6854   XZ=              0.1552   YZ=             -0.9665

 Normal termination of Gaussian 16 at Fri Jul  5 19:03:15 2019.
