 Gaussian 16, Revision A.03,
 Gaussian 16:  ES64L-G16RevA.03 25-Dec-2016

 -------------------------------------
 # td=(NStates=1) CAM-B3LYP/6-31G(d,p)
 -------------------------------------

 --
 TD
 --
 Symbolic Z-matrix:
 Charge =  0 Multiplicity = 1

                         Standard orientation:
 ---------------------------------------------------------------------
 Center     Atomic      Atomic             Coordinates (Angstroms)
 Number     Number       Type             X           Y           Z
 ---------------------------------------------------------------------
      1          8           0       14.746163   -2.131546   -0.115122
      2          8           0      -14.852943    1.935186    0.737241
      3          6           0       11.453324   -1.092234    1.337849
      4          6           0      -12.356576   -1.022185    0.817168
      5          6           0       12.880171   -1.395049    1.224765
      6          6           0      -13.575751   -0.188775    0.790799
      7          6           0       13.364843   -1.934734   -0.165108
      8          6           0      -13.493729    1.350417    0.840416
      9          6           0       10.871445   -0.393350    0.029387
     10          6           0      -11.220899   -0.246301    0.096966
     11          6           0       13.080191   -0.942132   -1.270702
     12          6           0      -12.804162    1.726409   -0.330357
     13          6           0       11.648765   -0.361438   -1.107000
     14          6           0      -11.454018    0.897758   -0.544664
     15          6           0       11.115476   -0.163350    2.562846
     16          6           0       10.560759   -2.380009    1.389228
     17          6           0      -11.797451   -0.925096    2.338412
     18          6           0      -12.623797   -2.343761    0.429851
     19          6           0        9.632813    0.335388    0.172432
     20          6           0      -10.011981   -1.013818   -0.307519
     21          6           0       11.180190    0.405568   -2.291521
     22          6           0      -10.572684    1.623550   -1.615356
     23          6           0        9.339475    1.628199   -0.053849
     24          6           0       -8.775478   -0.625434   -0.105013
     25          6           0        7.984951    2.270951    0.087905
     26          6           0       -7.662104   -1.398300   -0.367685
     27          6           0        7.971641    3.767984    0.497066
     28          6           0       -7.711537   -2.756377   -1.054629
     29          6           0        6.811074    1.503995   -0.118583
     30          6           0       -6.369735   -0.809917   -0.388612
     31          6           0        5.511394    2.003981    0.063381
     32          6           0       -5.021915   -1.215047   -0.555764
     33          6           0        4.470986    1.235046   -0.111522
     34          6           0       -3.938480   -0.379005   -0.495713
     35          6           0        3.070351    1.672132    0.008863
     36          6           0       -2.585736   -0.840351   -0.728435
     37          6           0        2.871086    3.075133    0.355007
     38          6           0       -2.264632   -2.229171   -1.097976
     39          6           0        2.109008    0.773993   -0.287910
     40          6           0       -1.609782    0.131446   -0.544228
     41          6           0        0.740060    1.031200   -0.271987
     42          6           0       -0.155896    0.005671   -0.524982
     43          1           0       13.539256   -0.566590    1.473274
     44          1           0       13.119965   -2.071662    2.078652
     45          1           0      -14.374056   -0.566802    1.578752
     46          1           0      -14.308089   -0.351413   -0.033911
     47          1           0       12.887982   -2.889016   -0.302864
     48          1           0      -13.079469    1.846354    1.712064
     49          1           0       13.719682   -0.131131   -1.267400
     50          1           0       13.392887   -1.388108   -2.193542
     51          1           0      -13.280745    1.632512   -1.442011
     52          1           0      -12.452135    2.780431   -0.453892
     53          1           0       11.647956   -0.469422    3.465447
     54          1           0       10.091694    0.158558    2.662611
     55          1           0       11.768599    0.852617    2.472567
     56          1           0       10.300744   -2.922601    0.464447
     57          1           0       10.885661   -3.000127    2.330138
     58          1           0        9.639888   -1.833438    1.753311
     59          1           0      -11.858582    0.152074    2.704874
     60          1           0      -10.652803   -1.229922    2.347502
     61          1           0      -12.290538   -1.681569    3.027650
     62          1           0      -13.487945   -2.899202    0.881582
     63          1           0      -11.855678   -2.916869    0.595221
     64          1           0      -12.747620   -2.251889   -0.719063
     65          1           0        8.785054   -0.420227    0.365631
     66          1           0      -10.273398   -2.110802   -0.794630
     67          1           0       10.073300    0.525800   -2.522891
     68          1           0       11.727965    1.332612   -2.656503
     69          1           0       11.511738   -0.226642   -3.284590
     70          1           0      -11.331367    1.922548   -2.398324
     71          1           0       -9.755804    1.044003   -2.076057
     72          1           0      -10.425305    2.750173   -1.440529
     73          1           0       14.884445   -2.848918    0.427954
     74          1           0      -15.518343    1.726852    1.350554
     75          1           0       10.256836    2.285233   -0.147928
     76          1           0       -8.596289    0.475418    0.173398
     77          1           0        8.660089    4.529443   -0.141149
     78          1           0        6.940146    4.193530    0.522534
     79          1           0        8.656308    4.015431    1.426202
     80          1           0       -8.535019   -3.440516   -0.602737
     81          1           0       -8.046711   -2.601330   -2.137606
     82          1           0       -6.784512   -3.295021   -1.162624
     83          1           0        6.872390    0.497965   -0.369066
     84          1           0       -6.569584    0.228307    0.277329
     85          1           0        5.222221    3.077634    0.252621
     86          1           0       -4.773397   -2.221416   -1.075278
     87          1           0        4.505333    0.127161   -0.405881
     88          1           0       -4.144763    0.659244   -0.143767
     89          1           0        3.284469    3.392196    1.223327
     90          1           0        1.745551    3.213155    0.531697
     91          1           0        3.185273    3.785110   -0.437847
     92          1           0       -2.491691   -2.818974   -0.388717
     93          1           0       -2.848121   -2.650080   -2.105906
     94          1           0       -1.149279   -2.304148   -1.239267
     95          1           0        2.581823   -0.246830   -0.541792
     96          1           0       -1.975369    1.077592   -0.223744
     97          1           0        0.273668    2.003006   -0.042940
     98          1           0        0.329971   -1.057307   -0.543174
 ---------------------------------------------------------------------

 SCF Done:  E(RCAM-B3LYP) =  -1707.00067730     A.U. after   14 cycles

 Excitation energies and oscillator strengths:

 Excited State   1:      Singlet-A      2.5691 eV  482.60 nm  f=3.7807  <S**2>=0.000
     155 ->158        -0.16931
     156 ->157         0.68321
 This state for optimization and/or second-order correction.
 Total Energy, E(TD-HF/TD-DFT) =  -1706.90626598
 Copying the excited state density for this state as the 1-particle RhoCI density.

 The electronic state is 1-A.
 Alpha  occ. eigenvalues --  -19.20580 -19.19344 -10.30684 -10.30235 -10.28816
 Alpha  occ. eigenvalues --  -10.28135 -10.27662 -10.27589 -10.27471 -10.27439
 Alpha  occ. eigenvalues --  -10.27275 -10.27207 -10.27202 -10.27027 -10.26922
 Alpha  occ. eigenvalues --  -10.26878 -10.26860 -10.26757 -10.26744 -10.26591
 Alpha  occ. eigenvalues --  -10.26480 -10.26430 -10.26381 -10.26335 -10.26160
 Alpha  occ. eigenvalues --  -10.26086 -10.26035 -10.25970 -10.25920 -10.25847
 Alpha  occ. eigenvalues --  -10.25821 -10.25783 -10.25762 -10.25616 -10.25592
 Alpha  occ. eigenvalues --  -10.25558 -10.25553 -10.25522 -10.25201 -10.24756
 Alpha  occ. eigenvalues --  -10.24231 -10.24046  -1.11458  -1.07194  -0.94452
 Alpha  occ. eigenvalues --   -0.93005  -0.92717  -0.91724  -0.90666  -0.89659
 Alpha  occ. eigenvalues --   -0.87613  -0.87363  -0.86422  -0.85870  -0.84952
 Alpha  occ. eigenvalues --   -0.83404  -0.82460  -0.80078  -0.79438  -0.79040
 Alpha  occ. eigenvalues --   -0.77347  -0.76585  -0.75995  -0.75688  -0.75460
 Alpha  occ. eigenvalues --   -0.75380  -0.74430  -0.74249  -0.73626  -0.70609
 Alpha  occ. eigenvalues --   -0.68871  -0.67750  -0.66244  -0.65069  -0.63986
 Alpha  occ. eigenvalues --   -0.62917  -0.61980  -0.61300  -0.60719  -0.59953
 Alpha  occ. eigenvalues --   -0.59481  -0.58898  -0.57953  -0.57576  -0.56335
 Alpha  occ. eigenvalues --   -0.56109  -0.55611  -0.54988  -0.54562  -0.53888
 Alpha  occ. eigenvalues --   -0.53164  -0.52593  -0.51802  -0.51767  -0.51041
 Alpha  occ. eigenvalues --   -0.50673  -0.50237  -0.49776  -0.49653  -0.49320
 Alpha  occ. eigenvalues --   -0.49079  -0.48608  -0.48282  -0.48164  -0.47883
 Alpha  occ. eigenvalues --   -0.47648  -0.46758  -0.46632  -0.46352  -0.46186
 Alpha  occ. eigenvalues --   -0.45790  -0.45684  -0.45475  -0.44966  -0.44662
 Alpha  occ. eigenvalues --   -0.44497  -0.44267  -0.43626  -0.43141  -0.42999
 Alpha  occ. eigenvalues --   -0.42944  -0.42752  -0.42556  -0.42160  -0.41990
 Alpha  occ. eigenvalues --   -0.41456  -0.41131  -0.40860  -0.40763  -0.40309
 Alpha  occ. eigenvalues --   -0.40197  -0.39777  -0.39680  -0.39375  -0.39087
 Alpha  occ. eigenvalues --   -0.38881  -0.38655  -0.38484  -0.37917  -0.37860
 Alpha  occ. eigenvalues --   -0.37394  -0.37375  -0.36647  -0.36512  -0.35934
 Alpha  occ. eigenvalues --   -0.35304  -0.34393  -0.33402  -0.32425  -0.32207
 Alpha  occ. eigenvalues --   -0.31603  -0.29257  -0.27825  -0.26622  -0.23664
 Alpha  occ. eigenvalues --   -0.20315
 Alpha virt. eigenvalues --   -0.04760  -0.00586   0.02908   0.06483   0.07607
 Alpha virt. eigenvalues --    0.09096   0.10676   0.11391   0.11876   0.12136
 Alpha virt. eigenvalues --    0.12701   0.12864   0.13026   0.13735   0.13968

 Mulliken charges:
               1
     1  O   -0.539372
     2  O   -0.595656
     3  C    0.008901
     4  C    0.036228
     5  C   -0.201555
     6  C   -0.207760
     7  C    0.150339
     8  C    0.181655
     9  C    0.037904
    10  C    0.011828
    11  C   -0.204414
    12  C   -0.197230
    13  C    0.058535
    14  C    0.071352
    15  C   -0.317452
    16  C   -0.298362
    17  C   -0.306227
    18  C   -0.304452
    19  C   -0.121681
    20  C   -0.158852
    21  C   -0.373104
    22  C   -0.366906
    23  C   -0.104335
    24  C   -0.071089
    25  C    0.082150
    26  C    0.115358
    27  C   -0.366102
    28  C   -0.366532
    29  C   -0.108414
    30  C   -0.133625
    31  C   -0.078595
    32  C   -0.100891
    33  C   -0.106092
    34  C   -0.094423
    35  C    0.131352
    36  C    0.117280
    37  C   -0.392968
    38  C   -0.362561
    39  C   -0.126455
    40  C   -0.132719
    41  C   -0.087242
    42  C   -0.099230
    43  H    0.101681
    44  H    0.069779
    45  H    0.059106
    46  H    0.108072
    47  H    0.083028
    48  H    0.099694
    49  H    0.132538
    50  H    0.114357
    51  H    0.108077
    52  H    0.101109
    53  H    0.104073
    54  H    0.126267
    55  H    0.079273
    56  H    0.116025
    57  H    0.081745
    58  H    0.099208
    59  H    0.101367
    60  H    0.093441
    61  H    0.087288
    62  H    0.106095
    63  H    0.114376
    64  H    0.093360
    65  H    0.086532
    66  H    0.084055
    67  H    0.122735
    68  H    0.111762
    69  H    0.062585
    70  H    0.103815
    71  H    0.130194
    72  H    0.110811
    73  H    0.296279
    74  H    0.296834
    75  H    0.089461
    76  H    0.098186
    77  H    0.098888
    78  H    0.116862
    79  H    0.114253
    80  H    0.095302
    81  H    0.114671
    82  H    0.116370
    83  H    0.087699
    84  H    0.044169
    85  H    0.084192
    86  H    0.075616
    87  H    0.066970
    88  H    0.089956
    89  H    0.136584
    90  H    0.093334
    91  H    0.126651
    92  H    0.145587
    93  H    0.095447
    94  H    0.107267
    95  H    0.081755
    96  H    0.080056
    97  H    0.097242
    98  H    0.079338
 Sum of Mulliken charges =  -0.00000

 Dipole moment (field-independent basis, Debye):
    X=              0.0597    Y=             -1.0761    Z=              1.2454  Tot=              1.6470
 Quadrupole moment (field-independent basis, Debye-Ang):
   XX=           -269.6085   YY=           -242.5549   ZZ=           -262.2608
   XY=              9.6099   XZ=              3.0732   YZ=              2.4786

 Normal termination of Gaussian 16 at Wed Jul 10 01:09:32 2019.
