 Gaussian 16, Revision A.03,
 Gaussian 16:  ES64L-G16RevA.03 25-Dec-2016

 -------------------------------------
 # td=(NStates=1) CAM-B3LYP/6-31G(d,p)
 -------------------------------------

 --
 TD
 --
 Symbolic Z-matrix:
 Charge =  0 Multiplicity = 1

                         Standard orientation:
 ---------------------------------------------------------------------
 Center     Atomic      Atomic             Coordinates (Angstroms)
 Number     Number       Type             X           Y           Z
 ---------------------------------------------------------------------
      1          8           0       14.897211   -1.986156   -0.276768
      2          8           0      -14.873565    2.044366    0.611607
      3          6           0       11.565096   -1.014154    1.187644
      4          6           0      -12.432672   -0.892984    0.697208
      5          6           0       13.068868   -1.237933    1.064344
      6          6           0      -13.788828   -0.145760    0.702891
      7          6           0       13.491163   -1.855910   -0.252922
      8          6           0      -13.581277    1.306474    0.700616
      9          6           0       11.036827   -0.241794   -0.049540
     10          6           0      -11.380307   -0.260349   -0.228451
     11          6           0       13.206710   -0.856611   -1.325317
     12          6           0      -12.801677    1.867815   -0.503817
     13          6           0       11.789050   -0.186103   -1.188492
     14          6           0      -11.608866    0.921838   -0.828030
     15          6           0       11.273274   -0.095296    2.434978
     16          6           0       10.782798   -2.281664    1.265099
     17          6           0      -11.823306   -0.740071    2.276291
     18          6           0      -12.676027   -2.298125    0.393581
     19          6           0        9.636539    0.312744    0.071873
     20          6           0      -10.087825   -1.098150   -0.464995
     21          6           0       11.239369    0.418804   -2.479963
     22          6           0      -10.710616    1.577371   -1.792803
     23          6           0        9.344837    1.625166   -0.107898
     24          6           0       -8.830707   -0.565386   -0.385326
     25          6           0        8.057300    2.191474    0.089481
     26          6           0       -7.598375   -1.320016   -0.513650
     27          6           0        8.055675    3.708810    0.267281
     28          6           0       -7.706374   -2.789332   -1.066109
     29          6           0        6.897734    1.424873   -0.053612
     30          6           0       -6.502039   -0.670738   -0.236864
     31          6           0        5.518674    1.891643    0.225708
     32          6           0       -5.071091   -1.229848   -0.426120
     33          6           0        4.390156    1.129800    0.076528
     34          6           0       -4.059172   -0.368813   -0.389377
     35          6           0        3.026367    1.505715    0.134326
     36          6           0       -2.673562   -0.889971   -0.348089
     37          6           0        2.870548    2.960046    0.441123
     38          6           0       -2.387225   -2.322266   -0.604461
     39          6           0        2.061153    0.552878   -0.008828
     40          6           0       -1.678306    0.088050   -0.083904
     41          6           0        0.666794    0.766962    0.111422
     42          6           0       -0.263128   -0.247823   -0.025574
     43          1           0       13.664797   -0.203453    1.023478
     44          1           0       13.350709   -1.921325    1.667225
     45          1           0      -14.437905   -0.559418    1.738178
     46          1           0      -14.479527   -0.394650   -0.078396
     47          1           0       12.937257   -2.778757   -0.442077
     48          1           0      -13.009453    1.553016    1.781777
     49          1           0       14.093682   -0.217903   -1.279543
     50          1           0       13.268516   -1.181668   -2.429664
     51          1           0      -13.409199    1.918071   -1.317019
     52          1           0      -12.462225    2.928146   -0.331071
     53          1           0       11.731187   -0.674682    3.307019
     54          1           0       10.239527   -0.089313    2.794682
     55          1           0       11.699291    1.007001    2.414967
     56          1           0       10.895261   -3.081626    0.611838
     57          1           0       11.040060   -2.681472    2.276619
     58          1           0        9.720730   -2.055260    1.226269
     59          1           0      -11.634622    0.200323    2.335294
     60          1           0      -10.903466   -1.114296    2.395815
     61          1           0      -12.396488   -1.163158    2.958723
     62          1           0      -13.508906   -2.743160    0.922252
     63          1           0      -11.886618   -3.022200    0.514403
     64          1           0      -12.970135   -2.307634   -0.645980
     65          1           0        8.917536   -0.360840    0.551725
     66          1           0      -10.376564   -2.123415   -0.548447
     67          1           0       10.209651    0.759388   -2.364698
     68          1           0       11.892648    1.392352   -2.704361
     69          1           0       11.515663   -0.412331   -3.162936
     70          1           0      -11.088002    2.152523   -2.731827
     71          1           0      -10.059452    0.652314   -2.208406
     72          1           0       -9.885116    2.317547   -1.381343
     73          1           0       14.996713   -2.693557    0.340111
     74          1           0      -15.523182    1.694209    1.412456
     75          1           0       10.208578    2.266997   -0.674487
     76          1           0       -8.612308    0.438649   -0.193284
     77          1           0        8.617068    4.367104   -0.397139
     78          1           0        6.952714    3.958122    0.300970
     79          1           0        8.644648    4.063665    1.202992
     80          1           0       -8.548831   -3.313087   -0.393295
     81          1           0       -8.106195   -2.817179   -2.149692
     82          1           0       -6.756298   -3.168994   -0.864318
     83          1           0        6.917136    0.535637   -0.245911
     84          1           0       -6.472425    0.267796    0.370371
     85          1           0        5.327720    2.794955    0.770776
     86          1           0       -4.916571   -2.358020   -0.530732
     87          1           0        4.556887    0.013985   -0.199577
     88          1           0       -4.164033    0.740814   -0.349419
     89          1           0        3.141481    3.059726    1.518419
     90          1           0        1.748340    3.325719    0.687334
     91          1           0        3.168323    3.645310   -0.366001
     92          1           0       -2.577711   -2.971070    0.133647
     93          1           0       -2.775120   -2.503435   -1.706152
     94          1           0       -1.329203   -2.552291   -0.560563
     95          1           0        2.429344   -0.455460   -0.491087
     96          1           0       -2.041169    1.159040   -0.005147
     97          1           0        0.276444    1.793321    0.312774
     98          1           0        0.074328   -1.399932   -0.153779
 ---------------------------------------------------------------------

 SCF Done:  E(RCAM-B3LYP) =  -1706.97457198     A.U. after   14 cycles

 Excitation energies and oscillator strengths:

 Excited State   1:      Singlet-A      2.7104 eV  457.43 nm  f=3.4237  <S**2>=0.000
     155 ->158        -0.15738
     156 ->157         0.68428
 This state for optimization and/or second-order correction.
 Total Energy, E(TD-HF/TD-DFT) =  -1706.87496495
 Copying the excited state density for this state as the 1-particle RhoCI density.

 The electronic state is 1-A.
 Alpha  occ. eigenvalues --  -19.21625 -19.21231 -10.31232 -10.29738 -10.27922
 Alpha  occ. eigenvalues --  -10.27845 -10.27773 -10.27533 -10.27386 -10.27159
 Alpha  occ. eigenvalues --  -10.27105 -10.26967 -10.26964 -10.26859 -10.26833
 Alpha  occ. eigenvalues --  -10.26669 -10.26628 -10.26575 -10.26574 -10.26487
 Alpha  occ. eigenvalues --  -10.26465 -10.26374 -10.26327 -10.26312 -10.26254
 Alpha  occ. eigenvalues --  -10.26238 -10.26229 -10.26198 -10.26183 -10.26007
 Alpha  occ. eigenvalues --  -10.25958 -10.25748 -10.25727 -10.25382 -10.25380
 Alpha  occ. eigenvalues --  -10.25264 -10.24972 -10.24938 -10.24429 -10.24207
 Alpha  occ. eigenvalues --  -10.23809 -10.21210  -1.11396  -1.04935  -0.93247
 Alpha  occ. eigenvalues --   -0.93009  -0.91945  -0.91453  -0.90386  -0.89949
 Alpha  occ. eigenvalues --   -0.86896  -0.86556  -0.86132  -0.84982  -0.84240
 Alpha  occ. eigenvalues --   -0.82811  -0.81843  -0.79778  -0.79475  -0.78469
 Alpha  occ. eigenvalues --   -0.78426  -0.76597  -0.76584  -0.75956  -0.75740
 Alpha  occ. eigenvalues --   -0.75535  -0.74967  -0.74560  -0.73758  -0.70093
 Alpha  occ. eigenvalues --   -0.68292  -0.66630  -0.64899  -0.64655  -0.63651
 Alpha  occ. eigenvalues --   -0.63375  -0.62408  -0.60978  -0.60548  -0.60481
 Alpha  occ. eigenvalues --   -0.59902  -0.58981  -0.57788  -0.57030  -0.55660
 Alpha  occ. eigenvalues --   -0.55236  -0.54807  -0.54605  -0.54309  -0.53797
 Alpha  occ. eigenvalues --   -0.52946  -0.52381  -0.51501  -0.51322  -0.51143
 Alpha  occ. eigenvalues --   -0.50905  -0.50751  -0.50338  -0.49973  -0.49647
 Alpha  occ. eigenvalues --   -0.49038  -0.48601  -0.48576  -0.48194  -0.47959
 Alpha  occ. eigenvalues --   -0.47760  -0.47155  -0.46832  -0.46267  -0.46054
 Alpha  occ. eigenvalues --   -0.45892  -0.45788  -0.45132  -0.45059  -0.44666
 Alpha  occ. eigenvalues --   -0.44412  -0.43987  -0.43917  -0.43468  -0.43373
 Alpha  occ. eigenvalues --   -0.43189  -0.42816  -0.42471  -0.42278  -0.41931
 Alpha  occ. eigenvalues --   -0.41652  -0.41407  -0.41196  -0.41101  -0.40710
 Alpha  occ. eigenvalues --   -0.40210  -0.39963  -0.39652  -0.39593  -0.39468
 Alpha  occ. eigenvalues --   -0.39216  -0.38744  -0.38260  -0.38138  -0.37886
 Alpha  occ. eigenvalues --   -0.37788  -0.37222  -0.36907  -0.36057  -0.35506
 Alpha  occ. eigenvalues --   -0.34858  -0.34202  -0.33762  -0.32523  -0.31565
 Alpha  occ. eigenvalues --   -0.31490  -0.29725  -0.27857  -0.26248  -0.24403
 Alpha  occ. eigenvalues --   -0.20554
 Alpha virt. eigenvalues --   -0.04172   0.00038   0.02646   0.06122   0.08363
 Alpha virt. eigenvalues --    0.09404   0.10233   0.11070   0.11541   0.11921
 Alpha virt. eigenvalues --    0.12230   0.12638   0.13256   0.13378   0.13600

 Mulliken charges:
               1
     1  O   -0.536543
     2  O   -0.583241
     3  C   -0.014051
     4  C   -0.016110
     5  C   -0.136448
     6  C   -0.164276
     7  C    0.126320
     8  C    0.169943
     9  C    0.043140
    10  C    0.048879
    11  C   -0.217002
    12  C   -0.200022
    13  C    0.028128
    14  C    0.047275
    15  C   -0.300273
    16  C   -0.308578
    17  C   -0.306763
    18  C   -0.319642
    19  C   -0.123633
    20  C   -0.147485
    21  C   -0.344005
    22  C   -0.372664
    23  C   -0.101041
    24  C   -0.066817
    25  C    0.079756
    26  C    0.119852
    27  C   -0.366176
    28  C   -0.341019
    29  C   -0.048322
    30  C   -0.165768
    31  C   -0.111049
    32  C   -0.121616
    33  C   -0.127390
    34  C   -0.090248
    35  C    0.139734
    36  C    0.091046
    37  C   -0.390409
    38  C   -0.365708
    39  C   -0.140000
    40  C   -0.132812
    41  C   -0.088093
    42  C   -0.087549
    43  H    0.099637
    44  H    0.066060
    45  H    0.045946
    46  H    0.108901
    47  H    0.082416
    48  H    0.058280
    49  H    0.126228
    50  H    0.083689
    51  H    0.132916
    52  H    0.116820
    53  H    0.079904
    54  H    0.107188
    55  H    0.105109
    56  H    0.115924
    57  H    0.088791
    58  H    0.105106
    59  H    0.109433
    60  H    0.103757
    61  H    0.102371
    62  H    0.100916
    63  H    0.102168
    64  H    0.105186
    65  H    0.092375
    66  H    0.090934
    67  H    0.122980
    68  H    0.091541
    69  H    0.107786
    70  H    0.101249
    71  H    0.097787
    72  H    0.099020
    73  H    0.299993
    74  H    0.295958
    75  H    0.086775
    76  H    0.091115
    77  H    0.124214
    78  H    0.106507
    79  H    0.105024
    80  H    0.101135
    81  H    0.124781
    82  H    0.113187
    83  H    0.046469
    84  H    0.095555
    85  H    0.091430
    86  H    0.099489
    87  H    0.061987
    88  H    0.089520
    89  H    0.137083
    90  H    0.077434
    91  H    0.141872
    92  H    0.135930
    93  H    0.120115
    94  H    0.099315
    95  H    0.084428
    96  H    0.084609
    97  H    0.090335
    98  H    0.086001
 Sum of Mulliken charges =  -0.00000

 Dipole moment (field-independent basis, Debye):
    X=             -0.0364    Y=             -2.5737    Z=              1.9300  Tot=              3.2172
 Quadrupole moment (field-independent basis, Debye-Ang):
   XX=           -295.8026   YY=           -242.5247   ZZ=           -263.0531
   XY=              9.7724   XZ=              1.0819   YZ=             -0.7147

 Normal termination of Gaussian 16 at Sun Jul  7 07:49:07 2019.
