 Gaussian 16, Revision A.03,
 Gaussian 16:  ES64L-G16RevA.03 25-Dec-2016

 -------------------------------------
 # td=(NStates=1) CAM-B3LYP/6-31G(d,p)
 -------------------------------------

 --
 TD
 --
 Symbolic Z-matrix:
 Charge =  0 Multiplicity = 1

                         Standard orientation:
 ---------------------------------------------------------------------
 Center     Atomic      Atomic             Coordinates (Angstroms)
 Number     Number       Type             X           Y           Z
 ---------------------------------------------------------------------
      1          8           0       14.758692   -1.928241   -0.620005
      2          8           0      -14.756256    2.075270    0.606394
      3          6           0       11.588291   -1.063037    1.272586
      4          6           0      -12.321615   -0.878710    0.648107
      5          6           0       13.078550   -1.289383    1.002959
      6          6           0      -13.629135   -0.069467    0.702045
      7          6           0       13.407475   -1.816092   -0.459010
      8          6           0      -13.496772    1.416339    0.601132
      9          6           0       11.033558   -0.280298    0.001019
     10          6           0      -11.335384   -0.170453   -0.242002
     11          6           0       12.870389   -0.761723   -1.516079
     12          6           0      -12.842092    1.838324   -0.727730
     13          6           0       11.510541   -0.322205   -1.271212
     14          6           0      -11.575566    0.979529   -0.851441
     15          6           0       11.411303   -0.111037    2.406551
     16          6           0       10.926593   -2.367412    1.461198
     17          6           0      -11.899499   -0.826250    2.166200
     18          6           0      -12.621243   -2.294676    0.238861
     19          6           0        9.692948    0.351421    0.347343
     20          6           0      -10.117399   -1.074280   -0.364096
     21          6           0       10.987755    0.514594   -2.419518
     22          6           0      -10.638826    1.612611   -1.776376
     23          6           0        9.274516    1.536898   -0.077033
     24          6           0       -8.791105   -0.554728   -0.201927
     25          6           0        7.991922    2.254719    0.179042
     26          6           0       -7.620107   -1.385077   -0.373005
     27          6           0        8.116689    3.766921    0.323251
     28          6           0       -7.684681   -2.990230   -0.639284
     29          6           0        6.851294    1.535622    0.098350
     30          6           0       -6.470295   -0.749144   -0.212811
     31          6           0        5.509343    1.913923    0.341566
     32          6           0       -5.058729   -1.330569   -0.238840
     33          6           0        4.471950    1.152486    0.123890
     34          6           0       -4.068654   -0.543535   -0.216681
     35          6           0        3.065634    1.521154    0.148117
     36          6           0       -2.581608   -0.897351   -0.313051
     37          6           0        2.643742    2.983169    0.612843
     38          6           0       -2.344175   -2.332318   -0.660359
     39          6           0        2.064994    0.604629   -0.135004
     40          6           0       -1.644855    0.021715   -0.259939
     41          6           0        0.705587    0.816974   -0.061455
     42          6           0       -0.159351   -0.181150   -0.342273
     43          1           0       13.635212   -0.195364    0.794732
     44          1           0       13.603217   -1.988201    1.688104
     45          1           0      -14.286819   -0.246409    1.280516
     46          1           0      -14.084348   -0.401700   -0.297368
     47          1           0       12.996074   -2.846738   -0.673367
     48          1           0      -12.992945    1.732980    1.459383
     49          1           0       13.621205    0.037258   -1.749721
     50          1           0       12.771457   -1.254943   -2.384129
     51          1           0      -13.567837    1.832982   -1.632609
     52          1           0      -12.358325    2.818840   -0.689607
     53          1           0       11.860092   -0.592132    3.235778
     54          1           0       10.357319   -0.023710    2.513983
     55          1           0       11.724658    0.822229    2.397768
     56          1           0       10.984454   -3.184657    0.613750
     57          1           0       11.397879   -2.818256    2.374610
     58          1           0        9.917534   -2.284883    1.725283
     59          1           0      -11.737907    0.107258    2.399485
     60          1           0      -10.945983   -1.407894    2.355010
     61          1           0      -12.717268   -1.303011    2.712863
     62          1           0      -13.475775   -2.685348    0.730203
     63          1           0      -11.724356   -2.933872    0.493265
     64          1           0      -12.773785   -2.241581   -0.900853
     65          1           0        8.931013   -0.046702    0.926899
     66          1           0      -10.286651   -2.177487   -0.306106
     67          1           0        9.901893    0.618054   -2.484982
     68          1           0       11.408593    1.453661   -2.643975
     69          1           0       11.001082   -0.168850   -3.363161
     70          1           0      -11.269184    1.948754   -2.645698
     71          1           0       -9.676497    1.061580   -2.082855
     72          1           0      -10.174204    2.604108   -1.439667
     73          1           0       15.099799   -2.765003   -0.234950
     74          1           0      -15.233639    1.619466    1.446606
     75          1           0        9.960798    2.113628   -0.323776
     76          1           0       -8.674082    0.447167    0.140423
     77          1           0        8.790321    4.220977   -0.603643
     78          1           0        7.111486    4.045446    0.578536
     79          1           0        8.853123    4.096588    1.180000
     80          1           0       -8.464315   -3.113700    0.173284
     81          1           0       -7.893115   -3.166934   -1.864448
     82          1           0       -6.834014   -3.530600   -0.571047
     83          1           0        6.934696    0.324702   -0.083112
     84          1           0       -6.542505    0.338540    0.136415
     85          1           0        5.360284    3.087022    0.600144
     86          1           0       -4.899539   -2.222116   -0.574886
     87          1           0        4.635515   -0.078011   -0.136487
     88          1           0       -4.091468    0.571877   -0.017154
     89          1           0        3.010552    3.142815    1.720976
     90          1           0        1.519191    3.409062    0.628741
     91          1           0        3.313031    3.737574    0.177834
     92          1           0       -2.751576   -2.942238    0.256748
     93          1           0       -2.860704   -2.778458   -1.523045
     94          1           0       -1.294410   -2.598268   -0.733018
     95          1           0        2.497411   -0.306571   -0.554214
     96          1           0       -1.948732    1.004872    0.191239
     97          1           0        0.290582    1.828918    0.115237
     98          1           0        0.240150   -1.090391   -0.320661
 ---------------------------------------------------------------------

 SCF Done:  E(RCAM-B3LYP) =  -1706.91730695     A.U. after   14 cycles

 Excitation energies and oscillator strengths:

 Excited State   1:      Singlet-A      3.1108 eV  398.56 nm  f=3.5017  <S**2>=0.000
     155 ->158         0.17479
     156 ->157         0.67224
 This state for optimization and/or second-order correction.
 Total Energy, E(TD-HF/TD-DFT) =  -1706.80298652
 Copying the excited state density for this state as the 1-particle RhoCI density.

 The electronic state is 1-A.
 Alpha  occ. eigenvalues --  -19.21407 -19.20970 -10.30528 -10.29247 -10.28404
 Alpha  occ. eigenvalues --  -10.28002 -10.27831 -10.27750 -10.27641 -10.27349
 Alpha  occ. eigenvalues --  -10.27042 -10.26952 -10.26931 -10.26884 -10.26876
 Alpha  occ. eigenvalues --  -10.26785 -10.26663 -10.26607 -10.26313 -10.26271
 Alpha  occ. eigenvalues --  -10.26168 -10.26097 -10.26034 -10.26010 -10.25981
 Alpha  occ. eigenvalues --  -10.25917 -10.25892 -10.25885 -10.25641 -10.25625
 Alpha  occ. eigenvalues --  -10.25510 -10.25250 -10.25187 -10.25081 -10.24768
 Alpha  occ. eigenvalues --  -10.24749 -10.24494 -10.23718 -10.23508 -10.23218
 Alpha  occ. eigenvalues --  -10.22662 -10.22120  -1.10572  -1.07982  -0.93892
 Alpha  occ. eigenvalues --   -0.93347  -0.92136  -0.91521  -0.90499  -0.89465
 Alpha  occ. eigenvalues --   -0.88141  -0.87704  -0.87537  -0.85418  -0.84070
 Alpha  occ. eigenvalues --   -0.83226  -0.81615  -0.79680  -0.79243  -0.77491
 Alpha  occ. eigenvalues --   -0.77441  -0.76909  -0.76414  -0.75876  -0.75700
 Alpha  occ. eigenvalues --   -0.75309  -0.75197  -0.75120  -0.74492  -0.70146
 Alpha  occ. eigenvalues --   -0.68496  -0.67438  -0.65939  -0.65488  -0.64642
 Alpha  occ. eigenvalues --   -0.63776  -0.63248  -0.62815  -0.60839  -0.59919
 Alpha  occ. eigenvalues --   -0.58592  -0.58309  -0.58023  -0.57434  -0.56380
 Alpha  occ. eigenvalues --   -0.56182  -0.55441  -0.54928  -0.54349  -0.53745
 Alpha  occ. eigenvalues --   -0.53288  -0.52341  -0.52216  -0.51291  -0.50815
 Alpha  occ. eigenvalues --   -0.50734  -0.50351  -0.50024  -0.49732  -0.49216
 Alpha  occ. eigenvalues --   -0.48912  -0.48737  -0.48657  -0.47976  -0.47709
 Alpha  occ. eigenvalues --   -0.47627  -0.46714  -0.46679  -0.46285  -0.45988
 Alpha  occ. eigenvalues --   -0.45821  -0.45535  -0.45465  -0.45090  -0.44991
 Alpha  occ. eigenvalues --   -0.44738  -0.44621  -0.44491  -0.44291  -0.43541
 Alpha  occ. eigenvalues --   -0.43084  -0.42925  -0.42754  -0.42640  -0.42466
 Alpha  occ. eigenvalues --   -0.41987  -0.41803  -0.41402  -0.41202  -0.40984
 Alpha  occ. eigenvalues --   -0.40729  -0.40055  -0.39710  -0.39417  -0.39243
 Alpha  occ. eigenvalues --   -0.38911  -0.38673  -0.38308  -0.37909  -0.37736
 Alpha  occ. eigenvalues --   -0.37366  -0.37038  -0.36494  -0.35861  -0.35328
 Alpha  occ. eigenvalues --   -0.34844  -0.34520  -0.33620  -0.32205  -0.31889
 Alpha  occ. eigenvalues --   -0.30571  -0.29962  -0.28889  -0.26503  -0.24051
 Alpha  occ. eigenvalues --   -0.21736
 Alpha virt. eigenvalues --   -0.03413   0.00157   0.02911   0.06009   0.08198
 Alpha virt. eigenvalues --    0.10034   0.10257   0.10783   0.11309   0.11718
 Alpha virt. eigenvalues --    0.12172   0.12882   0.13092   0.13496   0.13946

 Mulliken charges:
               1
     1  O   -0.545823
     2  O   -0.566308
     3  C    0.003006
     4  C   -0.041482
     5  C   -0.174613
     6  C   -0.154049
     7  C    0.153707
     8  C    0.175260
     9  C    0.053091
    10  C    0.065306
    11  C   -0.207293
    12  C   -0.216726
    13  C    0.039681
    14  C    0.064043
    15  C   -0.283888
    16  C   -0.296802
    17  C   -0.282339
    18  C   -0.297380
    19  C   -0.133448
    20  C   -0.146641
    21  C   -0.368383
    22  C   -0.380407
    23  C   -0.057363
    24  C   -0.114675
    25  C    0.056945
    26  C    0.096327
    27  C   -0.351085
    28  C   -0.331144
    29  C   -0.104911
    30  C   -0.145794
    31  C   -0.081672
    32  C   -0.074071
    33  C   -0.106802
    34  C   -0.070125
    35  C    0.113927
    36  C    0.128884
    37  C   -0.379503
    38  C   -0.384745
    39  C   -0.135712
    40  C   -0.160173
    41  C   -0.056514
    42  C   -0.080864
    43  H    0.078688
    44  H    0.067494
    45  H    0.051347
    46  H    0.078467
    47  H    0.058203
    48  H    0.084052
    49  H    0.118014
    50  H    0.109717
    51  H    0.121080
    52  H    0.112865
    53  H    0.091779
    54  H    0.102672
    55  H    0.117961
    56  H    0.099789
    57  H    0.092342
    58  H    0.111111
    59  H    0.110521
    60  H    0.084720
    61  H    0.093132
    62  H    0.106132
    63  H    0.094594
    64  H    0.103687
    65  H    0.082309
    66  H    0.094196
    67  H    0.122755
    68  H    0.128463
    69  H    0.082982
    70  H    0.104991
    71  H    0.114611
    72  H    0.100919
    73  H    0.308238
    74  H    0.293441
    75  H    0.048419
    76  H    0.101576
    77  H    0.110425
    78  H    0.114289
    79  H    0.111616
    80  H    0.121959
    81  H    0.096700
    82  H    0.125481
    83  H    0.072584
    84  H    0.072994
    85  H    0.073918
    86  H    0.069110
    87  H    0.070788
    88  H    0.067603
    89  H    0.105663
    90  H    0.109138
    91  H    0.119961
    92  H    0.104601
    93  H    0.124066
    94  H    0.109811
    95  H    0.081880
    96  H    0.078941
    97  H    0.085361
    98  H    0.082404
 Sum of Mulliken charges =  -0.00000

 Dipole moment (field-independent basis, Debye):
    X=              0.9211    Y=             -2.0186    Z=              1.8983  Tot=              2.9201
 Quadrupole moment (field-independent basis, Debye-Ang):
   XX=           -274.3571   YY=           -242.1036   ZZ=           -261.9806
   XY=              7.7972   XZ=             -8.5068   YZ=              1.8481

 Normal termination of Gaussian 16 at Sun Jul  7 03:47:42 2019.
