 Gaussian 16, Revision A.03,
 Gaussian 16:  ES64L-G16RevA.03 25-Dec-2016

 -------------------------------------
 # td=(NStates=1) CAM-B3LYP/6-31G(d,p)
 -------------------------------------

 --
 TD
 --
 Symbolic Z-matrix:
 Charge =  0 Multiplicity = 1

                         Standard orientation:
 ---------------------------------------------------------------------
 Center     Atomic      Atomic             Coordinates (Angstroms)
 Number     Number       Type             X           Y           Z
 ---------------------------------------------------------------------
      1          8           0       14.621787   -2.245599   -0.212237
      2          8           0      -14.660438    1.939284    1.014793
      3          6           0       11.347089   -1.066270    1.369748
      4          6           0      -12.237535   -0.980857    0.834353
      5          6           0       12.897148   -1.288459    1.197751
      6          6           0      -13.571196   -0.233981    0.911986
      7          6           0       13.233208   -2.034261   -0.061514
      8          6           0      -13.387080    1.233654    0.920163
      9          6           0       10.851949   -0.359407    0.028534
     10          6           0      -11.279709   -0.267086   -0.177554
     11          6           0       12.882135   -1.063254   -1.318541
     12          6           0      -12.719798    1.758488   -0.345054
     13          6           0       11.609523   -0.350349   -1.040550
     14          6           0      -11.528227    0.885084   -0.719348
     15          6           0       11.270676   -0.093674    2.543197
     16          6           0       10.695791   -2.349372    1.477180
     17          6           0      -11.508723   -0.877895    2.212417
     18          6           0      -12.574854   -2.383621    0.440960
     19          6           0        9.488818    0.298425    0.195482
     20          6           0      -10.014276   -1.094992   -0.467563
     21          6           0       11.036451    0.269777   -2.317679
     22          6           0      -10.760174    1.647918   -1.829823
     23          6           0        9.234574    1.595949   -0.157640
     24          6           0       -8.822385   -0.552161   -0.303794
     25          6           0        8.077614    2.321613    0.011986
     26          6           0       -7.575583   -1.263058   -0.515718
     27          6           0        8.058291    3.823144    0.333576
     28          6           0       -7.704839   -2.767852   -0.996064
     29          6           0        6.872794    1.738889   -0.183293
     30          6           0       -6.428547   -0.648295   -0.370158
     31          6           0        5.516211    2.091565    0.012384
     32          6           0       -5.039952   -1.111581   -0.653609
     33          6           0        4.371961    1.302602   -0.255014
     34          6           0       -3.894813   -0.430502   -0.350923
     35          6           0        3.094587    1.783931   -0.058736
     36          6           0       -2.561838   -0.858540   -0.480967
     37          6           0        2.722072    3.218737    0.430632
     38          6           0       -2.310894   -2.336992   -0.967924
     39          6           0        2.043785    0.777366   -0.180235
     40          6           0       -1.602576    0.048227   -0.298232
     41          6           0        0.626913    0.963992   -0.170769
     42          6           0       -0.117808   -0.105623   -0.386726
     43          1           0       13.522675   -0.260491    1.075505
     44          1           0       13.384473   -1.955593    1.890309
     45          1           0      -14.020014   -0.893645    1.697216
     46          1           0      -14.210648   -0.373994   -0.003491
     47          1           0       12.619990   -2.828302   -0.386146
     48          1           0      -12.878163    1.508870    1.809279
     49          1           0       13.919250   -0.373194   -1.037237
     50          1           0       13.013218   -1.666973   -2.183922
     51          1           0      -13.655347    1.820410   -1.103588
     52          1           0      -12.267410    2.737627   -0.180427
     53          1           0       11.427704   -0.838212    3.550697
     54          1           0       10.235358    0.222252    2.693236
     55          1           0       12.073808    0.586931    2.443623
     56          1           0       10.656602   -2.748822    0.436928
     57          1           0       10.931211   -3.047360    2.322850
     58          1           0        9.639949   -2.130147    1.642158
     59          1           0      -11.462901    0.071375    2.538606
     60          1           0      -10.571605   -1.354105    2.187049
     61          1           0      -11.991431   -1.513304    2.982180
     62          1           0      -13.401199   -2.688065    1.030267
     63          1           0      -11.678075   -2.930634    0.562245
     64          1           0      -12.965851   -2.602383   -0.557021
     65          1           0        8.571996   -0.289338    0.510389
     66          1           0      -10.025096   -2.161131   -0.810877
     67          1           0       10.138537    0.518847   -2.315088
     68          1           0       11.825346    1.084315   -2.390111
     69          1           0       11.152512   -0.366013   -3.057405
     70          1           0      -11.410551    1.968153   -2.487903
     71          1           0      -10.126257    0.965399   -2.462950
     72          1           0      -10.120025    2.414279   -1.508345
     73          1           0       14.882201   -2.818178    0.573863
     74          1           0      -14.834491    1.878404    2.134244
     75          1           0       10.200592    2.135760   -0.507843
     76          1           0       -8.870126    0.410633   -0.109219
     77          1           0        8.877259    4.118706   -0.366928
     78          1           0        7.230796    4.483532    0.297476
     79          1           0        8.493396    4.144414    1.392185
     80          1           0       -8.529350   -3.259129   -0.439240
     81          1           0       -8.067539   -2.793812   -2.142794
     82          1           0       -6.774816   -3.319674   -1.075388
     83          1           0        6.666712    0.640347   -0.432885
     84          1           0       -6.492533    0.448564   -0.063240
     85          1           0        5.392913    3.018871    0.474172
     86          1           0       -4.888846   -2.251080   -1.160890
     87          1           0        4.514515    0.399734   -0.672205
     88          1           0       -3.896445    0.570492    0.085622
     89          1           0        3.689455    3.359836    0.921055
     90          1           0        1.721197    3.189319    0.841971
     91          1           0        2.791114    3.941033   -0.495860
     92          1           0       -2.973899   -2.787182   -0.293170
     93          1           0       -2.392714   -2.378188   -2.209169
     94          1           0       -1.260117   -2.694491   -0.612946
     95          1           0        2.495542   -0.221484   -0.558413
     96          1           0       -2.152637    0.963435   -0.134960
     97          1           0        0.052481    1.889802    0.420415
     98          1           0        0.361784   -0.943556   -1.051864
 ---------------------------------------------------------------------

 SCF Done:  E(RCAM-B3LYP) =  -1706.90723806     A.U. after   14 cycles

 Excitation energies and oscillator strengths:

 Excited State   1:      Singlet-A      2.5541 eV  485.43 nm  f=3.3206  <S**2>=0.000
     155 ->158        -0.14288
     156 ->157         0.69074
 This state for optimization and/or second-order correction.
 Total Energy, E(TD-HF/TD-DFT) =  -1706.81337704
 Copying the excited state density for this state as the 1-particle RhoCI density.

 The electronic state is 1-A.
 Alpha  occ. eigenvalues --  -19.22059 -19.21487 -10.29324 -10.29324 -10.28187
 Alpha  occ. eigenvalues --  -10.27986 -10.27857 -10.27727 -10.27501 -10.27467
 Alpha  occ. eigenvalues --  -10.27333 -10.27114 -10.26999 -10.26951 -10.26896
 Alpha  occ. eigenvalues --  -10.26888 -10.26851 -10.26817 -10.26585 -10.26370
 Alpha  occ. eigenvalues --  -10.26297 -10.26261 -10.26205 -10.26192 -10.26144
 Alpha  occ. eigenvalues --  -10.26128 -10.26039 -10.25962 -10.25934 -10.25870
 Alpha  occ. eigenvalues --  -10.25863 -10.25666 -10.25619 -10.25575 -10.25270
 Alpha  occ. eigenvalues --  -10.24602 -10.24379 -10.24126 -10.23641 -10.23476
 Alpha  occ. eigenvalues --  -10.23398 -10.21869  -1.09564  -1.05852  -0.93753
 Alpha  occ. eigenvalues --   -0.93564  -0.92384  -0.91951  -0.90840  -0.90368
 Alpha  occ. eigenvalues --   -0.87966  -0.87581  -0.87238  -0.84932  -0.84367
 Alpha  occ. eigenvalues --   -0.82576  -0.81636  -0.80322  -0.79770  -0.77693
 Alpha  occ. eigenvalues --   -0.77372  -0.77046  -0.76776  -0.76629  -0.76492
 Alpha  occ. eigenvalues --   -0.76067  -0.75088  -0.74999  -0.73999  -0.71098
 Alpha  occ. eigenvalues --   -0.68669  -0.66777  -0.65511  -0.64761  -0.64246
 Alpha  occ. eigenvalues --   -0.63066  -0.62450  -0.61681  -0.60579  -0.59631
 Alpha  occ. eigenvalues --   -0.58986  -0.58748  -0.58431  -0.57609  -0.55939
 Alpha  occ. eigenvalues --   -0.55323  -0.55261  -0.54368  -0.54294  -0.53914
 Alpha  occ. eigenvalues --   -0.53518  -0.52932  -0.52381  -0.52207  -0.51640
 Alpha  occ. eigenvalues --   -0.50632  -0.50247  -0.49922  -0.49458  -0.49401
 Alpha  occ. eigenvalues --   -0.49108  -0.49080  -0.48557  -0.48180  -0.47534
 Alpha  occ. eigenvalues --   -0.47131  -0.47017  -0.46742  -0.46666  -0.46617
 Alpha  occ. eigenvalues --   -0.46322  -0.45803  -0.45486  -0.45079  -0.44929
 Alpha  occ. eigenvalues --   -0.44609  -0.44460  -0.44283  -0.44019  -0.43519
 Alpha  occ. eigenvalues --   -0.43293  -0.43225  -0.43079  -0.42885  -0.42239
 Alpha  occ. eigenvalues --   -0.41712  -0.41590  -0.41548  -0.40911  -0.40557
 Alpha  occ. eigenvalues --   -0.39914  -0.39857  -0.39727  -0.39625  -0.39525
 Alpha  occ. eigenvalues --   -0.39173  -0.38511  -0.38244  -0.38033  -0.37898
 Alpha  occ. eigenvalues --   -0.37346  -0.37236  -0.36828  -0.35886  -0.35273
 Alpha  occ. eigenvalues --   -0.34384  -0.33709  -0.33004  -0.32566  -0.32043
 Alpha  occ. eigenvalues --   -0.31371  -0.30365  -0.28931  -0.27306  -0.24429
 Alpha  occ. eigenvalues --   -0.20525
 Alpha virt. eigenvalues --   -0.05096  -0.00265   0.03474   0.06416   0.08280
 Alpha virt. eigenvalues --    0.08927   0.09640   0.10627   0.11066   0.11943
 Alpha virt. eigenvalues --    0.12095   0.12471   0.12883   0.13297   0.13456

 Mulliken charges:
               1
     1  O   -0.554169
     2  O   -0.567402
     3  C    0.003072
     4  C   -0.033817
     5  C   -0.164044
     6  C   -0.162412
     7  C    0.135273
     8  C    0.137519
     9  C    0.017417
    10  C    0.052384
    11  C   -0.248096
    12  C   -0.211302
    13  C    0.050728
    14  C    0.026506
    15  C   -0.274574
    16  C   -0.300985
    17  C   -0.305944
    18  C   -0.300251
    19  C   -0.120288
    20  C   -0.156495
    21  C   -0.313993
    22  C   -0.359611
    23  C   -0.102977
    24  C   -0.040702
    25  C    0.090992
    26  C    0.131963
    27  C   -0.366075
    28  C   -0.370461
    29  C   -0.107494
    30  C   -0.147945
    31  C   -0.108668
    32  C   -0.122207
    33  C   -0.082114
    34  C   -0.099620
    35  C    0.084021
    36  C    0.109036
    37  C   -0.342677
    38  C   -0.352448
    39  C   -0.150141
    40  C   -0.142217
    41  C   -0.058966
    42  C   -0.092016
    43  H    0.083095
    44  H    0.071142
    45  H    0.085400
    46  H    0.092460
    47  H    0.094131
    48  H    0.077054
    49  H    0.097421
    50  H    0.119377
    51  H    0.109885
    52  H    0.115347
    53  H    0.052780
    54  H    0.109137
    55  H    0.115988
    56  H    0.108370
    57  H    0.102131
    58  H    0.097884
    59  H    0.112831
    60  H    0.117163
    61  H    0.086703
    62  H    0.099943
    63  H    0.098643
    64  H    0.108754
    65  H    0.097776
    66  H    0.086439
    67  H    0.111359
    68  H    0.103760
    69  H    0.107622
    70  H    0.126098
    71  H    0.103686
    72  H    0.119443
    73  H    0.302935
    74  H    0.293019
    75  H    0.084363
    76  H    0.069917
    77  H    0.115171
    78  H    0.130241
    79  H    0.101360
    80  H    0.118408
    81  H    0.101021
    82  H    0.114877
    83  H    0.058003
    84  H    0.078111
    85  H    0.065675
    86  H    0.075795
    87  H    0.082788
    88  H    0.079615
    89  H    0.123721
    90  H    0.122420
    91  H    0.114269
    92  H    0.132615
    93  H    0.112060
    94  H    0.098926
    95  H    0.075489
    96  H    0.072277
    97  H    0.086592
    98  H    0.099710
 Sum of Mulliken charges =  -0.00000

 Dipole moment (field-independent basis, Debye):
    X=              0.7340    Y=             -1.1841    Z=              1.6471  Tot=              2.1573
 Quadrupole moment (field-independent basis, Debye-Ang):
   XX=           -300.6931   YY=           -246.0515   ZZ=           -258.2716
   XY=              4.3057   XZ=             -2.3758   YZ=              2.7149

 Normal termination of Gaussian 16 at Sat Jun 29 23:58:04 2019.
