 Gaussian 16, Revision A.03,
 Gaussian 16:  ES64L-G16RevA.03 25-Dec-2016

 -------------------------------------
 # td=(NStates=1) CAM-B3LYP/6-31G(d,p)
 -------------------------------------

 --
 TD
 --
 Symbolic Z-matrix:
 Charge =  0 Multiplicity = 1

                         Standard orientation:
 ---------------------------------------------------------------------
 Center     Atomic      Atomic             Coordinates (Angstroms)
 Number     Number       Type             X           Y           Z
 ---------------------------------------------------------------------
      1          8           0       14.716106   -2.232089   -0.387997
      2          8           0      -14.796395    1.943307    0.602373
      3          6           0       11.482868   -1.017464    1.167597
      4          6           0      -12.228434   -0.831086    0.873790
      5          6           0       12.939214   -1.341878    1.094298
      6          6           0      -13.712151   -0.240352    0.802076
      7          6           0       13.367586   -1.960270   -0.282885
      8          6           0      -13.554891    1.323857    0.661291
      9          6           0       10.900404   -0.344157   -0.047224
     10          6           0      -11.305557   -0.299424   -0.208249
     11          6           0       12.955050   -0.965612   -1.348504
     12          6           0      -12.919658    1.665749   -0.657158
     13          6           0       11.559211   -0.332758   -1.203322
     14          6           0      -11.539545    0.880726   -0.859912
     15          6           0       11.277727   -0.179990    2.530317
     16          6           0       10.638797   -2.214273    1.545812
     17          6           0      -11.638715   -0.812844    2.143052
     18          6           0      -12.608260   -2.407469    0.548612
     19          6           0        9.608320    0.305430    0.096126
     20          6           0      -10.040192   -1.105515   -0.400791
     21          6           0       11.047979    0.192135   -2.504730
     22          6           0      -10.716021    1.452229   -1.873867
     23          6           0        9.354599    1.597333   -0.157965
     24          6           0       -8.782830   -0.595844   -0.199534
     25          6           0        8.121129    2.235250   -0.018176
     26          6           0       -7.572838   -1.383572   -0.366612
     27          6           0        8.220341    3.757346    0.315975
     28          6           0       -7.640945   -2.772918   -0.893165
     29          6           0        6.914110    1.559736   -0.040872
     30          6           0       -6.481286   -0.648499   -0.226749
     31          6           0        5.606622    2.144852    0.257954
     32          6           0       -5.071167   -1.152812   -0.363467
     33          6           0        4.415239    1.414217   -0.031964
     34          6           0       -4.005916   -0.365109   -0.189889
     35          6           0        3.016158    1.707677    0.110456
     36          6           0       -2.614317   -0.729602   -0.371157
     37          6           0        2.846239    3.130751    0.568805
     38          6           0       -2.378512   -2.134319   -0.979011
     39          6           0        2.097632    0.804088   -0.065047
     40          6           0       -1.556634    0.135899   -0.148511
     41          6           0        0.656512    0.878405    0.120570
     42          6           0       -0.250560   -0.053928   -0.235876
     43          1           0       13.646592   -0.328049    1.041266
     44          1           0       13.161852   -2.046281    1.861166
     45          1           0      -14.085118   -0.601792    1.731583
     46          1           0      -14.308810   -0.651774    0.083122
     47          1           0       12.699757   -2.933623   -0.383692
     48          1           0      -12.973815    1.828757    1.610486
     49          1           0       13.875805   -0.328049   -1.210754
     50          1           0       13.258101   -1.509538   -2.383754
     51          1           0      -13.647339    1.215902   -1.381861
     52          1           0      -12.817566    2.704965   -0.880212
     53          1           0       11.786760   -0.783589    3.301856
     54          1           0       10.221779   -0.089867    2.820724
     55          1           0       11.949701    0.842825    2.653955
     56          1           0       10.729586   -3.074907    0.925935
     57          1           0       10.798954   -2.677216    2.400407
     58          1           0        9.620096   -1.962569    1.601512
     59          1           0      -11.316530    0.304037    2.436220
     60          1           0      -10.672323   -1.544236    1.995544
     61          1           0      -12.175489   -1.191554    2.971575
     62          1           0      -13.469791   -2.934309    0.853071
     63          1           0      -11.881578   -3.143156    0.894384
     64          1           0      -12.457123   -2.378353   -0.651914
     65          1           0        8.671810   -0.492835    0.436220
     66          1           0      -10.330433   -2.075563   -0.673436
     67          1           0        9.976930    0.359014   -2.533651
     68          1           0       11.475390    1.209942   -3.030463
     69          1           0       11.213800   -0.598248   -3.528819
     70          1           0      -11.272684    1.899424   -2.879766
     71          1           0       -9.977596    0.815983   -2.166360
     72          1           0      -10.206018    2.393086   -1.526596
     73          1           0       14.873237   -3.094979    0.323834
     74          1           0      -15.127370    1.952456    1.593702
     75          1           0       10.108667    2.385093   -0.278551
     76          1           0       -8.664174    0.397296    0.105763
     77          1           0        8.854030    4.224332   -0.475725
     78          1           0        7.109358    4.228582    0.304871
     79          1           0        8.694237    3.697317    1.392579
     80          1           0       -8.492960   -3.244744   -0.356013
     81          1           0       -8.017137   -2.663611   -1.984328
     82          1           0       -6.687783   -3.345690   -1.014658
     83          1           0        7.002263    0.422274   -0.536372
     84          1           0       -6.746117    0.383462    0.181050
     85          1           0        5.519556    3.302109    0.600619
     86          1           0       -4.994660   -2.224685   -0.505255
     87          1           0        4.656441    0.374227   -0.337041
     88          1           0       -4.100408    0.729633   -0.068708
     89          1           0        3.401585    3.348486    1.398791
     90          1           0        1.774892    3.363191    0.702175
     91          1           0        3.176406    3.771587   -0.137952
     92          1           0       -2.826043   -2.819224   -0.327966
     93          1           0       -2.567142   -2.416125   -2.105259
     94          1           0       -1.220087   -2.359167   -0.717191
     95          1           0        2.330993   -0.171804   -0.795204
     96          1           0       -1.979107    1.201449    0.127886
     97          1           0        0.429741    1.944306    0.387787
     98          1           0        0.195328   -1.079857   -0.554158
 ---------------------------------------------------------------------

 SCF Done:  E(RCAM-B3LYP) =  -1706.93862881     A.U. after   14 cycles

 Excitation energies and oscillator strengths:

 Excited State   1:      Singlet-A      2.6423 eV  469.22 nm  f=3.5525  <S**2>=0.000
     155 ->158         0.17256
     156 ->157         0.68083
 This state for optimization and/or second-order correction.
 Total Energy, E(TD-HF/TD-DFT) =  -1706.84152499
 Copying the excited state density for this state as the 1-particle RhoCI density.

 The electronic state is 1-A.
 Alpha  occ. eigenvalues --  -19.23389 -19.21210 -10.31065 -10.30603 -10.28538
 Alpha  occ. eigenvalues --  -10.27919 -10.27804 -10.27733 -10.27593 -10.27469
 Alpha  occ. eigenvalues --  -10.27372 -10.27278 -10.27238 -10.27015 -10.26846
 Alpha  occ. eigenvalues --  -10.26804 -10.26803 -10.26781 -10.26699 -10.26660
 Alpha  occ. eigenvalues --  -10.26651 -10.26648 -10.26476 -10.26476 -10.26463
 Alpha  occ. eigenvalues --  -10.26242 -10.26162 -10.26138 -10.26079 -10.26025
 Alpha  occ. eigenvalues --  -10.25860 -10.25836 -10.25811 -10.25704 -10.25644
 Alpha  occ. eigenvalues --  -10.25208 -10.25122 -10.25068 -10.24889 -10.24100
 Alpha  occ. eigenvalues --  -10.24041 -10.22676  -1.09412  -1.09147  -0.94132
 Alpha  occ. eigenvalues --   -0.93260  -0.92510  -0.91718  -0.91005  -0.90479
 Alpha  occ. eigenvalues --   -0.87626  -0.87058  -0.86973  -0.84728  -0.84065
 Alpha  occ. eigenvalues --   -0.82773  -0.81643  -0.79959  -0.79256  -0.78868
 Alpha  occ. eigenvalues --   -0.77111  -0.76718  -0.76118  -0.75878  -0.75243
 Alpha  occ. eigenvalues --   -0.75227  -0.74762  -0.74208  -0.73695  -0.70756
 Alpha  occ. eigenvalues --   -0.68692  -0.66967  -0.65010  -0.64711  -0.63917
 Alpha  occ. eigenvalues --   -0.63396  -0.62771  -0.61052  -0.60058  -0.59516
 Alpha  occ. eigenvalues --   -0.58256  -0.58200  -0.57834  -0.56720  -0.55703
 Alpha  occ. eigenvalues --   -0.55338  -0.54760  -0.54543  -0.54163  -0.53801
 Alpha  occ. eigenvalues --   -0.53249  -0.52486  -0.52226  -0.51821  -0.50736
 Alpha  occ. eigenvalues --   -0.50400  -0.49956  -0.49842  -0.49598  -0.49336
 Alpha  occ. eigenvalues --   -0.48738  -0.48562  -0.48277  -0.48061  -0.47798
 Alpha  occ. eigenvalues --   -0.47731  -0.47384  -0.46952  -0.46749  -0.46657
 Alpha  occ. eigenvalues --   -0.46281  -0.46003  -0.45317  -0.45118  -0.44770
 Alpha  occ. eigenvalues --   -0.44579  -0.44176  -0.44049  -0.43744  -0.43513
 Alpha  occ. eigenvalues --   -0.43136  -0.42497  -0.42271  -0.42069  -0.41768
 Alpha  occ. eigenvalues --   -0.41582  -0.41138  -0.40986  -0.40744  -0.40449
 Alpha  occ. eigenvalues --   -0.40302  -0.39970  -0.39503  -0.39362  -0.39266
 Alpha  occ. eigenvalues --   -0.38873  -0.38501  -0.38166  -0.37807  -0.37599
 Alpha  occ. eigenvalues --   -0.37143  -0.36989  -0.36726  -0.36247  -0.36181
 Alpha  occ. eigenvalues --   -0.35289  -0.34604  -0.34389  -0.32154  -0.30993
 Alpha  occ. eigenvalues --   -0.30150  -0.29316  -0.28508  -0.26711  -0.24167
 Alpha  occ. eigenvalues --   -0.20807
 Alpha virt. eigenvalues --   -0.04777  -0.00481   0.02892   0.05653   0.07264
 Alpha virt. eigenvalues --    0.08041   0.08479   0.10547   0.10807   0.11209
 Alpha virt. eigenvalues --    0.11419   0.12527   0.12871   0.12956   0.13493

 Mulliken charges:
               1
     1  O   -0.545718
     2  O   -0.554569
     3  C   -0.016935
     4  C    0.002331
     5  C   -0.172018
     6  C   -0.172727
     7  C    0.164834
     8  C    0.160998
     9  C    0.087144
    10  C    0.011916
    11  C   -0.234067
    12  C   -0.205142
    13  C    0.096886
    14  C    0.081048
    15  C   -0.289690
    16  C   -0.310978
    17  C   -0.267691
    18  C   -0.340969
    19  C   -0.145233
    20  C   -0.158363
    21  C   -0.354516
    22  C   -0.372553
    23  C   -0.064600
    24  C   -0.078232
    25  C    0.069119
    26  C    0.148940
    27  C   -0.348363
    28  C   -0.371557
    29  C   -0.120899
    30  C   -0.143399
    31  C   -0.104215
    32  C   -0.106433
    33  C   -0.121684
    34  C   -0.086504
    35  C    0.135129
    36  C    0.079447
    37  C   -0.374657
    38  C   -0.365577
    39  C   -0.151127
    40  C   -0.102698
    41  C   -0.080119
    42  C   -0.077608
    43  H    0.078119
    44  H    0.077102
    45  H    0.084604
    46  H    0.112646
    47  H    0.046510
    48  H    0.045774
    49  H    0.118170
    50  H    0.094385
    51  H    0.119423
    52  H    0.110820
    53  H    0.098448
    54  H    0.107785
    55  H    0.073455
    56  H    0.097419
    57  H    0.109820
    58  H    0.106961
    59  H    0.075854
    60  H    0.088118
    61  H    0.105312
    62  H    0.112028
    63  H    0.088410
    64  H    0.085117
    65  H    0.083170
    66  H    0.094528
    67  H    0.123762
    68  H    0.097878
    69  H    0.066593
    70  H    0.083963
    71  H    0.124282
    72  H    0.108964
    73  H    0.313274
    74  H    0.304874
    75  H    0.088164
    76  H    0.094097
    77  H    0.122166
    78  H    0.094261
    79  H    0.123384
    80  H    0.121111
    81  H    0.120819
    82  H    0.114550
    83  H    0.080700
    84  H    0.077969
    85  H    0.078384
    86  H    0.087814
    87  H    0.075548
    88  H    0.080209
    89  H    0.132333
    90  H    0.097141
    91  H    0.137398
    92  H    0.127976
    93  H    0.121001
    94  H    0.077432
    95  H    0.065453
    96  H    0.074208
    97  H    0.077984
    98  H    0.093377
 Sum of Mulliken charges =  -0.00000

 Dipole moment (field-independent basis, Debye):
    X=             -0.4463    Y=             -1.3894    Z=              2.0029  Tot=              2.4781
 Quadrupole moment (field-independent basis, Debye-Ang):
   XX=           -281.3086   YY=           -241.3617   ZZ=           -260.7707
   XY=              0.9789   XZ=             -0.2573   YZ=             -0.1964

 Normal termination of Gaussian 16 at Mon Jul  8 17:05:54 2019.
