 Gaussian 16, Revision A.03,
 Gaussian 16:  ES64L-G16RevA.03 25-Dec-2016

 -------------------------------------
 # td=(NStates=1) CAM-B3LYP/6-31G(d,p)
 -------------------------------------

 --
 TD
 --
 Symbolic Z-matrix:
 Charge =  0 Multiplicity = 1

                         Standard orientation:
 ---------------------------------------------------------------------
 Center     Atomic      Atomic             Coordinates (Angstroms)
 Number     Number       Type             X           Y           Z
 ---------------------------------------------------------------------
      1          8           0       14.616399   -2.223349   -0.369898
      2          8           0      -14.759848    1.935716    0.940850
      3          6           0       11.345641   -1.277176    1.174451
      4          6           0      -12.340986   -1.028559    0.682152
      5          6           0       12.825405   -1.556043    1.100002
      6          6           0      -13.676920   -0.282568    0.717883
      7          6           0       13.210795   -2.065809   -0.275965
      8          6           0      -13.616654    1.176256    0.869932
      9          6           0       10.921471   -0.284164    0.017952
     10          6           0      -11.311349   -0.244469   -0.152452
     11          6           0       13.007658   -0.868257   -1.173639
     12          6           0      -12.702930    1.776221   -0.328602
     13          6           0       11.727326   -0.204946   -1.071302
     14          6           0      -11.527090    0.961453   -0.663485
     15          6           0       11.118688   -0.469825    2.562023
     16          6           0       10.458767   -2.519974    1.130558
     17          6           0      -11.850948   -1.099836    2.067546
     18          6           0      -12.572557   -2.462916    0.182940
     19          6           0        9.687834    0.460294    0.262639
     20          6           0      -10.077378   -1.019907   -0.481026
     21          6           0       11.242724    0.659026   -2.194713
     22          6           0      -10.656675    1.652669   -1.628279
     23          6           0        9.358848    1.670248   -0.018402
     24          6           0       -8.819011   -0.587857   -0.274991
     25          6           0        8.041316    2.332083    0.230683
     26          6           0       -7.527760   -1.320744   -0.525221
     27          6           0        8.084062    3.797252    0.483977
     28          6           0       -7.549819   -2.652799   -1.003474
     29          6           0        6.939558    1.593619   -0.065709
     30          6           0       -6.329212   -0.613391   -0.283654
     31          6           0        5.549345    2.077628    0.073172
     32          6           0       -5.005487   -1.030305   -0.495376
     33          6           0        4.587356    1.199631   -0.120688
     34          6           0       -3.970712   -0.305722   -0.319912
     35          6           0        3.128819    1.578141   -0.007071
     36          6           0       -2.521620   -0.640421   -0.611455
     37          6           0        2.826499    3.012326    0.484195
     38          6           0       -2.240714   -2.055653   -0.945660
     39          6           0        2.097485    0.667988   -0.325329
     40          6           0       -1.615180    0.223831   -0.172293
     41          6           0        0.733906    0.962239   -0.136377
     42          6           0       -0.137772    0.053734   -0.216140
     43          1           0       13.290804   -0.775176    1.413428
     44          1           0       13.119368   -2.455146    1.875545
     45          1           0      -14.553918   -0.705056    1.350343
     46          1           0      -14.317637   -0.471442    0.024960
     47          1           0       12.439127   -2.898704   -0.729284
     48          1           0      -13.029625    1.266567    1.774320
     49          1           0       13.848685   -0.216095   -0.812156
     50          1           0       13.155637   -0.920543   -2.376105
     51          1           0      -13.376513    1.790273   -1.235578
     52          1           0      -12.551353    3.013423   -0.201680
     53          1           0       11.361886   -0.969232    3.563356
     54          1           0        9.948918   -0.161328    2.699735
     55          1           0       11.736791    0.466162    2.715217
     56          1           0       10.480567   -3.034748    0.222313
     57          1           0       10.532395   -3.312578    2.051100
     58          1           0        9.388845   -2.249339    1.105758
     59          1           0      -11.968429   -0.230576    2.322873
     60          1           0      -10.664371   -1.652006    2.134736
     61          1           0      -12.591186   -1.799627    2.759365
     62          1           0      -13.300198   -3.061567    0.831516
     63          1           0      -11.667480   -3.015022    0.217064
     64          1           0      -13.017346   -2.482673   -0.814240
     65          1           0        8.824201   -0.291918    0.433512
     66          1           0      -10.318164   -2.078338   -0.816659
     67          1           0       10.160965    1.020438   -1.964667
     68          1           0       11.895641    1.500731   -2.234141
     69          1           0       11.422510    0.154919   -3.110435
     70          1           0      -11.416178    1.940158   -2.388714
     71          1           0       -9.647230    1.040983   -2.056127
     72          1           0      -10.348344    2.629982   -1.314000
     73          1           0       15.070263   -2.880791    0.176699
     74          1           0      -15.196041    1.621507    1.779780
     75          1           0       10.205684    2.368383   -0.394920
     76          1           0       -8.781333    0.479188    0.395274
     77          1           0        8.569920    4.315013   -0.359800
     78          1           0        6.995990    4.248576    0.672897
     79          1           0        8.789314    3.961243    1.250406
     80          1           0       -8.141959   -3.232474   -0.301062
     81          1           0       -8.372754   -2.620576   -1.985529
     82          1           0       -6.539349   -2.938080   -1.337642
     83          1           0        6.964613    0.300495   -0.350107
     84          1           0       -6.431923    0.387981    0.314638
     85          1           0        5.519532    3.284632    0.253466
     86          1           0       -4.898216   -1.981656   -1.187044
     87          1           0        4.704501    0.196121   -0.439294
     88          1           0       -4.082422    0.551989    0.616730
     89          1           0        3.435818    3.170079    1.260351
     90          1           0        1.746639    2.963060    0.857514
     91          1           0        3.164823    3.918158   -0.289397
     92          1           0       -2.749586   -2.840638   -0.214320
     93          1           0       -2.735081   -2.191621   -1.960371
     94          1           0       -1.035859   -2.341671   -1.176276
     95          1           0        2.332709   -0.238700   -0.614973
     96          1           0       -1.962302    1.176470    0.070786
     97          1           0        0.396099    1.829509    0.354828
     98          1           0        0.283777   -0.827430   -0.694951
 ---------------------------------------------------------------------

 SCF Done:  E(RCAM-B3LYP) =  -1706.84346242     A.U. after   13 cycles

 Excitation energies and oscillator strengths:

 Excited State   1:      Singlet-A      3.2677 eV  379.42 nm  f=3.6439  <S**2>=0.000
     155 ->158         0.21681
     156 ->157         0.66246
 This state for optimization and/or second-order correction.
 Total Energy, E(TD-HF/TD-DFT) =  -1706.72337484
 Copying the excited state density for this state as the 1-particle RhoCI density.

 The electronic state is 1-A.
 Alpha  occ. eigenvalues --  -19.22560 -19.21493 -10.31866 -10.30318 -10.28052
 Alpha  occ. eigenvalues --  -10.27922 -10.27849 -10.27839 -10.27761 -10.27644
 Alpha  occ. eigenvalues --  -10.27498 -10.27454 -10.27312 -10.27215 -10.27155
 Alpha  occ. eigenvalues --  -10.26857 -10.26855 -10.26852 -10.26796 -10.26342
 Alpha  occ. eigenvalues --  -10.26134 -10.26112 -10.26076 -10.26056 -10.26052
 Alpha  occ. eigenvalues --  -10.26039 -10.25603 -10.25586 -10.25564 -10.25496
 Alpha  occ. eigenvalues --  -10.25472 -10.25358 -10.25239 -10.25152 -10.25123
 Alpha  occ. eigenvalues --  -10.25028 -10.24825 -10.24768 -10.24689 -10.24298
 Alpha  occ. eigenvalues --  -10.23840 -10.23796  -1.11357  -1.09503  -0.94517
 Alpha  occ. eigenvalues --   -0.93737  -0.92562  -0.91625  -0.91012  -0.89792
 Alpha  occ. eigenvalues --   -0.88334  -0.88002  -0.86642  -0.85846  -0.85140
 Alpha  occ. eigenvalues --   -0.84071  -0.82293  -0.80784  -0.80673  -0.77707
 Alpha  occ. eigenvalues --   -0.77149  -0.76280  -0.76030  -0.75832  -0.75293
 Alpha  occ. eigenvalues --   -0.75192  -0.74870  -0.74370  -0.73711  -0.69677
 Alpha  occ. eigenvalues --   -0.68717  -0.67337  -0.66118  -0.64471  -0.64042
 Alpha  occ. eigenvalues --   -0.63501  -0.62898  -0.62081  -0.60218  -0.59672
 Alpha  occ. eigenvalues --   -0.59365  -0.58598  -0.58253  -0.57501  -0.56367
 Alpha  occ. eigenvalues --   -0.55356  -0.54843  -0.54448  -0.53809  -0.53564
 Alpha  occ. eigenvalues --   -0.52845  -0.52627  -0.51639  -0.51376  -0.51080
 Alpha  occ. eigenvalues --   -0.50851  -0.50414  -0.50027  -0.49356  -0.49038
 Alpha  occ. eigenvalues --   -0.48690  -0.48365  -0.48202  -0.48114  -0.47653
 Alpha  occ. eigenvalues --   -0.47475  -0.46837  -0.46720  -0.46490  -0.46238
 Alpha  occ. eigenvalues --   -0.45927  -0.45850  -0.45200  -0.44916  -0.44621
 Alpha  occ. eigenvalues --   -0.44250  -0.44116  -0.43921  -0.43534  -0.42880
 Alpha  occ. eigenvalues --   -0.42598  -0.42501  -0.42127  -0.42053  -0.41470
 Alpha  occ. eigenvalues --   -0.41434  -0.41345  -0.40768  -0.40664  -0.40495
 Alpha  occ. eigenvalues --   -0.40192  -0.40056  -0.39968  -0.39469  -0.39360
 Alpha  occ. eigenvalues --   -0.39143  -0.38864  -0.38454  -0.38212  -0.38120
 Alpha  occ. eigenvalues --   -0.37414  -0.36957  -0.36391  -0.36162  -0.35238
 Alpha  occ. eigenvalues --   -0.34907  -0.33948  -0.33362  -0.32523  -0.32380
 Alpha  occ. eigenvalues --   -0.32058  -0.29226  -0.28132  -0.26478  -0.24257
 Alpha  occ. eigenvalues --   -0.21989
 Alpha virt. eigenvalues --   -0.02805   0.00064   0.03490   0.06170   0.07627
 Alpha virt. eigenvalues --    0.09241   0.10081   0.10771   0.10826   0.11123
 Alpha virt. eigenvalues --    0.11377   0.12292   0.12326   0.13092   0.13176

 Mulliken charges:
               1
     1  O   -0.570328
     2  O   -0.546969
     3  C    0.000004
     4  C   -0.022313
     5  C   -0.145682
     6  C   -0.186531
     7  C    0.178204
     8  C    0.171306
     9  C    0.021386
    10  C    0.032792
    11  C   -0.211879
    12  C   -0.250105
    13  C    0.078938
    14  C    0.117720
    15  C   -0.318186
    16  C   -0.299658
    17  C   -0.217369
    18  C   -0.308136
    19  C   -0.070020
    20  C   -0.152307
    21  C   -0.370071
    22  C   -0.356032
    23  C   -0.137397
    24  C   -0.086606
    25  C    0.062874
    26  C    0.112612
    27  C   -0.363166
    28  C   -0.361281
    29  C   -0.095555
    30  C   -0.120498
    31  C   -0.073967
    32  C   -0.068593
    33  C   -0.097251
    34  C   -0.113366
    35  C    0.059047
    36  C    0.113157
    37  C   -0.349554
    38  C   -0.357200
    39  C   -0.109487
    40  C   -0.122416
    41  C   -0.036470
    42  C   -0.097871
    43  H    0.107216
    44  H    0.054416
    45  H    0.051274
    46  H    0.102520
    47  H    0.075277
    48  H    0.072449
    49  H    0.126510
    50  H    0.074437
    51  H    0.114222
    52  H    0.088438
    53  H    0.088308
    54  H    0.089218
    55  H    0.098240
    56  H    0.110495
    57  H    0.082818
    58  H    0.099282
    59  H    0.098787
    60  H    0.068493
    61  H    0.064355
    62  H    0.092147
    63  H    0.104813
    64  H    0.103842
    65  H    0.080147
    66  H    0.087068
    67  H    0.120773
    68  H    0.114710
    69  H    0.103670
    70  H    0.103064
    71  H    0.105113
    72  H    0.119272
    73  H    0.305009
    74  H    0.309723
    75  H    0.086313
    76  H    0.080362
    77  H    0.128222
    78  H    0.095419
    79  H    0.134441
    80  H    0.137310
    81  H    0.080257
    82  H    0.113529
    83  H    0.063908
    84  H    0.074980
    85  H    0.085822
    86  H    0.070910
    87  H    0.087675
    88  H    0.066259
    89  H    0.132338
    90  H    0.101148
    91  H    0.096320
    92  H    0.118909
    93  H    0.114334
    94  H    0.089336
    95  H    0.068691
    96  H    0.081763
    97  H    0.077860
    98  H    0.066011
 Sum of Mulliken charges =  -0.00000

 Dipole moment (field-independent basis, Debye):
    X=              0.4241    Y=             -1.2822    Z=              1.6126  Tot=              2.1034
 Quadrupole moment (field-independent basis, Debye-Ang):
   XX=           -243.2005   YY=           -246.3484   ZZ=           -264.0251
   XY=             13.1810   XZ=             -2.3334   YZ=              3.0292

 Normal termination of Gaussian 16 at Mon Jul  8 18:33:51 2019.
