 Gaussian 16, Revision A.03,
 Gaussian 16:  ES64L-G16RevA.03 25-Dec-2016

 -------------------------------------
 # td=(NStates=1) CAM-B3LYP/6-31G(d,p)
 -------------------------------------

 --
 TD
 --
 Symbolic Z-matrix:
 Charge =  0 Multiplicity = 1

                         Standard orientation:
 ---------------------------------------------------------------------
 Center     Atomic      Atomic             Coordinates (Angstroms)
 Number     Number       Type             X           Y           Z
 ---------------------------------------------------------------------
      1          8           0       14.901252   -2.044127   -0.395660
      2          8           0      -14.839051    1.991754    0.644231
      3          6           0       11.530379   -0.988206    1.144383
      4          6           0      -12.363585   -1.022996    0.736372
      5          6           0       13.047570   -1.335888    1.037022
      6          6           0      -13.689108   -0.153622    0.687640
      7          6           0       13.420778   -1.948185   -0.199018
      8          6           0      -13.606241    1.381788    0.688853
      9          6           0       11.007297   -0.264521   -0.044435
     10          6           0      -11.390282   -0.260632   -0.211916
     11          6           0       13.090824   -0.895658   -1.273142
     12          6           0      -12.727324    1.876907   -0.580272
     13          6           0       11.654764   -0.203082   -1.213493
     14          6           0      -11.485246    0.998991   -0.718434
     15          6           0       11.319577   -0.163373    2.448447
     16          6           0       10.626418   -2.351534    1.337776
     17          6           0      -11.704933   -0.880081    2.098605
     18          6           0      -12.514550   -2.406217    0.375067
     19          6           0        9.600997    0.403117    0.045135
     20          6           0      -10.100399   -1.079102   -0.367780
     21          6           0       11.197113    0.483782   -2.480310
     22          6           0      -10.588887    1.655432   -1.775449
     23          6           0        9.348832    1.652353   -0.158384
     24          6           0       -8.859993   -0.565324   -0.211841
     25          6           0        8.014153    2.256426    0.110833
     26          6           0       -7.650543   -1.340983   -0.499275
     27          6           0        7.958547    3.599675    0.434058
     28          6           0       -7.808552   -2.704431   -0.917844
     29          6           0        6.805550    1.512046   -0.062200
     30          6           0       -6.495832   -0.674223   -0.336916
     31          6           0        5.438532    1.955923    0.082679
     32          6           0       -5.089459   -1.201190   -0.465849
     33          6           0        4.360980    1.229289   -0.119647
     34          6           0       -3.927870   -0.510882   -0.145902
     35          6           0        3.039965    1.582750    0.198826
     36          6           0       -2.653503   -0.883104   -0.314313
     37          6           0        2.900754    3.012910    0.496646
     38          6           0       -2.284370   -2.331359   -0.749112
     39          6           0        2.045381    0.672657    0.026314
     40          6           0       -1.663298   -0.061247    0.016167
     41          6           0        0.631183    0.925291    0.070481
     42          6           0       -0.226247   -0.107956   -0.248233
     43          1           0       13.811797   -0.424469    1.313768
     44          1           0       13.454709   -1.904974    1.953573
     45          1           0      -14.425456   -0.495825    1.385484
     46          1           0      -14.173321   -0.422363   -0.233492
     47          1           0       12.936311   -2.906115   -0.344340
     48          1           0      -13.017460    1.822709    1.424136
     49          1           0       13.734042   -0.108698   -0.994860
     50          1           0       13.298403   -1.317643   -2.367115
     51          1           0      -13.505753    1.886158   -1.292919
     52          1           0      -12.297837    2.867528   -0.486552
     53          1           0       11.782667   -0.732099    3.167976
     54          1           0       10.269534    0.172115    2.804708
     55          1           0       12.062362    0.802893    2.550232
     56          1           0       10.676814   -2.983260    0.327262
     57          1           0       11.304882   -3.044528    2.206687
     58          1           0        9.621662   -1.955288    1.562246
     59          1           0      -11.695765    0.119199    2.394078
     60          1           0      -10.798853   -1.435075    2.176294
     61          1           0      -12.348947   -1.475253    2.748900
     62          1           0      -13.570972   -2.743143    1.095969
     63          1           0      -11.684024   -3.017732    0.563738
     64          1           0      -12.586476   -2.540687   -0.768076
     65          1           0        8.933818   -0.166445    0.714745
     66          1           0      -10.257096   -2.187557   -0.740540
     67          1           0       10.156425    0.672383   -2.664756
     68          1           0       11.788488    1.359490   -2.773838
     69          1           0       11.191283   -0.162977   -3.413849
     70          1           0      -11.308025    1.971977   -2.618350
     71          1           0       -9.735389    0.893812   -1.905531
     72          1           0      -10.130118    2.688442   -1.277971
     73          1           0       15.264453   -2.867917    0.103141
     74          1           0      -15.342864    1.530393    1.359761
     75          1           0       10.040473    2.358569   -0.525520
     76          1           0       -8.762203    0.396201    0.270867
     77          1           0        8.580103    4.278523   -0.249135
     78          1           0        6.903692    4.033408    0.768458
     79          1           0        8.138756    3.785669    1.558387
     80          1           0       -8.368545   -3.166161    0.012108
     81          1           0       -8.512864   -2.458289   -1.813724
     82          1           0       -6.935357   -3.267628   -1.359401
     83          1           0        6.807349    0.504479   -0.620271
     84          1           0       -6.459160    0.409613   -0.147323
     85          1           0        5.400085    3.085599    0.598998
     86          1           0       -4.849915   -2.324455   -0.915441
     87          1           0        4.503904    0.124364   -0.419569
     88          1           0       -4.113675    0.501314    0.304406
     89          1           0        3.558372    3.180010    1.405102
     90          1           0        1.764033    3.327707    0.654273
     91          1           0        3.332941    3.503274   -0.179064
     92          1           0       -2.650372   -3.061674   -0.035183
     93          1           0       -2.714424   -2.576620   -1.823316
     94          1           0       -1.385076   -2.644688   -0.991512
     95          1           0        2.371138   -0.385552   -0.358388
     96          1           0       -2.177606    0.996405    0.373998
     97          1           0        0.221911    1.824011    0.363500
     98          1           0        0.143295   -1.093404   -0.480557
 ---------------------------------------------------------------------

 SCF Done:  E(RCAM-B3LYP) =  -1706.92221741     A.U. after   14 cycles

 Excitation energies and oscillator strengths:

 Excited State   1:      Singlet-A      2.6917 eV  460.62 nm  f=3.6956  <S**2>=0.000
     155 ->158        -0.16820
     156 ->157         0.68341
 This state for optimization and/or second-order correction.
 Total Energy, E(TD-HF/TD-DFT) =  -1706.82329962
 Copying the excited state density for this state as the 1-particle RhoCI density.

 The electronic state is 1-A.
 Alpha  occ. eigenvalues --  -19.21779 -19.21556 -10.30445 -10.29670 -10.28822
 Alpha  occ. eigenvalues --  -10.28690 -10.27699 -10.27517 -10.27240 -10.27069
 Alpha  occ. eigenvalues --  -10.26959 -10.26920 -10.26852 -10.26847 -10.26824
 Alpha  occ. eigenvalues --  -10.26752 -10.26704 -10.26649 -10.26639 -10.26610
 Alpha  occ. eigenvalues --  -10.26604 -10.26602 -10.26481 -10.26378 -10.26295
 Alpha  occ. eigenvalues --  -10.26281 -10.26268 -10.26215 -10.25910 -10.25903
 Alpha  occ. eigenvalues --  -10.25782 -10.25765 -10.25708 -10.25654 -10.25493
 Alpha  occ. eigenvalues --  -10.25452 -10.25179 -10.25038 -10.24998 -10.24796
 Alpha  occ. eigenvalues --  -10.24351 -10.23265  -1.10927  -1.06390  -0.93472
 Alpha  occ. eigenvalues --   -0.93288  -0.92766  -0.92141  -0.91241  -0.90828
 Alpha  occ. eigenvalues --   -0.87382  -0.87107  -0.85863  -0.84981  -0.84179
 Alpha  occ. eigenvalues --   -0.83168  -0.81798  -0.81215  -0.79587  -0.78362
 Alpha  occ. eigenvalues --   -0.77346  -0.76843  -0.76464  -0.76001  -0.75628
 Alpha  occ. eigenvalues --   -0.74646  -0.74584  -0.73989  -0.73617  -0.70152
 Alpha  occ. eigenvalues --   -0.68411  -0.67194  -0.65505  -0.64656  -0.64328
 Alpha  occ. eigenvalues --   -0.63456  -0.62769  -0.61706  -0.59685  -0.59122
 Alpha  occ. eigenvalues --   -0.58719  -0.58535  -0.58099  -0.57736  -0.56008
 Alpha  occ. eigenvalues --   -0.55548  -0.55351  -0.54389  -0.54185  -0.53434
 Alpha  occ. eigenvalues --   -0.52666  -0.52519  -0.52005  -0.51730  -0.51294
 Alpha  occ. eigenvalues --   -0.50531  -0.50182  -0.50076  -0.50017  -0.49617
 Alpha  occ. eigenvalues --   -0.49153  -0.48941  -0.48681  -0.48411  -0.48126
 Alpha  occ. eigenvalues --   -0.48002  -0.47450  -0.47343  -0.46806  -0.46708
 Alpha  occ. eigenvalues --   -0.45735  -0.45570  -0.45293  -0.44991  -0.44882
 Alpha  occ. eigenvalues --   -0.44452  -0.44089  -0.43400  -0.43181  -0.43113
 Alpha  occ. eigenvalues --   -0.43025  -0.42601  -0.42454  -0.41728  -0.41454
 Alpha  occ. eigenvalues --   -0.41325  -0.41160  -0.40843  -0.40522  -0.40457
 Alpha  occ. eigenvalues --   -0.40182  -0.40097  -0.39566  -0.39363  -0.38923
 Alpha  occ. eigenvalues --   -0.38688  -0.38384  -0.38291  -0.38153  -0.37769
 Alpha  occ. eigenvalues --   -0.37268  -0.36792  -0.35916  -0.35753  -0.35385
 Alpha  occ. eigenvalues --   -0.35172  -0.34158  -0.33764  -0.33129  -0.32161
 Alpha  occ. eigenvalues --   -0.31292  -0.29455  -0.27987  -0.26845  -0.24092
 Alpha  occ. eigenvalues --   -0.20489
 Alpha virt. eigenvalues --   -0.04292  -0.00054   0.03415   0.06285   0.08007
 Alpha virt. eigenvalues --    0.09310   0.10397   0.10640   0.11080   0.11257
 Alpha virt. eigenvalues --    0.11876   0.12367   0.12567   0.13092   0.13646

 Mulliken charges:
               1
     1  O   -0.571383
     2  O   -0.547986
     3  C   -0.034159
     4  C    0.010038
     5  C   -0.188183
     6  C   -0.214435
     7  C    0.151339
     8  C    0.168000
     9  C    0.080576
    10  C    0.050207
    11  C   -0.203315
    12  C   -0.235255
    13  C    0.042217
    14  C    0.024186
    15  C   -0.296728
    16  C   -0.280136
    17  C   -0.279316
    18  C   -0.295527
    19  C   -0.125661
    20  C   -0.176575
    21  C   -0.378074
    22  C   -0.336155
    23  C   -0.053733
    24  C   -0.085465
    25  C    0.105216
    26  C    0.132111
    27  C   -0.392107
    28  C   -0.361264
    29  C   -0.141069
    30  C   -0.150003
    31  C   -0.068813
    32  C   -0.112893
    33  C   -0.117832
    34  C   -0.125532
    35  C    0.134548
    36  C    0.183894
    37  C   -0.354937
    38  C   -0.374156
    39  C   -0.150638
    40  C   -0.157290
    41  C   -0.055936
    42  C   -0.094817
    43  H    0.091662
    44  H    0.072063
    45  H    0.069511
    46  H    0.108849
    47  H    0.092701
    48  H    0.082299
    49  H    0.134266
    50  H    0.088906
    51  H    0.123733
    52  H    0.101448
    53  H    0.112596
    54  H    0.102412
    55  H    0.078306
    56  H    0.098379
    57  H    0.073380
    58  H    0.119054
    59  H    0.110431
    60  H    0.110548
    61  H    0.084140
    62  H    0.062641
    63  H    0.119223
    64  H    0.102423
    65  H    0.083896
    66  H    0.086729
    67  H    0.124700
    68  H    0.118764
    69  H    0.096104
    70  H    0.119196
    71  H    0.115256
    72  H    0.082024
    73  H    0.301371
    74  H    0.307264
    75  H    0.092192
    76  H    0.103299
    77  H    0.122445
    78  H    0.094511
    79  H    0.115192
    80  H    0.116273
    81  H    0.119536
    82  H    0.116609
    83  H    0.079076
    84  H    0.082903
    85  H    0.054694
    86  H    0.066469
    87  H    0.075673
    88  H    0.078481
    89  H    0.113856
    90  H    0.088137
    91  H    0.144256
    92  H    0.125618
    93  H    0.091036
    94  H    0.118098
    95  H    0.077088
    96  H    0.051385
    97  H    0.088607
    98  H    0.087332
 Sum of Mulliken charges =  -0.00000

 Dipole moment (field-independent basis, Debye):
    X=              0.6126    Y=             -1.9180    Z=              1.8169  Tot=              2.7120
 Quadrupole moment (field-independent basis, Debye-Ang):
   XX=           -267.6306   YY=           -245.1120   ZZ=           -261.1042
   XY=              9.8660   XZ=              1.2768   YZ=              3.0413

 Normal termination of Gaussian 16 at Sat Jul  6 00:51:38 2019.
