 Gaussian 16, Revision A.03,
 Gaussian 16:  ES64L-G16RevA.03 25-Dec-2016

 -------------------------------------
 # td=(NStates=1) CAM-B3LYP/6-31G(d,p)
 -------------------------------------

 --
 TD
 --
 Symbolic Z-matrix:
 Charge =  0 Multiplicity = 1

                         Standard orientation:
 ---------------------------------------------------------------------
 Center     Atomic      Atomic             Coordinates (Angstroms)
 Number     Number       Type             X           Y           Z
 ---------------------------------------------------------------------
      1          8           0       14.740077   -2.214881   -0.606786
      2          8           0      -14.951177    1.914749    0.737490
      3          6           0       11.511410   -1.270170    1.217668
      4          6           0      -12.491625   -1.065590    0.709543
      5          6           0       12.929174   -1.533467    0.961474
      6          6           0      -13.758514   -0.226654    0.688603
      7          6           0       13.325940   -1.895294   -0.391483
      8          6           0      -13.595416    1.300959    0.768291
      9          6           0       10.957060   -0.318353    0.067070
     10          6           0      -11.342599   -0.274851   -0.196642
     11          6           0       13.088737   -0.781584   -1.310925
     12          6           0      -12.846164    1.758530   -0.404063
     13          6           0       11.708613   -0.200886   -1.018605
     14          6           0      -11.543801    1.008695   -0.716061
     15          6           0       11.219602   -0.472145    2.571549
     16          6           0       10.611865   -2.552385    1.215889
     17          6           0      -11.921293   -1.034559    2.168378
     18          6           0      -12.697335   -2.453605    0.189414
     19          6           0        9.718260    0.460874    0.368587
     20          6           0      -10.113864   -0.978119   -0.452353
     21          6           0       11.203858    0.623484   -2.320715
     22          6           0      -10.418313    1.745102   -1.642621
     23          6           0        9.394789    1.632725    0.033996
     24          6           0       -8.861198   -0.448055   -0.312179
     25          6           0        8.026020    2.299451    0.142489
     26          6           0       -7.599181   -1.302982   -0.505040
     27          6           0        8.135437    3.761002    0.643250
     28          6           0       -7.775905   -2.789565   -0.889638
     29          6           0        6.949539    1.590026   -0.092902
     30          6           0       -6.468765   -0.695110   -0.376876
     31          6           0        5.578814    2.036809    0.010830
     32          6           0       -5.032826   -1.128702   -0.492214
     33          6           0        4.494585    1.237944   -0.103256
     34          6           0       -3.968005   -0.348730   -0.403048
     35          6           0        3.093527    1.679184    0.027588
     36          6           0       -2.518108   -0.788925   -0.438153
     37          6           0        2.912542    3.161177    0.350545
     38          6           0       -2.350549   -2.292560   -0.748294
     39          6           0        2.066692    0.669117   -0.040532
     40          6           0       -1.600726    0.110285   -0.226775
     41          6           0        0.631771    0.937627    0.048530
     42          6           0       -0.160628    0.013833   -0.307857
     43          1           0       13.374249   -0.625142    1.479795
     44          1           0       13.248274   -2.148832    1.891211
     45          1           0      -14.335388   -0.630503    1.457748
     46          1           0      -14.234826   -0.476510   -0.156669
     47          1           0       12.729082   -2.734529   -0.703780
     48          1           0      -13.384675    1.432290    1.752706
     49          1           0       13.850102    0.160002   -0.951094
     50          1           0       13.186111   -1.201613   -2.313200
     51          1           0      -13.485683    1.777839   -1.284404
     52          1           0      -12.503526    2.777859   -0.430355
     53          1           0       11.466082   -1.071073    3.471379
     54          1           0       10.212179   -0.042772    2.730940
     55          1           0       11.966382    0.417702    2.447134
     56          1           0       10.815494   -3.152272    0.399521
     57          1           0       10.816891   -3.099564    2.098898
     58          1           0        9.474999   -2.293835    1.230133
     59          1           0      -12.111990   -0.012305    2.790111
     60          1           0      -10.832942   -1.302521    2.295305
     61          1           0      -12.535733   -1.889002    2.934342
     62          1           0      -13.626285   -2.872889    0.629404
     63          1           0      -11.856831   -3.109625    0.503099
     64          1           0      -12.727793   -2.299657   -1.027423
     65          1           0        9.076661   -0.235642    0.944321
     66          1           0      -10.140787   -2.011320   -0.665502
     67          1           0       10.121694    0.895842   -2.354791
     68          1           0       12.007937    1.434111   -2.314316
     69          1           0       11.587159    0.048528   -3.284168
     70          1           0      -11.029729    2.478975   -2.241927
     71          1           0       -9.700807    0.838132   -2.193101
     72          1           0       -9.961490    2.357311   -0.947050
     73          1           0       15.102487   -2.891531    0.057281
     74          1           0      -15.447083    1.747706    1.631766
     75          1           0       10.145208    2.187920   -0.138979
     76          1           0       -8.739567    0.662142   -0.069204
     77          1           0        9.068425    4.209012    0.209375
     78          1           0        7.350936    4.367625    0.282575
     79          1           0        8.302045    3.741508    1.883571
     80          1           0       -8.037624   -3.492695    0.106710
     81          1           0       -8.499198   -2.970835   -1.699017
     82          1           0       -6.726262   -3.090585   -1.625188
     83          1           0        7.071707    0.568648   -0.380410
     84          1           0       -6.433136    0.397536   -0.296106
     85          1           0        5.445303    3.057052    0.286052
     86          1           0       -4.829703   -1.993662   -0.852519
     87          1           0        4.791788    0.154366   -0.381071
     88          1           0       -4.083808    0.879631   -0.114252
     89          1           0        3.429042    3.452084    1.333718
     90          1           0        1.774552    3.316673    0.639785
     91          1           0        3.282574    3.852805   -0.246660
     92          1           0       -2.446443   -3.025906    0.095694
     93          1           0       -2.816405   -2.590506   -1.669253
     94          1           0       -1.058126   -2.091840   -0.862109
     95          1           0        2.274962   -0.459471   -0.283260
     96          1           0       -2.069975    1.100532    0.168677
     97          1           0        0.145238    1.896145    0.199049
     98          1           0        0.266530   -1.039489   -0.270890
 ---------------------------------------------------------------------

 SCF Done:  E(RCAM-B3LYP) =  -1706.89015643     A.U. after   13 cycles

 Excitation energies and oscillator strengths:

 Excited State   1:      Singlet-A      3.2909 eV  376.75 nm  f=3.4751  <S**2>=0.000
     155 ->158        -0.17879
     156 ->157         0.66867
 This state for optimization and/or second-order correction.
 Total Energy, E(TD-HF/TD-DFT) =  -1706.76921974
 Copying the excited state density for this state as the 1-particle RhoCI density.

 The electronic state is 1-A.
 Alpha  occ. eigenvalues --  -19.21188 -19.20561 -10.30370 -10.29926 -10.29433
 Alpha  occ. eigenvalues --  -10.29128 -10.28480 -10.28061 -10.27667 -10.27659
 Alpha  occ. eigenvalues --  -10.27653 -10.27536 -10.27411 -10.27376 -10.27305
 Alpha  occ. eigenvalues --  -10.27280 -10.27083 -10.27050 -10.26770 -10.26744
 Alpha  occ. eigenvalues --  -10.26672 -10.26647 -10.26541 -10.26443 -10.26315
 Alpha  occ. eigenvalues --  -10.26306 -10.25997 -10.25903 -10.25848 -10.25829
 Alpha  occ. eigenvalues --  -10.25631 -10.25569 -10.25498 -10.25471 -10.25301
 Alpha  occ. eigenvalues --  -10.25141 -10.25106 -10.24953 -10.24647 -10.24271
 Alpha  occ. eigenvalues --  -10.23558 -10.22853  -1.07192  -1.05926  -0.94010
 Alpha  occ. eigenvalues --   -0.92490  -0.92373  -0.91334  -0.90496  -0.89419
 Alpha  occ. eigenvalues --   -0.88053  -0.86489  -0.86257  -0.85991  -0.85266
 Alpha  occ. eigenvalues --   -0.82992  -0.82069  -0.80131  -0.79362  -0.77506
 Alpha  occ. eigenvalues --   -0.76493  -0.76221  -0.76108  -0.75428  -0.75159
 Alpha  occ. eigenvalues --   -0.74914  -0.74703  -0.74514  -0.73663  -0.69815
 Alpha  occ. eigenvalues --   -0.68604  -0.67992  -0.66012  -0.65043  -0.63878
 Alpha  occ. eigenvalues --   -0.62632  -0.62394  -0.61634  -0.60625  -0.60075
 Alpha  occ. eigenvalues --   -0.59761  -0.58731  -0.58683  -0.57194  -0.56221
 Alpha  occ. eigenvalues --   -0.55740  -0.54955  -0.54613  -0.53756  -0.53472
 Alpha  occ. eigenvalues --   -0.52344  -0.52201  -0.51804  -0.51231  -0.50524
 Alpha  occ. eigenvalues --   -0.50362  -0.50178  -0.49435  -0.49058  -0.48760
 Alpha  occ. eigenvalues --   -0.48751  -0.48488  -0.48053  -0.47791  -0.47463
 Alpha  occ. eigenvalues --   -0.47266  -0.46929  -0.46520  -0.46178  -0.45680
 Alpha  occ. eigenvalues --   -0.45418  -0.45163  -0.45053  -0.44677  -0.44366
 Alpha  occ. eigenvalues --   -0.44119  -0.44044  -0.43984  -0.43517  -0.43398
 Alpha  occ. eigenvalues --   -0.43053  -0.42753  -0.42532  -0.42359  -0.42140
 Alpha  occ. eigenvalues --   -0.41839  -0.41418  -0.40931  -0.40842  -0.40486
 Alpha  occ. eigenvalues --   -0.40244  -0.39913  -0.39780  -0.39216  -0.39172
 Alpha  occ. eigenvalues --   -0.38853  -0.38810  -0.38606  -0.38170  -0.37653
 Alpha  occ. eigenvalues --   -0.37097  -0.36824  -0.36768  -0.36160  -0.35162
 Alpha  occ. eigenvalues --   -0.35025  -0.34092  -0.33399  -0.32618  -0.32269
 Alpha  occ. eigenvalues --   -0.31341  -0.30455  -0.28247  -0.26621  -0.24332
 Alpha  occ. eigenvalues --   -0.22225
 Alpha virt. eigenvalues --   -0.02989   0.00688   0.03475   0.05911   0.08344
 Alpha virt. eigenvalues --    0.10121   0.10668   0.10905   0.11304   0.11911
 Alpha virt. eigenvalues --    0.12035   0.12433   0.12543   0.12917   0.13137

 Mulliken charges:
               1
     1  O   -0.586142
     2  O   -0.592536
     3  C   -0.017198
     4  C    0.023959
     5  C   -0.208384
     6  C   -0.186643
     7  C    0.195375
     8  C    0.187601
     9  C    0.074296
    10  C    0.032020
    11  C   -0.188043
    12  C   -0.214772
    13  C   -0.011709
    14  C    0.006860
    15  C   -0.315052
    16  C   -0.295402
    17  C   -0.286907
    18  C   -0.301643
    19  C   -0.072841
    20  C   -0.140078
    21  C   -0.346721
    22  C   -0.352044
    23  C   -0.106824
    24  C   -0.099711
    25  C    0.071395
    26  C    0.116491
    27  C   -0.355470
    28  C   -0.354466
    29  C   -0.105545
    30  C   -0.127914
    31  C   -0.075250
    32  C   -0.066218
    33  C   -0.108996
    34  C   -0.102235
    35  C    0.086298
    36  C    0.111046
    37  C   -0.369971
    38  C   -0.353259
    39  C   -0.149174
    40  C   -0.136565
    41  C   -0.053759
    42  C   -0.080175
    43  H    0.095469
    44  H    0.072719
    45  H    0.080643
    46  H    0.105263
    47  H    0.094735
    48  H    0.088368
    49  H    0.106435
    50  H    0.120123
    51  H    0.134904
    52  H    0.104181
    53  H    0.094662
    54  H    0.119141
    55  H    0.090698
    56  H    0.107530
    57  H    0.100393
    58  H    0.089297
    59  H    0.085323
    60  H    0.114829
    61  H    0.042679
    62  H    0.105533
    63  H    0.108832
    64  H    0.093644
    65  H    0.075431
    66  H    0.080623
    67  H    0.125416
    68  H    0.107253
    69  H    0.086362
    70  H    0.099259
    71  H    0.123551
    72  H    0.136660
    73  H    0.303051
    74  H    0.302779
    75  H    0.068675
    76  H    0.092692
    77  H    0.113665
    78  H    0.120913
    79  H    0.104961
    80  H    0.109921
    81  H    0.133200
    82  H    0.073340
    83  H    0.079668
    84  H    0.077363
    85  H    0.068960
    86  H    0.057058
    87  H    0.075930
    88  H    0.045727
    89  H    0.116587
    90  H    0.097655
    91  H    0.140991
    92  H    0.135033
    93  H    0.133226
    94  H    0.060586
    95  H    0.094483
    96  H    0.079465
    97  H    0.091821
    98  H    0.088596
 Sum of Mulliken charges =  -0.00000

 Dipole moment (field-independent basis, Debye):
    X=              0.6027    Y=             -0.9521    Z=              2.3886  Tot=              2.6411
 Quadrupole moment (field-independent basis, Debye-Ang):
   XX=           -277.6218   YY=           -244.2429   ZZ=           -261.2634
   XY=              7.9513   XZ=              2.8749   YZ=              1.7415

 Normal termination of Gaussian 16 at Mon Jul  8 06:56:32 2019.
