 Gaussian 16, Revision A.03,
 Gaussian 16:  ES64L-G16RevA.03 25-Dec-2016

 -------------------------------------
 # td=(NStates=1) CAM-B3LYP/6-31G(d,p)
 -------------------------------------

 --
 TD
 --
 Symbolic Z-matrix:
 Charge =  0 Multiplicity = 1

                         Standard orientation:
 ---------------------------------------------------------------------
 Center     Atomic      Atomic             Coordinates (Angstroms)
 Number     Number       Type             X           Y           Z
 ---------------------------------------------------------------------
      1          8           0       14.682049   -2.111143   -0.199159
      2          8           0      -14.618182    2.124733    0.928416
      3          6           0       11.386349   -1.173065    1.250954
      4          6           0      -12.351842   -1.091513    0.688635
      5          6           0       12.913575   -1.519346    1.199304
      6          6           0      -13.761548   -0.164415    0.646811
      7          6           0       13.319136   -1.928290   -0.159836
      8          6           0      -13.460216    1.332480    0.919300
      9          6           0       10.953436   -0.281550   -0.039494
     10          6           0      -11.305022   -0.318717   -0.143429
     11          6           0       13.135505   -0.855564   -1.172538
     12          6           0      -12.606831    1.878109   -0.213678
     13          6           0       11.685357   -0.152872   -1.079041
     14          6           0      -11.409898    0.982594   -0.674032
     15          6           0       10.970489   -0.484277    2.577586
     16          6           0       10.610040   -2.555588    1.237219
     17          6           0      -11.900552   -1.168807    2.104933
     18          6           0      -12.732233   -2.452987    0.046704
     19          6           0        9.547838    0.280085    0.066612
     20          6           0      -10.048250   -1.124037   -0.468294
     21          6           0       11.235054    0.678930   -2.304465
     22          6           0      -10.578188    1.692803   -1.540517
     23          6           0        9.274724    1.629472   -0.131450
     24          6           0       -8.802026   -0.699923   -0.264923
     25          6           0        8.021623    2.327310   -0.046744
     26          6           0       -7.580920   -1.331209   -0.492988
     27          6           0        8.080774    3.765161    0.335993
     28          6           0       -7.651438   -2.828949   -1.129923
     29          6           0        6.846031    1.662291   -0.164633
     30          6           0       -6.345523   -0.658445   -0.132210
     31          6           0        5.467296    2.027695    0.070160
     32          6           0       -5.016545   -1.081983   -0.599647
     33          6           0        4.408517    1.147177   -0.057849
     34          6           0       -3.899299   -0.337530   -0.176050
     35          6           0        3.035999    1.708320    0.206018
     36          6           0       -2.596345   -0.776086   -0.505036
     37          6           0        2.796423    3.009923    0.660220
     38          6           0       -2.296228   -2.136299   -1.080180
     39          6           0        2.052255    0.836554   -0.184757
     40          6           0       -1.499352    0.126300   -0.250341
     41          6           0        0.712404    0.973616   -0.106471
     42          6           0       -0.126123   -0.026049   -0.452947
     43          1           0       13.448712   -0.583073    1.513975
     44          1           0       13.124514   -2.383446    2.075764
     45          1           0      -14.584748   -0.627130    1.408033
     46          1           0      -14.208073   -0.284513   -0.240281
     47          1           0       12.828485   -2.758961   -0.536162
     48          1           0      -13.042264    1.547030    1.868432
     49          1           0       14.038952   -0.123896   -1.050086
     50          1           0       13.287941   -1.341058   -1.994453
     51          1           0      -13.284168    2.174542   -1.098991
     52          1           0      -12.254580    2.833135    0.093833
     53          1           0       11.224707   -1.171183    3.464356
     54          1           0        9.871378   -0.137656    2.789374
     55          1           0       11.728750    0.426624    2.612049
     56          1           0       11.006852   -2.995309    0.193069
     57          1           0       10.775512   -3.137684    2.113949
     58          1           0        9.571098   -2.305287    1.320553
     59          1           0      -12.261204   -0.213119    2.678833
     60          1           0      -10.737328   -1.381511    2.075164
     61          1           0      -12.401942   -1.758021    2.795372
     62          1           0      -13.881772   -2.998066    0.534943
     63          1           0      -12.171589   -3.145251    0.240612
     64          1           0      -12.821442   -2.233827   -0.994643
     65          1           0        8.905056   -0.392534    0.494444
     66          1           0      -10.274084   -2.139957   -0.796608
     67          1           0       10.189168    1.128420   -2.332393
     68          1           0       11.914534    1.514259   -2.506091
     69          1           0       11.416939    0.055378   -3.249417
     70          1           0      -10.948747    2.231325   -2.412022
     71          1           0       -9.956145    1.067575   -2.079388
     72          1           0       -9.882562    2.348628   -1.092579
     73          1           0       14.775062   -3.129447    0.033062
     74          1           0      -15.244245    1.453313    1.615778
     75          1           0       10.025869    2.129473   -0.511699
     76          1           0       -8.925503    0.275511    0.031118
     77          1           0        8.596114    4.362338   -0.426167
     78          1           0        7.083947    4.178675    0.456403
     79          1           0        8.541709    3.865663    1.227995
     80          1           0       -8.425889   -3.394847   -0.788166
     81          1           0       -8.146144   -2.594358   -2.172237
     82          1           0       -6.564079   -3.184527   -1.011552
     83          1           0        7.002032    0.659495   -0.572852
     84          1           0       -6.410046    0.363158    0.165741
     85          1           0        5.562862    3.178131    0.399816
     86          1           0       -4.866202   -2.125181   -0.925562
     87          1           0        4.543409    0.073232   -0.366761
     88          1           0       -4.239767    0.621846    0.227329
     89          1           0        3.205367    3.149566    1.699501
     90          1           0        1.747615    3.082052    0.496223
     91          1           0        3.406430    3.805940   -0.021826
     92          1           0       -2.789811   -2.849766   -0.252917
     93          1           0       -2.789046   -2.225649   -2.084226
     94          1           0       -1.277739   -2.365881   -0.767151
     95          1           0        2.240094   -0.236769   -0.399366
     96          1           0       -1.804080    1.044412    0.239691
     97          1           0        0.232811    1.892845    0.283825
     98          1           0        0.479667   -0.821282   -0.933525
 ---------------------------------------------------------------------

 SCF Done:  E(RCAM-B3LYP) =  -1706.90269923     A.U. after   15 cycles

 Excitation energies and oscillator strengths:

 Excited State   1:      Singlet-A      2.3042 eV  538.08 nm  f=3.7386  <S**2>=0.000
     155 ->158        -0.14947
     156 ->157         0.69119
 This state for optimization and/or second-order correction.
 Total Energy, E(TD-HF/TD-DFT) =  -1706.81802124
 Copying the excited state density for this state as the 1-particle RhoCI density.

 The electronic state is 1-A.
 Alpha  occ. eigenvalues --  -19.21944 -19.21565 -10.29181 -10.29054 -10.28546
 Alpha  occ. eigenvalues --  -10.28208 -10.27985 -10.27635 -10.27561 -10.27487
 Alpha  occ. eigenvalues --  -10.27274 -10.27158 -10.27085 -10.26990 -10.26970
 Alpha  occ. eigenvalues --  -10.26904 -10.26662 -10.26546 -10.26508 -10.26469
 Alpha  occ. eigenvalues --  -10.26469 -10.26435 -10.26303 -10.26169 -10.26152
 Alpha  occ. eigenvalues --  -10.26072 -10.25719 -10.25690 -10.25623 -10.25573
 Alpha  occ. eigenvalues --  -10.25521 -10.25352 -10.25306 -10.25112 -10.25008
 Alpha  occ. eigenvalues --  -10.24963 -10.24793 -10.24751 -10.24622 -10.24492
 Alpha  occ. eigenvalues --  -10.24439 -10.23269  -1.10815  -1.07593  -0.93253
 Alpha  occ. eigenvalues --   -0.92563  -0.92547  -0.91161  -0.90650  -0.89422
 Alpha  occ. eigenvalues --   -0.87980  -0.87380  -0.86039  -0.84954  -0.84325
 Alpha  occ. eigenvalues --   -0.83066  -0.81757  -0.80153  -0.80063  -0.78802
 Alpha  occ. eigenvalues --   -0.77030  -0.76615  -0.76190  -0.75797  -0.75718
 Alpha  occ. eigenvalues --   -0.75506  -0.74990  -0.74522  -0.73176  -0.70571
 Alpha  occ. eigenvalues --   -0.69015  -0.66847  -0.65379  -0.65185  -0.64618
 Alpha  occ. eigenvalues --   -0.63138  -0.62855  -0.62356  -0.61075  -0.60495
 Alpha  occ. eigenvalues --   -0.60360  -0.58824  -0.58239  -0.57279  -0.55959
 Alpha  occ. eigenvalues --   -0.54985  -0.54779  -0.54206  -0.54074  -0.53331
 Alpha  occ. eigenvalues --   -0.53165  -0.53102  -0.52348  -0.51383  -0.51219
 Alpha  occ. eigenvalues --   -0.50846  -0.50414  -0.50050  -0.49916  -0.49694
 Alpha  occ. eigenvalues --   -0.49386  -0.48973  -0.48181  -0.48019  -0.47756
 Alpha  occ. eigenvalues --   -0.47430  -0.47249  -0.47222  -0.46803  -0.46459
 Alpha  occ. eigenvalues --   -0.45998  -0.45954  -0.45786  -0.45734  -0.45067
 Alpha  occ. eigenvalues --   -0.44754  -0.44312  -0.44263  -0.44043  -0.43482
 Alpha  occ. eigenvalues --   -0.43291  -0.43085  -0.42592  -0.42476  -0.41825
 Alpha  occ. eigenvalues --   -0.41758  -0.41653  -0.41457  -0.40951  -0.40761
 Alpha  occ. eigenvalues --   -0.40506  -0.39876  -0.39704  -0.39258  -0.39052
 Alpha  occ. eigenvalues --   -0.38843  -0.38624  -0.38347  -0.38021  -0.37906
 Alpha  occ. eigenvalues --   -0.37479  -0.37451  -0.35962  -0.35577  -0.35308
 Alpha  occ. eigenvalues --   -0.34848  -0.34655  -0.33592  -0.32469  -0.32141
 Alpha  occ. eigenvalues --   -0.30941  -0.30041  -0.28573  -0.26396  -0.23744
 Alpha  occ. eigenvalues --   -0.19436
 Alpha virt. eigenvalues --   -0.05462  -0.00644   0.02425   0.05972   0.07585
 Alpha virt. eigenvalues --    0.08892   0.09444   0.10179   0.11232   0.11380
 Alpha virt. eigenvalues --    0.11983   0.12298   0.13021   0.13538   0.13776

 Mulliken charges:
               1
     1  O   -0.549420
     2  O   -0.560544
     3  C   -0.031743
     4  C    0.002104
     5  C   -0.147976
     6  C   -0.202674
     7  C    0.152301
     8  C    0.181568
     9  C    0.049807
    10  C    0.003717
    11  C   -0.197063
    12  C   -0.230966
    13  C    0.038884
    14  C    0.088989
    15  C   -0.297073
    16  C   -0.286174
    17  C   -0.295384
    18  C   -0.261993
    19  C   -0.102109
    20  C   -0.162047
    21  C   -0.373022
    22  C   -0.397743
    23  C   -0.092384
    24  C   -0.038509
    25  C    0.069535
    26  C    0.062229
    27  C   -0.368293
    28  C   -0.349637
    29  C   -0.121654
    30  C   -0.134709
    31  C   -0.078592
    32  C   -0.106457
    33  C   -0.120191
    34  C   -0.092881
    35  C    0.119177
    36  C    0.075452
    37  C   -0.362942
    38  C   -0.368743
    39  C   -0.133006
    40  C   -0.137089
    41  C   -0.058288
    42  C   -0.087129
    43  H    0.098878
    44  H    0.053149
    45  H    0.045058
    46  H    0.114857
    47  H    0.085207
    48  H    0.089442
    49  H    0.109149
    50  H    0.110169
    51  H    0.107254
    52  H    0.113340
    53  H    0.089140
    54  H    0.103716
    55  H    0.086384
    56  H    0.081013
    57  H    0.105680
    58  H    0.100605
    59  H    0.083333
    60  H    0.100545
    61  H    0.108134
    62  H    0.040290
    63  H    0.114548
    64  H    0.114491
    65  H    0.085394
    66  H    0.068660
    67  H    0.120837
    68  H    0.114331
    69  H    0.094315
    70  H    0.116668
    71  H    0.123465
    72  H    0.128792
    73  H    0.302762
    74  H    0.289115
    75  H    0.081387
    76  H    0.073162
    77  H    0.117105
    78  H    0.101226
    79  H    0.136697
    80  H    0.132942
    81  H    0.111051
    82  H    0.110113
    83  H    0.067894
    84  H    0.086605
    85  H    0.072657
    86  H    0.083382
    87  H    0.102735
    88  H    0.089658
    89  H    0.129634
    90  H    0.112327
    91  H    0.105026
    92  H    0.101032
    93  H    0.136797
    94  H    0.127641
    95  H    0.072876
    96  H    0.081220
    97  H    0.082862
    98  H    0.087923
 Sum of Mulliken charges =  -0.00000

 Dipole moment (field-independent basis, Debye):
    X=              1.3723    Y=             -2.1268    Z=              0.5945  Tot=              2.6000
 Quadrupole moment (field-independent basis, Debye-Ang):
   XX=           -289.0985   YY=           -244.9974   ZZ=           -260.0089
   XY=              7.1679   XZ=             -3.6466   YZ=              1.5663

 Normal termination of Gaussian 16 at Thu Jul 11 06:07:22 2019.
