 Gaussian 16, Revision A.03,
 Gaussian 16:  ES64L-G16RevA.03 25-Dec-2016

 -------------------------------------
 # td=(NStates=1) CAM-B3LYP/6-31G(d,p)
 -------------------------------------

 --
 TD
 --
 Symbolic Z-matrix:
 Charge =  0 Multiplicity = 1

                         Standard orientation:
 ---------------------------------------------------------------------
 Center     Atomic      Atomic             Coordinates (Angstroms)
 Number     Number       Type             X           Y           Z
 ---------------------------------------------------------------------
      1          8           0       14.550573   -2.204614   -0.444622
      2          8           0      -14.817574    2.146630    0.731400
      3          6           0       11.363970   -1.049290    1.235040
      4          6           0      -12.314566   -0.941498    0.643966
      5          6           0       12.873572   -1.465547    1.050693
      6          6           0      -13.645019   -0.215081    0.723331
      7          6           0       13.281486   -1.929391   -0.350634
      8          6           0      -13.573265    1.320312    0.749163
      9          6           0       10.907475   -0.264890    0.002352
     10          6           0      -11.362417   -0.270450   -0.240418
     11          6           0       13.002001   -0.799823   -1.375792
     12          6           0      -12.869614    1.699000   -0.639958
     13          6           0       11.601593   -0.198589   -1.169229
     14          6           0      -11.558031    0.883827   -0.785809
     15          6           0       11.225520   -0.313943    2.504920
     16          6           0       10.548481   -2.331291    1.297024
     17          6           0      -11.678286   -0.937342    2.118835
     18          6           0      -12.565838   -2.412559    0.250906
     19          6           0        9.622183    0.336052    0.065220
     20          6           0      -10.042934   -1.043181   -0.469792
     21          6           0       11.144035    0.564201   -2.324825
     22          6           0      -10.605895    1.633155   -1.814282
     23          6           0        9.355548    1.626976   -0.149885
     24          6           0       -8.835025   -0.519241   -0.133259
     25          6           0        8.046005    2.301484    0.021480
     26          6           0       -7.515229   -1.256095   -0.334930
     27          6           0        8.250579    3.785252    0.463635
     28          6           0       -7.687540   -2.651336   -1.090467
     29          6           0        6.898834    1.609939   -0.145633
     30          6           0       -6.322137   -0.722467   -0.151299
     31          6           0        5.535359    2.058475    0.218994
     32          6           0       -5.027539   -1.230686   -0.273241
     33          6           0        4.507506    1.182084   -0.034712
     34          6           0       -3.924351   -0.412469   -0.098681
     35          6           0        3.107094    1.553230    0.186108
     36          6           0       -2.575417   -0.867671   -0.359982
     37          6           0        2.785758    3.018627    0.455973
     38          6           0       -2.321396   -2.257488   -0.774948
     39          6           0        2.140108    0.545817    0.036281
     40          6           0       -1.588771    0.040694   -0.060964
     41          6           0        0.727111    0.836782    0.159275
     42          6           0       -0.121177   -0.135643   -0.151814
     43          1           0       13.478719   -0.655342    1.182848
     44          1           0       12.924266   -2.207714    1.701610
     45          1           0      -14.249691   -0.519586    1.582048
     46          1           0      -14.209028   -0.572307   -0.184001
     47          1           0       12.537007   -2.706788   -0.640187
     48          1           0      -12.960203    1.560741    1.544761
     49          1           0       13.733618   -0.077568   -1.310417
     50          1           0       13.278784   -1.080305   -2.319462
     51          1           0      -13.532031    1.672231   -1.380652
     52          1           0      -12.818436    2.903162   -0.580045
     53          1           0       11.631622   -0.938198    3.263249
     54          1           0       10.190721   -0.130259    2.878737
     55          1           0       11.681745    0.772526    2.451868
     56          1           0       11.179735   -3.111010    0.488738
     57          1           0       10.646958   -2.705739    2.364465
     58          1           0        9.592488   -2.270452    0.978842
     59          1           0      -11.664138    0.044643    2.415779
     60          1           0      -10.835130   -1.537813    2.245974
     61          1           0      -12.355379   -1.369299    2.810795
     62          1           0      -13.293806   -2.598691    0.666498
     63          1           0      -11.638628   -2.914270    0.350947
     64          1           0      -13.020286   -2.464537   -0.990799
     65          1           0        8.917486   -0.257366    0.632125
     66          1           0      -10.160659   -2.020950   -0.876173
     67          1           0        9.965589    0.972869   -2.355473
     68          1           0       11.854402    1.318165   -2.755611
     69          1           0       11.196860   -0.043511   -3.129774
     70          1           0      -11.194599    1.997922   -2.593811
     71          1           0       -9.765768    1.079162   -2.221734
     72          1           0      -10.325524    2.665390   -1.374859
     73          1           0       14.844745   -2.683821    0.236479
     74          1           0      -15.191264    2.056295    1.470538
     75          1           0       10.148427    2.350231   -0.511485
     76          1           0       -8.608850    0.476931    0.124738
     77          1           0        8.700177    4.399655   -0.418926
     78          1           0        7.195075    4.191487    0.526135
     79          1           0        8.852909    3.969293    1.379613
     80          1           0       -8.313055   -3.388887   -0.366099
     81          1           0       -8.154150   -2.766780   -2.171492
     82          1           0       -6.703636   -3.025639   -1.413531
     83          1           0        6.989636    0.637125   -0.558786
     84          1           0       -6.449235    0.156381    0.484388
     85          1           0        5.217669    3.117456    0.402698
     86          1           0       -4.785917   -2.367910   -0.750977
     87          1           0        4.730851    0.150534   -0.371545
     88          1           0       -4.067165    0.593345    0.095650
     89          1           0        3.011282    3.172034    1.485694
     90          1           0        1.589554    3.013264    0.458070
     91          1           0        3.182231    3.741375   -0.311790
     92          1           0       -2.408803   -3.037524    0.068731
     93          1           0       -2.997841   -2.517712   -1.458870
     94          1           0       -1.330006   -2.226048   -1.257733
     95          1           0        2.447254   -0.331945   -0.083612
     96          1           0       -1.935113    0.980306    0.245777
     97          1           0        0.308938    1.607120    0.636499
     98          1           0        0.336966   -1.227419   -0.596534
 ---------------------------------------------------------------------

 SCF Done:  E(RCAM-B3LYP) =  -1706.90122909     A.U. after   14 cycles

 Excitation energies and oscillator strengths:

 Excited State   1:      Singlet-A      2.8880 eV  429.31 nm  f=3.5697  <S**2>=0.000
     155 ->158         0.17670
     156 ->157         0.67617
 This state for optimization and/or second-order correction.
 Total Energy, E(TD-HF/TD-DFT) =  -1706.79509829
 Copying the excited state density for this state as the 1-particle RhoCI density.

 The electronic state is 1-A.
 Alpha  occ. eigenvalues --  -19.21528 -19.20127 -10.30425 -10.29782 -10.27679
 Alpha  occ. eigenvalues --  -10.27585 -10.27367 -10.27306 -10.27113 -10.27011
 Alpha  occ. eigenvalues --  -10.26909 -10.26806 -10.26757 -10.26694 -10.26666
 Alpha  occ. eigenvalues --  -10.26580 -10.26309 -10.26234 -10.26109 -10.26093
 Alpha  occ. eigenvalues --  -10.26066 -10.26030 -10.26006 -10.25682 -10.25486
 Alpha  occ. eigenvalues --  -10.25420 -10.25389 -10.25294 -10.25090 -10.25024
 Alpha  occ. eigenvalues --  -10.24946 -10.24944 -10.24908 -10.24853 -10.24642
 Alpha  occ. eigenvalues --  -10.24596 -10.24525 -10.24369 -10.24236 -10.23211
 Alpha  occ. eigenvalues --  -10.23180 -10.22829  -1.15698  -1.10461  -0.94015
 Alpha  occ. eigenvalues --   -0.93823  -0.92202  -0.91181  -0.89953  -0.89365
 Alpha  occ. eigenvalues --   -0.87733  -0.87039  -0.86340  -0.85296  -0.84845
 Alpha  occ. eigenvalues --   -0.82668  -0.81835  -0.80026  -0.79324  -0.78539
 Alpha  occ. eigenvalues --   -0.77874  -0.76827  -0.76529  -0.76118  -0.75934
 Alpha  occ. eigenvalues --   -0.75456  -0.75024  -0.74808  -0.74093  -0.70379
 Alpha  occ. eigenvalues --   -0.69617  -0.67820  -0.66755  -0.65887  -0.64996
 Alpha  occ. eigenvalues --   -0.64085  -0.63498  -0.62271  -0.60531  -0.60072
 Alpha  occ. eigenvalues --   -0.59752  -0.59103  -0.58873  -0.58133  -0.57279
 Alpha  occ. eigenvalues --   -0.55944  -0.55559  -0.55470  -0.54079  -0.53926
 Alpha  occ. eigenvalues --   -0.53146  -0.52904  -0.52094  -0.51649  -0.51243
 Alpha  occ. eigenvalues --   -0.50748  -0.50185  -0.50112  -0.49725  -0.49596
 Alpha  occ. eigenvalues --   -0.49312  -0.49081  -0.48730  -0.48015  -0.47720
 Alpha  occ. eigenvalues --   -0.47395  -0.47311  -0.46829  -0.46620  -0.46284
 Alpha  occ. eigenvalues --   -0.46124  -0.45975  -0.45546  -0.45464  -0.45366
 Alpha  occ. eigenvalues --   -0.45189  -0.44501  -0.44139  -0.43925  -0.43450
 Alpha  occ. eigenvalues --   -0.43249  -0.42876  -0.42817  -0.42628  -0.42017
 Alpha  occ. eigenvalues --   -0.41752  -0.41671  -0.41520  -0.41298  -0.40575
 Alpha  occ. eigenvalues --   -0.40236  -0.39992  -0.39875  -0.39354  -0.39326
 Alpha  occ. eigenvalues --   -0.38911  -0.38489  -0.38349  -0.38111  -0.37896
 Alpha  occ. eigenvalues --   -0.37528  -0.37285  -0.36344  -0.36322  -0.35805
 Alpha  occ. eigenvalues --   -0.34717  -0.34403  -0.33400  -0.32703  -0.31890
 Alpha  occ. eigenvalues --   -0.31476  -0.29749  -0.28264  -0.26423  -0.23973
 Alpha  occ. eigenvalues --   -0.20972
 Alpha virt. eigenvalues --   -0.03708   0.00185   0.03698   0.06441   0.08907
 Alpha virt. eigenvalues --    0.10097   0.11179   0.11671   0.12317   0.12392
 Alpha virt. eigenvalues --    0.12585   0.13209   0.13718   0.14360   0.14386

 Mulliken charges:
               1
     1  O   -0.497327
     2  O   -0.537781
     3  C   -0.021468
     4  C   -0.053650
     5  C   -0.189680
     6  C   -0.210262
     7  C    0.172683
     8  C    0.137931
     9  C    0.048604
    10  C    0.099701
    11  C   -0.231637
    12  C   -0.223326
    13  C    0.081201
    14  C    0.036098
    15  C   -0.295459
    16  C   -0.282798
    17  C   -0.308757
    18  C   -0.231351
    19  C   -0.126970
    20  C   -0.158362
    21  C   -0.379979
    22  C   -0.356280
    23  C   -0.101387
    24  C   -0.063479
    25  C    0.070162
    26  C    0.088561
    27  C   -0.363014
    28  C   -0.359881
    29  C   -0.120988
    30  C   -0.131173
    31  C   -0.101372
    32  C   -0.097631
    33  C   -0.100496
    34  C   -0.090501
    35  C    0.073506
    36  C    0.105927
    37  C   -0.375137
    38  C   -0.361804
    39  C   -0.081594
    40  C   -0.139829
    41  C   -0.063495
    42  C   -0.088918
    43  H    0.104839
    44  H    0.080686
    45  H    0.079944
    46  H    0.096569
    47  H    0.056182
    48  H    0.096060
    49  H    0.115246
    50  H    0.105886
    51  H    0.133946
    52  H    0.081486
    53  H    0.100111
    54  H    0.101593
    55  H    0.093722
    56  H    0.062872
    57  H    0.089053
    58  H    0.119640
    59  H    0.108860
    60  H    0.115213
    61  H    0.094488
    62  H    0.099586
    63  H    0.110173
    64  H    0.042616
    65  H    0.082653
    66  H    0.108193
    67  H    0.100891
    68  H    0.102839
    69  H    0.117730
    70  H    0.116909
    71  H    0.117361
    72  H    0.097375
    73  H    0.290368
    74  H    0.278647
    75  H    0.089246
    76  H    0.089255
    77  H    0.109531
    78  H    0.102100
    79  H    0.128077
    80  H    0.094933
    81  H    0.101839
    82  H    0.100150
    83  H    0.088361
    84  H    0.081278
    85  H    0.092995
    86  H    0.076151
    87  H    0.081251
    88  H    0.084548
    89  H    0.139828
    90  H    0.089209
    91  H    0.128520
    92  H    0.120617
    93  H    0.124969
    94  H    0.108425
    95  H    0.060533
    96  H    0.076994
    97  H    0.092678
    98  H    0.068191
 Sum of Mulliken charges =  -0.00000

 Dipole moment (field-independent basis, Debye):
    X=              1.4451    Y=             -1.0753    Z=              2.2448  Tot=              2.8782
 Quadrupole moment (field-independent basis, Debye-Ang):
   XX=           -262.1569   YY=           -248.8750   ZZ=           -256.5227
   XY=              8.6868   XZ=             -4.0942   YZ=              1.3570

 Normal termination of Gaussian 16 at Wed Jul  3 12:40:13 2019.
