 Gaussian 16, Revision A.03,
 Gaussian 16:  ES64L-G16RevA.03 25-Dec-2016

 -------------------------------------
 # td=(NStates=1) CAM-B3LYP/6-31G(d,p)
 -------------------------------------

 --
 TD
 --
 Symbolic Z-matrix:
 Charge =  0 Multiplicity = 1

                         Standard orientation:
 ---------------------------------------------------------------------
 Center     Atomic      Atomic             Coordinates (Angstroms)
 Number     Number       Type             X           Y           Z
 ---------------------------------------------------------------------
      1          8           0      -14.612966   -2.282393    0.453737
      2          8           0       14.529114    2.265122   -0.383026
      3          6           0      -11.467567   -0.968104   -1.193077
      4          6           0       12.348684   -0.772947   -0.857598
      5          6           0      -12.943609   -1.274221   -1.018081
      6          6           0       13.647366    0.144134   -0.733963
      7          6           0      -13.326570   -2.004447    0.315612
      8          6           0       13.385177    1.567552   -0.483398
      9          6           0      -10.891533   -0.342214    0.131123
     10          6           0       11.274007   -0.377964    0.263906
     11          6           0      -12.906352   -1.144525    1.446146
     12          6           0       12.627430    1.616738    0.845020
     13          6           0      -11.629881   -0.331002    1.264527
     14          6           0       11.507934    0.677560    1.111127
     15          6           0      -11.318355    0.099683   -2.277551
     16          6           0      -10.603538   -2.277457   -1.571047
     17          6           0       11.705802   -0.513992   -2.161544
     18          6           0       12.728157   -2.265471   -0.632333
     19          6           0       -9.575007    0.338675   -0.055410
     20          6           0       10.111128   -1.253058    0.317167
     21          6           0      -11.143411    0.235514    2.554525
     22          6           0       10.464161    1.322508    2.044461
     23          6           0       -9.242933    1.634116    0.076502
     24          6           0        8.851495   -0.797511    0.358481
     25          6           0       -7.910127    2.314638   -0.101009
     26          6           0        7.595528   -1.480760    0.373215
     27          6           0       -8.031245    3.824107   -0.714943
     28          6           0        7.675226   -2.950302    0.652491
     29          6           0       -6.822158    1.572989   -0.060587
     30          6           0        6.419220   -0.847247    0.204520
     31          6           0       -5.535331    2.155594   -0.089735
     32          6           0        5.088772   -1.395036    0.277316
     33          6           0       -4.398517    1.352868   -0.063676
     34          6           0        3.930329   -0.585878    0.028540
     35          6           0       -3.009986    1.774842   -0.047778
     36          6           0        2.531284   -0.922585    0.130620
     37          6           0       -2.768614    3.253142   -0.190946
     38          6           0        2.264204   -2.440464    0.488696
     39          6           0       -2.081393    0.771948    0.005129
     40          6           0        1.679789   -0.021487   -0.099039
     41          6           0       -0.669352    0.927500   -0.105801
     42          6           0        0.242695   -0.039686    0.123965
     43          1           0      -13.413944   -0.164029   -0.797063
     44          1           0      -13.287611   -1.880738   -1.918626
     45          1           0       14.154872   -0.020092   -1.634254
     46          1           0       14.379807   -0.441391   -0.156892
     47          1           0      -12.574078   -2.698812    0.520697
     48          1           0       12.655075    1.998856   -1.177635
     49          1           0      -13.572352   -0.380393    1.658453
     50          1           0      -12.912626   -1.760954    2.507554
     51          1           0       13.369749    1.591028    1.600326
     52          1           0       12.353260    2.772461    1.051130
     53          1           0      -11.982482   -0.437232   -3.247033
     54          1           0      -10.328471    0.113466   -2.454774
     55          1           0      -11.827474    1.013012   -1.957363
     56          1           0      -10.870738   -3.038699   -0.825329
     57          1           0      -10.994991   -2.605070   -2.504463
     58          1           0       -9.523947   -2.099081   -1.832609
     59          1           0       11.502365    0.566724   -2.179196
     60          1           0       10.659866   -1.067561   -2.386623
     61          1           0       12.488551   -0.832480   -3.029105
     62          1           0       13.523763   -2.784212   -1.274701
     63          1           0       11.877693   -3.032999   -0.897878
     64          1           0       13.259135   -2.507098    0.323188
     65          1           0       -8.888421   -0.393041   -0.461298
     66          1           0       10.273319   -2.204982    0.435482
     67          1           0      -10.071769    0.448804    2.715829
     68          1           0      -11.713779    1.287834    2.812163
     69          1           0      -11.437175   -0.309160    3.578503
     70          1           0       10.655043    1.624780    3.211733
     71          1           0        9.763702    0.456135    2.255232
     72          1           0       10.002737    2.070951    1.776450
     73          1           0      -15.132866   -2.805166   -0.302314
     74          1           0       14.990668    2.215008   -1.383677
     75          1           0      -10.020796    2.064888    0.583944
     76          1           0        8.657355    0.321969    0.302852
     77          1           0       -8.845684    4.322745   -0.146994
     78          1           0       -7.160494    4.557950   -0.619934
     79          1           0       -8.474671    3.809989   -1.768300
     80          1           0        8.414492   -3.465450   -0.043938
     81          1           0        8.133230   -3.191099    1.765575
     82          1           0        6.683478   -3.559178    0.437978
     83          1           0       -6.914863    0.716245    0.275972
     84          1           0        6.374046    0.347277    0.075179
     85          1           0       -5.145917    3.033574   -0.281327
     86          1           0        5.036520   -2.396315    0.712658
     87          1           0       -4.505604    0.302935    0.193161
     88          1           0        4.019840    0.353856   -0.515931
     89          1           0       -2.795320    3.959983   -1.251283
     90          1           0       -1.526734    3.475951   -0.037386
     91          1           0       -3.071074    3.811265    0.683545
     92          1           0        2.824551   -3.035902   -0.056460
     93          1           0        2.458237   -2.562893    1.616463
     94          1           0        1.169126   -2.772311    0.208316
     95          1           0       -2.531506   -0.046254    0.328354
     96          1           0        2.247696    0.983247   -0.401587
     97          1           0       -0.323672    1.976322   -0.396578
     98          1           0       -0.225756   -1.033012    0.410694
 ---------------------------------------------------------------------

 SCF Done:  E(RCAM-B3LYP) =  -1706.86814586     A.U. after   14 cycles

 Excitation energies and oscillator strengths:

 Excited State   1:      Singlet-A      2.8246 eV  438.94 nm  f=3.6775  <S**2>=0.000
     155 ->158        -0.18465
     156 ->157         0.67712
 This state for optimization and/or second-order correction.
 Total Energy, E(TD-HF/TD-DFT) =  -1706.76434294
 Copying the excited state density for this state as the 1-particle RhoCI density.

 The electronic state is 1-A.
 Alpha  occ. eigenvalues --  -19.22636 -19.22445 -10.29587 -10.29286 -10.28625
 Alpha  occ. eigenvalues --  -10.28057 -10.27905 -10.27791 -10.27727 -10.27352
 Alpha  occ. eigenvalues --  -10.27328 -10.27245 -10.27199 -10.27128 -10.27106
 Alpha  occ. eigenvalues --  -10.26885 -10.26869 -10.26842 -10.26688 -10.26643
 Alpha  occ. eigenvalues --  -10.26610 -10.26407 -10.26355 -10.26300 -10.26172
 Alpha  occ. eigenvalues --  -10.26159 -10.26113 -10.25917 -10.25862 -10.25816
 Alpha  occ. eigenvalues --  -10.25610 -10.25418 -10.25309 -10.25135 -10.24997
 Alpha  occ. eigenvalues --  -10.24892 -10.24863 -10.24499 -10.24490 -10.24078
 Alpha  occ. eigenvalues --  -10.24076 -10.23999  -1.11374  -1.10854  -0.93119
 Alpha  occ. eigenvalues --   -0.93020  -0.92539  -0.91944  -0.90774  -0.90206
 Alpha  occ. eigenvalues --   -0.86910  -0.86594  -0.86374  -0.85595  -0.84772
 Alpha  occ. eigenvalues --   -0.82633  -0.81659  -0.79767  -0.79247  -0.78003
 Alpha  occ. eigenvalues --   -0.76512  -0.76126  -0.76089  -0.75941  -0.75557
 Alpha  occ. eigenvalues --   -0.75012  -0.74744  -0.74389  -0.74143  -0.71148
 Alpha  occ. eigenvalues --   -0.69235  -0.68104  -0.66363  -0.65311  -0.64134
 Alpha  occ. eigenvalues --   -0.63007  -0.62757  -0.61653  -0.61361  -0.60179
 Alpha  occ. eigenvalues --   -0.60050  -0.59092  -0.58982  -0.57684  -0.56418
 Alpha  occ. eigenvalues --   -0.55884  -0.55445  -0.55231  -0.54640  -0.53497
 Alpha  occ. eigenvalues --   -0.53296  -0.52762  -0.52514  -0.52313  -0.51173
 Alpha  occ. eigenvalues --   -0.50624  -0.50419  -0.50046  -0.49073  -0.48992
 Alpha  occ. eigenvalues --   -0.48945  -0.48792  -0.48222  -0.47991  -0.47385
 Alpha  occ. eigenvalues --   -0.47254  -0.47034  -0.46861  -0.46713  -0.46254
 Alpha  occ. eigenvalues --   -0.45604  -0.45213  -0.44840  -0.44681  -0.44463
 Alpha  occ. eigenvalues --   -0.43747  -0.43614  -0.43246  -0.42956  -0.42938
 Alpha  occ. eigenvalues --   -0.42579  -0.42142  -0.42019  -0.41979  -0.41746
 Alpha  occ. eigenvalues --   -0.41628  -0.41290  -0.40899  -0.40693  -0.40447
 Alpha  occ. eigenvalues --   -0.40357  -0.39956  -0.39868  -0.39480  -0.39229
 Alpha  occ. eigenvalues --   -0.38910  -0.38463  -0.37985  -0.37778  -0.37525
 Alpha  occ. eigenvalues --   -0.37386  -0.37114  -0.36113  -0.35881  -0.35751
 Alpha  occ. eigenvalues --   -0.34897  -0.34346  -0.33215  -0.32325  -0.32107
 Alpha  occ. eigenvalues --   -0.31489  -0.29997  -0.28132  -0.26998  -0.24120
 Alpha  occ. eigenvalues --   -0.21283
 Alpha virt. eigenvalues --   -0.04364  -0.00519   0.03258   0.05872   0.07605
 Alpha virt. eigenvalues --    0.09134   0.09321   0.10210   0.10574   0.11678
 Alpha virt. eigenvalues --    0.11969   0.12399   0.12842   0.12899   0.13340

 Mulliken charges:
               1
     1  O   -0.559174
     2  O   -0.549871
     3  C   -0.027639
     4  C    0.003896
     5  C   -0.200673
     6  C   -0.196110
     7  C    0.230112
     8  C    0.198536
     9  C    0.029131
    10  C    0.029745
    11  C   -0.235278
    12  C   -0.242621
    13  C    0.076627
    14  C    0.070824
    15  C   -0.247817
    16  C   -0.318434
    17  C   -0.275558
    18  C   -0.329937
    19  C   -0.134281
    20  C   -0.112470
    21  C   -0.369060
    22  C   -0.352490
    23  C   -0.093321
    24  C   -0.093688
    25  C    0.058722
    26  C    0.143620
    27  C   -0.363595
    28  C   -0.375694
    29  C   -0.050207
    30  C   -0.130938
    31  C   -0.050787
    32  C   -0.102741
    33  C   -0.142445
    34  C   -0.140985
    35  C    0.122139
    36  C    0.168012
    37  C   -0.387659
    38  C   -0.356350
    39  C   -0.097100
    40  C   -0.150938
    41  C   -0.068913
    42  C   -0.107432
    43  H    0.079141
    44  H    0.072470
    45  H    0.075214
    46  H    0.101524
    47  H    0.076464
    48  H    0.076695
    49  H    0.118888
    50  H    0.085787
    51  H    0.123396
    52  H    0.077638
    53  H    0.045803
    54  H    0.115441
    55  H    0.110573
    56  H    0.112416
    57  H    0.102979
    58  H    0.105372
    59  H    0.107050
    60  H    0.094602
    61  H    0.076158
    62  H    0.087025
    63  H    0.092999
    64  H    0.111051
    65  H    0.080608
    66  H    0.086116
    67  H    0.124605
    68  H    0.084446
    69  H    0.094797
    70  H    0.073593
    71  H    0.108161
    72  H    0.132964
    73  H    0.319248
    74  H    0.308855
    75  H    0.083524
    76  H    0.080661
    77  H    0.112354
    78  H    0.113145
    79  H    0.125456
    80  H    0.113933
    81  H    0.104822
    82  H    0.095985
    83  H    0.070509
    84  H    0.076941
    85  H    0.070771
    86  H    0.092677
    87  H    0.063271
    88  H    0.085976
    89  H    0.110001
    90  H    0.068607
    91  H    0.144109
    92  H    0.134726
    93  H    0.118510
    94  H    0.093577
    95  H    0.074409
    96  H    0.070666
    97  H    0.083048
    98  H    0.083087
 Sum of Mulliken charges =  -0.00000

 Dipole moment (field-independent basis, Debye):
    X=             -0.7714    Y=             -1.3218    Z=             -2.1043  Tot=              2.6020
 Quadrupole moment (field-independent basis, Debye-Ang):
   XX=           -253.3899   YY=           -243.9385   ZZ=           -262.9915
   XY=             -3.0572   XZ=             -8.1786   YZ=             -0.6767

 Normal termination of Gaussian 16 at Thu Jul  4 23:53:06 2019.
