 Gaussian 16, Revision A.03,
 Gaussian 16:  ES64L-G16RevA.03 25-Dec-2016

 -------------------------------------
 # td=(NStates=1) CAM-B3LYP/6-31G(d,p)
 -------------------------------------

 --
 TD
 --
 Symbolic Z-matrix:
 Charge =  0 Multiplicity = 1

                         Standard orientation:
 ---------------------------------------------------------------------
 Center     Atomic      Atomic             Coordinates (Angstroms)
 Number     Number       Type             X           Y           Z
 ---------------------------------------------------------------------
      1          8           0       14.895771   -1.988994   -0.378130
      2          8           0      -14.851910    1.991860    0.804930
      3          6           0       11.440434   -1.181374    1.151720
      4          6           0      -12.325329   -0.980977    0.704361
      5          6           0       12.970247   -1.507427    1.072472
      6          6           0      -13.572009   -0.221458    0.752956
      7          6           0       13.489355   -1.837486   -0.335096
      8          6           0      -13.547475    1.379594    0.765913
      9          6           0       11.054419   -0.269500   -0.004044
     10          6           0      -11.389275   -0.241269   -0.152185
     11          6           0       13.136986   -0.641491   -1.263183
     12          6           0      -12.804343    1.858314   -0.485906
     13          6           0       11.744555   -0.016349   -1.079882
     14          6           0      -11.615034    0.951554   -0.832582
     15          6           0       11.149643   -0.544250    2.545053
     16          6           0       10.681929   -2.512220    0.927749
     17          6           0      -11.934208   -1.088577    2.196106
     18          6           0      -12.756688   -2.369132    0.288210
     19          6           0        9.681312    0.240514    0.079510
     20          6           0      -10.107014   -1.038371   -0.390062
     21          6           0       11.341817    0.726736   -2.273510
     22          6           0      -10.727570    1.552287   -1.792726
     23          6           0        9.374462    1.485712   -0.127077
     24          6           0       -8.869599   -0.522762   -0.373816
     25          6           0        8.117970    2.232555    0.149306
     26          6           0       -7.616909   -1.272876   -0.628977
     27          6           0        8.093829    3.695442    0.570278
     28          6           0       -7.568740   -2.739175   -0.930143
     29          6           0        6.953618    1.501670    0.038517
     30          6           0       -6.423171   -0.584353   -0.341382
     31          6           0        5.606406    1.897502    0.241595
     32          6           0       -5.122464   -1.069003   -0.438575
     33          6           0        4.437049    1.153959    0.022936
     34          6           0       -4.060152   -0.239217   -0.380067
     35          6           0        3.082782    1.596489    0.262909
     36          6           0       -2.690779   -0.800048   -0.465570
     37          6           0        2.722104    2.985473    0.645737
     38          6           0       -2.399709   -2.168556   -0.835578
     39          6           0        2.159874    0.688028   -0.096885
     40          6           0       -1.662774    0.063543   -0.187136
     41          6           0        0.665196    0.953798   -0.063008
     42          6           0       -0.270876   -0.131201   -0.239464
     43          1           0       13.646216   -0.519183    1.370399
     44          1           0       13.161533   -2.181295    1.948823
     45          1           0      -14.241191   -0.585330    1.476429
     46          1           0      -14.271273   -0.462315   -0.076060
     47          1           0       12.951538   -2.806413   -0.666747
     48          1           0      -13.033643    1.626403    1.748015
     49          1           0       13.760450    0.131200   -1.121008
     50          1           0       13.483821   -1.022038   -2.404044
     51          1           0      -13.345598    1.940362   -1.228864
     52          1           0      -12.353582    2.839550   -0.298280
     53          1           0       11.768523   -1.301166    3.144529
     54          1           0       10.101129   -0.479346    2.783637
     55          1           0       11.451610    0.492843    2.749167
     56          1           0       10.857826   -2.932175    0.045974
     57          1           0       10.842068   -3.276449    1.796384
     58          1           0        9.635681   -2.334768    0.949622
     59          1           0      -11.806006   -0.115472    2.816169
     60          1           0      -10.896376   -1.654795    2.303569
     61          1           0      -12.499401   -1.781366    2.901229
     62          1           0      -13.698830   -2.844782    0.705468
     63          1           0      -11.903592   -3.178474    0.486267
     64          1           0      -13.172918   -2.453038   -0.655870
     65          1           0        8.949768   -0.311550    0.425314
     66          1           0      -10.195719   -2.103900   -0.501084
     67          1           0       10.343840    1.151771   -2.123710
     68          1           0       12.012484    1.593306   -2.377726
     69          1           0       11.446774    0.127611   -3.246148
     70          1           0      -11.728192    1.935660   -2.377629
     71          1           0       -9.955227    1.011749   -2.451699
     72          1           0      -10.245078    2.311677   -1.332813
     73          1           0       14.959489   -2.673416    0.236220
     74          1           0      -15.340008    1.509069    1.591000
     75          1           0       10.161843    2.058943   -0.518988
     76          1           0       -8.743183    0.520083   -0.234311
     77          1           0        8.497514    4.479383   -0.222456
     78          1           0        7.121605    3.878314    1.076561
     79          1           0        8.966915    3.844749    1.420356
     80          1           0       -7.946357   -3.442008   -0.236611
     81          1           0       -8.432559   -2.882746   -1.812982
     82          1           0       -6.567304   -2.961031   -1.092880
     83          1           0        7.305844    0.506151   -0.227357
     84          1           0       -6.769564    0.393373   -0.015703
     85          1           0        5.434481    3.001251    0.386965
     86          1           0       -4.950014   -1.939000   -0.954217
     87          1           0        4.769088    0.203609   -0.429655
     88          1           0       -4.301091    0.903583   -0.187187
     89          1           0        3.100832    3.405976    1.579362
     90          1           0        1.678497    3.154359    0.892159
     91          1           0        2.926257    3.644955   -0.110628
     92          1           0       -2.720949   -2.951313    0.001417
     93          1           0       -2.965593   -2.533580   -1.640628
     94          1           0       -1.275690   -2.417746   -1.044376
     95          1           0        2.489324   -0.221188   -0.260611
     96          1           0       -1.958621    1.101890   -0.075447
     97          1           0        0.253416    1.886508    0.005947
     98          1           0        0.249084   -1.227959   -0.520508
 ---------------------------------------------------------------------

 SCF Done:  E(RCAM-B3LYP) =  -1706.96630677     A.U. after   14 cycles

 Excitation energies and oscillator strengths:

 Excited State   1:      Singlet-A      2.5729 eV  481.88 nm  f=3.6460  <S**2>=0.000
     155 ->158         0.16855
     156 ->157         0.68357
 This state for optimization and/or second-order correction.
 Total Energy, E(TD-HF/TD-DFT) =  -1706.87175438
 Copying the excited state density for this state as the 1-particle RhoCI density.

 The electronic state is 1-A.
 Alpha  occ. eigenvalues --  -19.22040 -19.21368 -10.31429 -10.31216 -10.28324
 Alpha  occ. eigenvalues --  -10.28066 -10.27865 -10.27592 -10.27455 -10.27427
 Alpha  occ. eigenvalues --  -10.27369 -10.27237 -10.27179 -10.27138 -10.27122
 Alpha  occ. eigenvalues --  -10.26617 -10.26612 -10.26584 -10.26427 -10.26119
 Alpha  occ. eigenvalues --  -10.26064 -10.25870 -10.25837 -10.25699 -10.25554
 Alpha  occ. eigenvalues --  -10.25544 -10.25514 -10.25436 -10.25426 -10.25422
 Alpha  occ. eigenvalues --  -10.25360 -10.25283 -10.25276 -10.25163 -10.24948
 Alpha  occ. eigenvalues --  -10.24808 -10.24705 -10.24686 -10.24453 -10.24411
 Alpha  occ. eigenvalues --  -10.23984 -10.23917  -1.11446  -1.07714  -0.94344
 Alpha  occ. eigenvalues --   -0.94229  -0.92265  -0.91604  -0.90352  -0.90005
 Alpha  occ. eigenvalues --   -0.89152  -0.87427  -0.86592  -0.85640  -0.84204
 Alpha  occ. eigenvalues --   -0.82707  -0.81835  -0.80333  -0.80156  -0.78857
 Alpha  occ. eigenvalues --   -0.77200  -0.76915  -0.76459  -0.76342  -0.76305
 Alpha  occ. eigenvalues --   -0.75613  -0.75186  -0.74804  -0.73792  -0.70384
 Alpha  occ. eigenvalues --   -0.68618  -0.67293  -0.66038  -0.65760  -0.65203
 Alpha  occ. eigenvalues --   -0.64150  -0.63387  -0.61801  -0.61302  -0.60169
 Alpha  occ. eigenvalues --   -0.59131  -0.58663  -0.58065  -0.57701  -0.56361
 Alpha  occ. eigenvalues --   -0.56230  -0.55551  -0.55123  -0.54601  -0.54208
 Alpha  occ. eigenvalues --   -0.53406  -0.53042  -0.52289  -0.51978  -0.51355
 Alpha  occ. eigenvalues --   -0.51161  -0.50890  -0.50516  -0.50063  -0.49932
 Alpha  occ. eigenvalues --   -0.49484  -0.49005  -0.48601  -0.48542  -0.47954
 Alpha  occ. eigenvalues --   -0.47479  -0.47136  -0.46762  -0.46485  -0.46229
 Alpha  occ. eigenvalues --   -0.46077  -0.45895  -0.45764  -0.45307  -0.45161
 Alpha  occ. eigenvalues --   -0.44483  -0.44226  -0.43932  -0.43912  -0.43543
 Alpha  occ. eigenvalues --   -0.43103  -0.42878  -0.42659  -0.42461  -0.42384
 Alpha  occ. eigenvalues --   -0.41951  -0.41793  -0.41641  -0.41251  -0.40941
 Alpha  occ. eigenvalues --   -0.40333  -0.40183  -0.40121  -0.39758  -0.39301
 Alpha  occ. eigenvalues --   -0.38820  -0.38632  -0.38463  -0.38341  -0.37840
 Alpha  occ. eigenvalues --   -0.37598  -0.37236  -0.36948  -0.36646  -0.35800
 Alpha  occ. eigenvalues --   -0.35692  -0.34779  -0.34209  -0.32707  -0.32397
 Alpha  occ. eigenvalues --   -0.31430  -0.29460  -0.28223  -0.26444  -0.23436
 Alpha  occ. eigenvalues --   -0.20205
 Alpha virt. eigenvalues --   -0.04570  -0.00329   0.03192   0.06261   0.07496
 Alpha virt. eigenvalues --    0.10126   0.10950   0.11277   0.11931   0.12210
 Alpha virt. eigenvalues --    0.12502   0.13008   0.13485   0.13722   0.13895

 Mulliken charges:
               1
     1  O   -0.526273
     2  O   -0.566290
     3  C   -0.026941
     4  C    0.022889
     5  C   -0.203302
     6  C   -0.218418
     7  C    0.148074
     8  C    0.163842
     9  C    0.067394
    10  C    0.050989
    11  C   -0.212723
    12  C   -0.196465
    13  C    0.054985
    14  C    0.028101
    15  C   -0.294035
    16  C   -0.298370
    17  C   -0.302217
    18  C   -0.310634
    19  C   -0.084242
    20  C   -0.140183
    21  C   -0.363495
    22  C   -0.336479
    23  C   -0.126227
    24  C   -0.085249
    25  C    0.084538
    26  C    0.083034
    27  C   -0.361120
    28  C   -0.353615
    29  C   -0.100103
    30  C   -0.109617
    31  C   -0.116343
    32  C   -0.088763
    33  C   -0.126769
    34  C   -0.113663
    35  C    0.124798
    36  C    0.130853
    37  C   -0.388431
    38  C   -0.387253
    39  C   -0.098538
    40  C   -0.128195
    41  C   -0.102624
    42  C   -0.081704
    43  H    0.076749
    44  H    0.078361
    45  H    0.077595
    46  H    0.082186
    47  H    0.070093
    48  H    0.073666
    49  H    0.133451
    50  H    0.078306
    51  H    0.129627
    52  H    0.116426
    53  H    0.088820
    54  H    0.108308
    55  H    0.113617
    56  H    0.122168
    57  H    0.083167
    58  H    0.109626
    59  H    0.094592
    60  H    0.080755
    61  H    0.102738
    62  H    0.097507
    63  H    0.083574
    64  H    0.115880
    65  H    0.070437
    66  H    0.080881
    67  H    0.114567
    68  H    0.111188
    69  H    0.109004
    70  H    0.083886
    71  H    0.124811
    72  H    0.135083
    73  H    0.301389
    74  H    0.309847
    75  H    0.081349
    76  H    0.075690
    77  H    0.113488
    78  H    0.125666
    79  H    0.089856
    80  H    0.132124
    81  H    0.083396
    82  H    0.109761
    83  H    0.072496
    84  H    0.072321
    85  H    0.076006
    86  H    0.089391
    87  H    0.088162
    88  H    0.090596
    89  H    0.118879
    90  H    0.112677
    91  H    0.137746
    92  H    0.105327
    93  H    0.130334
    94  H    0.109066
    95  H    0.075983
    96  H    0.079976
    97  H    0.088312
    98  H    0.071877
 Sum of Mulliken charges =  -0.00000

 Dipole moment (field-independent basis, Debye):
    X=             -1.0863    Y=             -1.3551    Z=              1.2724  Tot=              2.1530
 Quadrupole moment (field-independent basis, Debye-Ang):
   XX=           -283.0811   YY=           -243.2895   ZZ=           -262.5227
   XY=             11.2266   XZ=              0.7610   YZ=              0.3360

 Normal termination of Gaussian 16 at Wed Jul 10 15:30:28 2019.
