 Gaussian 16, Revision A.03,
 Gaussian 16:  ES64L-G16RevA.03 25-Dec-2016

 -------------------------------------
 # td=(NStates=1) CAM-B3LYP/6-31G(d,p)
 -------------------------------------

 --
 TD
 --
 Symbolic Z-matrix:
 Charge =  0 Multiplicity = 1

                         Standard orientation:
 ---------------------------------------------------------------------
 Center     Atomic      Atomic             Coordinates (Angstroms)
 Number     Number       Type             X           Y           Z
 ---------------------------------------------------------------------
      1          8           0       14.737776   -2.079407   -0.242044
      2          8           0      -14.622596    2.284117    0.863958
      3          6           0       11.450767   -0.984002    1.322261
      4          6           0      -12.338408   -0.838459    0.865678
      5          6           0       12.921827   -1.265928    1.159037
      6          6           0      -13.726282    0.030406    0.826565
      7          6           0       13.367060   -1.861629   -0.212171
      8          6           0      -13.441908    1.536923    0.825665
      9          6           0       10.932942   -0.224027    0.112119
     10          6           0      -11.298957   -0.245024   -0.155123
     11          6           0       12.970896   -0.956411   -1.286575
     12          6           0      -12.653351    1.919267   -0.507091
     13          6           0       11.619543   -0.293739   -1.050342
     14          6           0      -11.484058    0.974556   -0.700058
     15          6           0       11.094411   -0.191807    2.617897
     16          6           0       10.679227   -2.330526    1.384742
     17          6           0      -11.829097   -0.885638    2.282370
     18          6           0      -12.760073   -2.254876    0.426195
     19          6           0        9.674850    0.470142    0.148883
     20          6           0      -10.132884   -1.062491   -0.462251
     21          6           0       11.212627    0.376649   -2.357213
     22          6           0      -10.571381    1.353975   -1.919695
     23          6           0        9.364002    1.658146   -0.164436
     24          6           0       -8.884382   -0.639966   -0.351305
     25          6           0        8.055279    2.356393    0.080492
     26          6           0       -7.638717   -1.410016   -0.480300
     27          6           0        8.047959    3.780426    0.501246
     28          6           0       -7.674183   -2.899060   -0.733314
     29          6           0        6.886642    1.661679   -0.182700
     30          6           0       -6.438273   -0.757319   -0.365985
     31          6           0        5.548335    1.948874   -0.012458
     32          6           0       -4.991111   -1.220379   -0.559955
     33          6           0        4.450440    1.199074   -0.193747
     34          6           0       -3.932327   -0.428879   -0.319174
     35          6           0        3.016108    1.528797   -0.041059
     36          6           0       -2.558030   -0.918283   -0.498273
     37          6           0        2.661908    2.971921    0.384635
     38          6           0       -2.368629   -2.376456   -0.943542
     39          6           0        2.033547    0.587225   -0.234708
     40          6           0       -1.603864   -0.052608   -0.261206
     41          6           0        0.676399    0.769169   -0.250271
     42          6           0       -0.200242   -0.289487   -0.356708
     43          1           0       13.487621   -0.215999    1.143473
     44          1           0       13.295405   -1.884325    2.020664
     45          1           0      -14.273473   -0.288626    1.664242
     46          1           0      -14.246840   -0.355347   -0.003992
     47          1           0       13.043873   -2.678027   -0.537881
     48          1           0      -12.680437    1.856803    1.625997
     49          1           0       13.661108    0.013563   -1.396102
     50          1           0       13.182825   -1.378875   -2.415581
     51          1           0      -13.346022    1.823218   -1.355587
     52          1           0      -12.255591    2.954370   -0.527365
     53          1           0       11.684282   -0.588270    3.447571
     54          1           0       10.068879   -0.038997    3.031658
     55          1           0       11.509090    0.887121    2.632032
     56          1           0       10.661038   -3.016445    0.462919
     57          1           0       11.050776   -3.028461    2.110115
     58          1           0        9.586045   -2.230799    1.596941
     59          1           0      -11.540260    0.056564    2.470640
     60          1           0      -10.962153   -1.689941    2.429736
     61          1           0      -12.626716   -1.417731    2.941860
     62          1           0      -13.574980   -2.732913    1.030164
     63          1           0      -11.958066   -3.118809    0.359723
     64          1           0      -13.064309   -2.154999   -0.747336
     65          1           0        9.011051   -0.323116    0.632224
     66          1           0      -10.163643   -2.131904   -0.337936
     67          1           0       10.146315    0.757915   -2.504838
     68          1           0       12.033724    1.351888   -2.562302
     69          1           0       11.529097   -0.398194   -3.129143
     70          1           0      -11.363743    1.774428   -2.803693
     71          1           0       -9.893056    0.483751   -2.305169
     72          1           0       -9.929863    2.057154   -1.703506
     73          1           0       14.933816   -2.559189    0.557280
     74          1           0      -15.062699    1.688824    1.703629
     75          1           0       10.282422    2.367138   -0.394352
     76          1           0       -8.822441    0.483278   -0.110134
     77          1           0        8.562507    4.451131   -0.294613
     78          1           0        7.131556    4.312813    0.578698
     79          1           0        8.551055    3.892768    1.411141
     80          1           0       -8.255646   -3.390347    0.151169
     81          1           0       -8.189316   -3.158443   -1.854062
     82          1           0       -6.761406   -3.415424   -0.676430
     83          1           0        7.081131    0.652568   -0.539074
     84          1           0       -6.534372    0.326367   -0.169002
     85          1           0        5.343514    2.755747    0.589600
     86          1           0       -5.057360   -2.198196   -0.714239
     87          1           0        4.768572    0.178251   -0.382556
     88          1           0       -3.792508    0.609339   -0.005283
     89          1           0        3.168113    3.074118    1.370722
     90          1           0        1.582057    2.970588    0.461361
     91          1           0        3.057068    3.761894   -0.310192
     92          1           0       -2.675198   -2.989825   -0.163326
     93          1           0       -2.823202   -2.560065   -1.932144
     94          1           0       -1.347051   -2.684046   -1.103240
     95          1           0        2.273178   -0.608817   -0.300934
     96          1           0       -1.919933    0.971893    0.303661
     97          1           0        0.383018    1.837924    0.025954
     98          1           0        0.298038   -1.172634   -0.477208
 ---------------------------------------------------------------------

 SCF Done:  E(RCAM-B3LYP) =  -1706.99102543     A.U. after   14 cycles

 Excitation energies and oscillator strengths:

 Excited State   1:      Singlet-A      2.7943 eV  443.70 nm  f=3.6668  <S**2>=0.000
     155 ->158        -0.16373
     156 ->157         0.68251
 This state for optimization and/or second-order correction.
 Total Energy, E(TD-HF/TD-DFT) =  -1706.88833545
 Copying the excited state density for this state as the 1-particle RhoCI density.

 The electronic state is 1-A.
 Alpha  occ. eigenvalues --  -19.22747 -19.20698 -10.31281 -10.28651 -10.28609
 Alpha  occ. eigenvalues --  -10.28198 -10.27954 -10.27921 -10.27548 -10.27495
 Alpha  occ. eigenvalues --  -10.27248 -10.26955 -10.26825 -10.26816 -10.26788
 Alpha  occ. eigenvalues --  -10.26769 -10.26692 -10.26631 -10.26591 -10.26441
 Alpha  occ. eigenvalues --  -10.26405 -10.26382 -10.26362 -10.26345 -10.26221
 Alpha  occ. eigenvalues --  -10.26155 -10.26048 -10.25893 -10.25806 -10.25806
 Alpha  occ. eigenvalues --  -10.25693 -10.25668 -10.25516 -10.25444 -10.25361
 Alpha  occ. eigenvalues --  -10.25313 -10.25135 -10.25107 -10.25085 -10.25010
 Alpha  occ. eigenvalues --  -10.24730 -10.24560  -1.11105  -1.08871  -0.94309
 Alpha  occ. eigenvalues --   -0.92764  -0.92488  -0.91499  -0.90481  -0.89735
 Alpha  occ. eigenvalues --   -0.87890  -0.86844  -0.86487  -0.85867  -0.84737
 Alpha  occ. eigenvalues --   -0.83471  -0.81861  -0.80698  -0.79264  -0.78621
 Alpha  occ. eigenvalues --   -0.76606  -0.76284  -0.76194  -0.75927  -0.75886
 Alpha  occ. eigenvalues --   -0.75285  -0.74929  -0.74785  -0.73907  -0.70871
 Alpha  occ. eigenvalues --   -0.68971  -0.67404  -0.65924  -0.65014  -0.64518
 Alpha  occ. eigenvalues --   -0.63392  -0.62575  -0.62267  -0.61237  -0.60398
 Alpha  occ. eigenvalues --   -0.59226  -0.58809  -0.57872  -0.56949  -0.56233
 Alpha  occ. eigenvalues --   -0.55905  -0.55335  -0.54437  -0.54268  -0.53686
 Alpha  occ. eigenvalues --   -0.52969  -0.52483  -0.52022  -0.51865  -0.50781
 Alpha  occ. eigenvalues --   -0.50693  -0.50518  -0.50295  -0.49872  -0.49221
 Alpha  occ. eigenvalues --   -0.49143  -0.48843  -0.48592  -0.48429  -0.48391
 Alpha  occ. eigenvalues --   -0.47857  -0.47229  -0.46971  -0.46389  -0.46322
 Alpha  occ. eigenvalues --   -0.45595  -0.45436  -0.45245  -0.45037  -0.44848
 Alpha  occ. eigenvalues --   -0.44477  -0.44421  -0.44227  -0.43913  -0.43674
 Alpha  occ. eigenvalues --   -0.43099  -0.42865  -0.42597  -0.42223  -0.42136
 Alpha  occ. eigenvalues --   -0.41799  -0.41596  -0.41234  -0.40582  -0.40523
 Alpha  occ. eigenvalues --   -0.40329  -0.40103  -0.39762  -0.39233  -0.39122
 Alpha  occ. eigenvalues --   -0.38882  -0.38647  -0.38596  -0.38255  -0.37955
 Alpha  occ. eigenvalues --   -0.37657  -0.37302  -0.36871  -0.36254  -0.35922
 Alpha  occ. eigenvalues --   -0.35273  -0.34885  -0.34485  -0.32886  -0.32701
 Alpha  occ. eigenvalues --   -0.31985  -0.29956  -0.28149  -0.26547  -0.24213
 Alpha  occ. eigenvalues --   -0.20958
 Alpha virt. eigenvalues --   -0.04263  -0.00042   0.03247   0.06027   0.07708
 Alpha virt. eigenvalues --    0.09258   0.10192   0.11006   0.11513   0.12093
 Alpha virt. eigenvalues --    0.12277   0.12760   0.13259   0.13458   0.13609

 Mulliken charges:
               1
     1  O   -0.561625
     2  O   -0.543642
     3  C    0.006307
     4  C   -0.024702
     5  C   -0.226750
     6  C   -0.206293
     7  C    0.233279
     8  C    0.175410
     9  C    0.042262
    10  C    0.080840
    11  C   -0.239808
    12  C   -0.225367
    13  C    0.068696
    14  C    0.016291
    15  C   -0.323049
    16  C   -0.313312
    17  C   -0.268362
    18  C   -0.308157
    19  C   -0.062683
    20  C   -0.135503
    21  C   -0.333785
    22  C   -0.344049
    23  C   -0.135360
    24  C   -0.089055
    25  C    0.082845
    26  C    0.114977
    27  C   -0.378692
    28  C   -0.364436
    29  C   -0.117319
    30  C   -0.147729
    31  C   -0.062665
    32  C   -0.087866
    33  C   -0.108045
    34  C   -0.077342
    35  C    0.054251
    36  C    0.131238
    37  C   -0.354419
    38  C   -0.372911
    39  C   -0.105696
    40  C   -0.158289
    41  C   -0.055053
    42  C   -0.094785
    43  H    0.101299
    44  H    0.078388
    45  H    0.083982
    46  H    0.117421
    47  H    0.085761
    48  H    0.071843
    49  H    0.104480
    50  H    0.091332
    51  H    0.121733
    52  H    0.110468
    53  H    0.099385
    54  H    0.117155
    55  H    0.095086
    56  H    0.098092
    57  H    0.102342
    58  H    0.102602
    59  H    0.113020
    60  H    0.085619
    61  H    0.085390
    62  H    0.098129
    63  H    0.088821
    64  H    0.084899
    65  H    0.085053
    66  H    0.077832
    67  H    0.118747
    68  H    0.070220
    69  H    0.101560
    70  H    0.066710
    71  H    0.114838
    72  H    0.126573
    73  H    0.300345
    74  H    0.300543
    75  H    0.087211
    76  H    0.083574
    77  H    0.106690
    78  H    0.123111
    79  H    0.128515
    80  H    0.107112
    81  H    0.096695
    82  H    0.119915
    83  H    0.068558
    84  H    0.070722
    85  H    0.064957
    86  H    0.077039
    87  H    0.071070
    88  H    0.089469
    89  H    0.126090
    90  H    0.104683
    91  H    0.124408
    92  H    0.133815
    93  H    0.124249
    94  H    0.107910
    95  H    0.066013
    96  H    0.078209
    97  H    0.075073
    98  H    0.085598
 Sum of Mulliken charges =  -0.00000

 Dipole moment (field-independent basis, Debye):
    X=              1.1968    Y=             -2.3267    Z=              3.3063  Tot=              4.2163
 Quadrupole moment (field-independent basis, Debye-Ang):
   XX=           -286.5339   YY=           -246.2940   ZZ=           -261.1558
   XY=             18.2461   XZ=              5.9834   YZ=              0.0693

 Normal termination of Gaussian 16 at Wed Jul 10 05:28:12 2019.
