 Gaussian 16, Revision A.03,
 Gaussian 16:  ES64L-G16RevA.03 25-Dec-2016

 -------------------------------------
 # td=(NStates=1) CAM-B3LYP/6-31G(d,p)
 -------------------------------------

 --
 TD
 --
 Symbolic Z-matrix:
 Charge =  0 Multiplicity = 1

                         Standard orientation:
 ---------------------------------------------------------------------
 Center     Atomic      Atomic             Coordinates (Angstroms)
 Number     Number       Type             X           Y           Z
 ---------------------------------------------------------------------
      1          8           0       14.778361   -2.113954   -0.470647
      2          8           0      -14.834096    2.053948    0.742317
      3          6           0       11.508977   -1.047314    1.266267
      4          6           0      -12.223076   -0.821395    0.883197
      5          6           0       13.076910   -1.341509    1.071369
      6          6           0      -13.607017   -0.055961    0.871871
      7          6           0       13.352686   -1.888819   -0.406922
      8          6           0      -13.477825    1.350583    0.657214
      9          6           0       11.030096   -0.239935    0.040330
     10          6           0      -11.295870   -0.267499   -0.187952
     11          6           0       12.970167   -0.784978   -1.461309
     12          6           0      -12.908076    1.631971   -0.745814
     13          6           0       11.625155   -0.211926   -1.154595
     14          6           0      -11.586820    0.859954   -0.901033
     15          6           0       11.344081   -0.319117    2.602466
     16          6           0       10.668146   -2.357586    1.379874
     17          6           0      -11.638316   -0.674428    2.230101
     18          6           0      -12.595918   -2.273038    0.724304
     19          6           0        9.666099    0.336746    0.187428
     20          6           0      -10.023086   -1.072347   -0.329872
     21          6           0       10.989805    0.495719   -2.381246
     22          6           0      -10.827643    1.350668   -2.017000
     23          6           0        9.329423    1.640629   -0.130909
     24          6           0       -8.833442   -0.583200   -0.306223
     25          6           0        8.059319    2.214771    0.089652
     26          6           0       -7.606210   -1.388344   -0.566631
     27          6           0        8.135968    3.712244    0.533224
     28          6           0       -7.749836   -2.790580   -0.996319
     29          6           0        6.897085    1.519682   -0.071515
     30          6           0       -6.410817   -0.666732   -0.261402
     31          6           0        5.557709    2.054093    0.151509
     32          6           0       -5.057903   -1.197891   -0.330116
     33          6           0        4.454250    1.226920   -0.071182
     34          6           0       -3.971094   -0.392472   -0.071409
     35          6           0        3.095250    1.600720    0.160396
     36          6           0       -2.631757   -0.828702   -0.387256
     37          6           0        2.710147    2.954956    0.615655
     38          6           0       -2.480338   -2.315431   -0.866147
     39          6           0        2.167312    0.679505   -0.096103
     40          6           0       -1.717859    0.047260   -0.308281
     41          6           0        0.732545    0.885153   -0.114712
     42          6           0       -0.277223   -0.100699   -0.361764
     43          1           0       13.959726   -0.694545    1.326903
     44          1           0       13.314474   -2.098391    1.852896
     45          1           0      -14.122835   -0.305521    1.783096
     46          1           0      -14.155465   -0.446316    0.050290
     47          1           0       12.850317   -2.744957   -0.730865
     48          1           0      -12.922007    1.986003    1.383864
     49          1           0       13.712162    0.056798   -1.403559
     50          1           0       13.127606   -1.290666   -2.344200
     51          1           0      -13.614633    1.428975   -1.519754
     52          1           0      -12.724831    2.772809   -1.018409
     53          1           0       11.509904   -0.997899    3.345575
     54          1           0       10.306652   -0.333043    2.648672
     55          1           0       11.748908    0.742384    2.518095
     56          1           0       10.736640   -3.000898    0.561047
     57          1           0       11.078530   -2.884237    2.230732
     58          1           0        9.596204   -2.041042    1.672828
     59          1           0      -11.324972    0.250704    2.462655
     60          1           0      -10.788660   -1.352809    2.064637
     61          1           0      -12.322609   -1.001183    3.225994
     62          1           0      -13.194701   -2.586233    1.473250
     63          1           0      -11.830436   -2.861132    0.869418
     64          1           0      -13.011665   -2.512378   -0.340064
     65          1           0        9.046897   -0.270478    0.696806
     66          1           0      -10.030015   -1.921342   -0.649487
     67          1           0        9.891496    0.938673   -2.294070
     68          1           0       11.679739    1.688290   -2.518818
     69          1           0       11.333595   -0.137397   -3.127916
     70          1           0      -11.459180    1.917470   -2.776661
     71          1           0      -10.389269    0.319267   -2.500604
     72          1           0      -10.074750    2.004956   -1.698200
     73          1           0       15.010331   -2.955225    0.042828
     74          1           0      -15.035404    1.547975    1.665060
     75          1           0       10.311176    2.256425   -0.321017
     76          1           0       -8.530257    0.539301   -0.304754
     77          1           0        8.978592    4.260992   -0.148672
     78          1           0        7.271858    4.300528    0.267710
     79          1           0        8.391809    3.646915    1.668301
     80          1           0       -8.488520   -3.345061   -0.373888
     81          1           0       -8.147900   -2.880019   -1.991547
     82          1           0       -6.691005   -3.369473   -0.700348
     83          1           0        6.927315    0.546198   -0.505653
     84          1           0       -6.683944    0.359264    0.201188
     85          1           0        5.438590    3.146183    0.663077
     86          1           0       -4.869344   -2.237162   -0.785132
     87          1           0        4.822058    0.489851   -0.735358
     88          1           0       -4.313769    0.661188    0.147104
     89          1           0        3.246646    3.157894    1.670414
     90          1           0        1.770237    3.080411    0.871944
     91          1           0        3.069104    3.631880   -0.193416
     92          1           0       -3.046413   -3.116081   -0.165561
     93          1           0       -3.015899   -2.501301   -1.879271
     94          1           0       -1.403679   -2.483642   -0.893314
     95          1           0        2.401797   -0.334614   -0.591996
     96          1           0       -2.006255    0.964916   -0.074235
     97          1           0        0.244453    1.865948    0.098422
     98          1           0        0.161468   -1.029132   -0.684275
 ---------------------------------------------------------------------

 SCF Done:  E(RCAM-B3LYP) =  -1706.92607993     A.U. after   14 cycles

 Excitation energies and oscillator strengths:

 Excited State   1:      Singlet-A      2.7269 eV  454.68 nm  f=3.6459  <S**2>=0.000
     155 ->158         0.18790
     156 ->157         0.67612
 This state for optimization and/or second-order correction.
 Total Energy, E(TD-HF/TD-DFT) =  -1706.82586975
 Copying the excited state density for this state as the 1-particle RhoCI density.

 The electronic state is 1-A.
 Alpha  occ. eigenvalues --  -19.21050 -19.20378 -10.30470 -10.29673 -10.27906
 Alpha  occ. eigenvalues --  -10.27792 -10.27678 -10.27676 -10.27601 -10.27514
 Alpha  occ. eigenvalues --  -10.27382 -10.27362 -10.27334 -10.27289 -10.27088
 Alpha  occ. eigenvalues --  -10.26962 -10.26829 -10.26734 -10.26701 -10.26699
 Alpha  occ. eigenvalues --  -10.26552 -10.26503 -10.26472 -10.26456 -10.26153
 Alpha  occ. eigenvalues --  -10.26122 -10.25864 -10.25821 -10.25814 -10.25720
 Alpha  occ. eigenvalues --  -10.25615 -10.25558 -10.25461 -10.25448 -10.25445
 Alpha  occ. eigenvalues --  -10.25161 -10.24540 -10.24382 -10.24006 -10.23626
 Alpha  occ. eigenvalues --  -10.23496 -10.23044  -1.07536  -1.04543  -0.94267
 Alpha  occ. eigenvalues --   -0.93164  -0.92577  -0.91949  -0.90860  -0.90205
 Alpha  occ. eigenvalues --   -0.88158  -0.87371  -0.86663  -0.85461  -0.84298
 Alpha  occ. eigenvalues --   -0.83075  -0.82014  -0.80968  -0.79048  -0.78065
 Alpha  occ. eigenvalues --   -0.77372  -0.76682  -0.76441  -0.76318  -0.76009
 Alpha  occ. eigenvalues --   -0.75740  -0.75369  -0.74657  -0.74172  -0.70366
 Alpha  occ. eigenvalues --   -0.68673  -0.66724  -0.65719  -0.65408  -0.64145
 Alpha  occ. eigenvalues --   -0.63783  -0.62254  -0.61466  -0.60495  -0.59940
 Alpha  occ. eigenvalues --   -0.59522  -0.58493  -0.58157  -0.57793  -0.56038
 Alpha  occ. eigenvalues --   -0.55462  -0.55002  -0.54524  -0.54093  -0.53864
 Alpha  occ. eigenvalues --   -0.53208  -0.53035  -0.52667  -0.51913  -0.51276
 Alpha  occ. eigenvalues --   -0.50484  -0.50282  -0.50219  -0.49864  -0.49628
 Alpha  occ. eigenvalues --   -0.49403  -0.49076  -0.48688  -0.48485  -0.48238
 Alpha  occ. eigenvalues --   -0.47387  -0.47337  -0.47054  -0.46981  -0.46797
 Alpha  occ. eigenvalues --   -0.45792  -0.45687  -0.45081  -0.45021  -0.44763
 Alpha  occ. eigenvalues --   -0.44624  -0.44165  -0.43610  -0.43455  -0.43243
 Alpha  occ. eigenvalues --   -0.42956  -0.42583  -0.42341  -0.42279  -0.41877
 Alpha  occ. eigenvalues --   -0.41648  -0.41522  -0.41321  -0.41099  -0.40870
 Alpha  occ. eigenvalues --   -0.40584  -0.40421  -0.40130  -0.40051  -0.39666
 Alpha  occ. eigenvalues --   -0.39415  -0.38941  -0.38806  -0.38739  -0.38218
 Alpha  occ. eigenvalues --   -0.38075  -0.37426  -0.36568  -0.36207  -0.35612
 Alpha  occ. eigenvalues --   -0.34805  -0.34584  -0.33691  -0.32361  -0.31316
 Alpha  occ. eigenvalues --   -0.31125  -0.29620  -0.28389  -0.26830  -0.23909
 Alpha  occ. eigenvalues --   -0.20828
 Alpha virt. eigenvalues --   -0.04297  -0.00675   0.02815   0.05950   0.07145
 Alpha virt. eigenvalues --    0.08774   0.10756   0.11494   0.11741   0.11837
 Alpha virt. eigenvalues --    0.12136   0.12903   0.13060   0.13162   0.13483

 Mulliken charges:
               1
     1  O   -0.576328
     2  O   -0.574614
     3  C   -0.054459
     4  C   -0.047325
     5  C   -0.192312
     6  C   -0.182974
     7  C    0.150592
     8  C    0.141913
     9  C    0.064316
    10  C    0.052706
    11  C   -0.216686
    12  C   -0.234244
    13  C    0.037683
    14  C    0.068708
    15  C   -0.277863
    16  C   -0.307756
    17  C   -0.269814
    18  C   -0.285848
    19  C   -0.094163
    20  C   -0.137289
    21  C   -0.307153
    22  C   -0.363887
    23  C   -0.141848
    24  C   -0.054843
    25  C    0.080600
    26  C    0.104116
    27  C   -0.353301
    28  C   -0.382444
    29  C   -0.123469
    30  C   -0.143803
    31  C   -0.092714
    32  C   -0.092083
    33  C   -0.121858
    34  C   -0.117171
    35  C    0.116951
    36  C    0.138706
    37  C   -0.345775
    38  C   -0.367774
    39  C   -0.123494
    40  C   -0.101504
    41  C   -0.102656
    42  C   -0.110817
    43  H    0.113132
    44  H    0.063790
    45  H    0.079342
    46  H    0.112042
    47  H    0.088622
    48  H    0.093673
    49  H    0.125682
    50  H    0.114085
    51  H    0.129996
    52  H    0.090779
    53  H    0.103827
    54  H    0.095058
    55  H    0.110962
    56  H    0.114556
    57  H    0.104227
    58  H    0.099441
    59  H    0.113122
    60  H    0.103052
    61  H    0.062034
    62  H    0.108542
    63  H    0.100790
    64  H    0.087005
    65  H    0.081472
    66  H    0.061985
    67  H    0.129959
    68  H    0.037573
    69  H    0.113304
    70  H    0.103790
    71  H    0.098673
    72  H    0.130773
    73  H    0.306221
    74  H    0.290067
    75  H    0.099378
    76  H    0.078482
    77  H    0.097155
    78  H    0.120311
    79  H    0.125379
    80  H    0.124951
    81  H    0.135876
    82  H    0.093343
    83  H    0.084539
    84  H    0.085553
    85  H    0.079220
    86  H    0.083628
    87  H    0.092516
    88  H    0.089330
    89  H    0.097615
    90  H    0.121636
    91  H    0.125848
    92  H    0.106074
    93  H    0.122591
    94  H    0.114165
    95  H    0.080985
    96  H    0.070970
    97  H    0.075538
    98  H    0.069320
 Sum of Mulliken charges =  -0.00000

 Dipole moment (field-independent basis, Debye):
    X=              2.2076    Y=             -2.6172    Z=              0.9776  Tot=              3.5607
 Quadrupole moment (field-independent basis, Debye-Ang):
   XX=           -312.6212   YY=           -244.0419   ZZ=           -259.5355
   XY=             10.4283   XZ=              7.6514   YZ=              1.7356

 Normal termination of Gaussian 16 at Thu Jun 27 14:15:37 2019.
