 Gaussian 16, Revision A.03,
 Gaussian 16:  ES64L-G16RevA.03 25-Dec-2016

 -------------------------------------
 # td=(NStates=1) CAM-B3LYP/6-31G(d,p)
 -------------------------------------

 --
 TD
 --
 Symbolic Z-matrix:
 Charge =  0 Multiplicity = 1

                         Standard orientation:
 ---------------------------------------------------------------------
 Center     Atomic      Atomic             Coordinates (Angstroms)
 Number     Number       Type             X           Y           Z
 ---------------------------------------------------------------------
      1          8           0       14.680649   -2.239301   -0.687911
      2          8           0      -14.961971    1.917110    0.330423
      3          6           0       11.576718   -1.115025    1.110962
      4          6           0      -12.470394   -0.850660    0.801774
      5          6           0       13.164243   -1.415811    0.963232
      6          6           0      -13.848843   -0.217950    0.635281
      7          6           0       13.356580   -2.004113   -0.415753
      8          6           0      -13.687790    1.357897    0.521085
      9          6           0       11.025829   -0.291036   -0.015188
     10          6           0      -11.381296   -0.264549   -0.191638
     11          6           0       13.016179   -0.975976   -1.476309
     12          6           0      -12.883982    1.685100   -0.651427
     13          6           0       11.679370   -0.232090   -1.169680
     14          6           0      -11.582404    0.748055   -0.834009
     15          6           0       11.549741   -0.245061    2.507178
     16          6           0       10.732193   -2.412007    1.268990
     17          6           0      -11.841684   -0.693839    2.206542
     18          6           0      -12.703381   -2.408333    0.624520
     19          6           0        9.727068    0.375027    0.174013
     20          6           0      -10.109816   -1.013099   -0.309585
     21          6           0       11.211855    0.630589   -2.331617
     22          6           0      -10.642513    1.435836   -1.838593
     23          6           0        9.398153    1.625858   -0.080240
     24          6           0       -8.940223   -0.594423   -0.181153
     25          6           0        8.182963    2.274515    0.242664
     26          6           0       -7.635615   -1.320112   -0.343686
     27          6           0        8.167295    3.821501    0.596509
     28          6           0       -7.774949   -2.709885   -0.770316
     29          6           0        7.056220    1.564124    0.036203
     30          6           0       -6.490661   -0.612098   -0.237286
     31          6           0        5.582712    1.918522    0.245357
     32          6           0       -5.132116   -1.095898   -0.238314
     33          6           0        4.470255    1.215175   -0.052424
     34          6           0       -3.998501   -0.233906   -0.222205
     35          6           0        3.096928    1.558142    0.123804
     36          6           0       -2.589236   -0.759340   -0.384484
     37          6           0        2.844766    3.023983    0.557262
     38          6           0       -2.426143   -2.260566   -0.761367
     39          6           0        2.130733    0.692707   -0.111366
     40          6           0       -1.658302    0.191393   -0.220221
     41          6           0        0.691889    0.896469   -0.039315
     42          6           0       -0.266588    0.006348   -0.290120
     43          1           0       13.747996   -0.515411    1.243839
     44          1           0       13.353080   -2.169281    1.752995
     45          1           0      -14.422464   -0.606672    1.428876
     46          1           0      -14.246269   -0.616762   -0.384353
     47          1           0       12.890153   -3.026360   -0.470396
     48          1           0      -13.303776    1.604446    1.478688
     49          1           0       13.916651   -0.380563   -1.518706
     50          1           0       12.825942   -1.360302   -2.437537
     51          1           0      -13.376454    1.456368   -1.528327
     52          1           0      -12.456450    2.587836   -0.733288
     53          1           0       12.022772   -0.755344    3.440163
     54          1           0       10.533614   -0.264189    2.568134
     55          1           0       12.170063    0.453422    2.252704
     56          1           0       10.539399   -2.990786    0.286891
     57          1           0       11.054347   -3.014966    2.109107
     58          1           0        9.696205   -2.144849    1.632513
     59          1           0      -11.474623    0.163577    2.735063
     60          1           0      -11.043771   -1.441747    2.170206
     61          1           0      -12.587271   -0.971760    2.926642
     62          1           0      -13.523125   -2.509971    1.091084
     63          1           0      -11.814901   -3.116716    0.781507
     64          1           0      -12.985807   -2.548872   -0.554497
     65          1           0        9.066352   -0.293631    0.766750
     66          1           0      -10.360778   -2.123526   -0.377285
     67          1           0       10.226257    1.098402   -2.217500
     68          1           0       11.971975    1.516795   -2.267970
     69          1           0       11.240334   -0.086447   -3.072173
     70          1           0      -11.153197    1.575911   -2.928603
     71          1           0       -9.750650    0.737266   -2.064728
     72          1           0      -10.278713    2.502611   -1.551019
     73          1           0       15.118933   -2.699373    0.060605
     74          1           0      -15.409390    1.712921    1.101926
     75          1           0       10.493746    2.380507   -0.062644
     76          1           0       -8.896215    0.460147    0.141932
     77          1           0        8.438153    4.369792   -0.273790
     78          1           0        7.096291    4.155488    1.031403
     79          1           0        8.867121    4.083280    1.388399
     80          1           0       -7.955060   -3.356938    0.105215
     81          1           0       -8.549544   -2.854185   -1.406382
     82          1           0       -6.959668   -3.129101   -1.260895
     83          1           0        7.132432    0.520697   -0.218762
     84          1           0       -6.422840    0.503894    0.123813
     85          1           0        5.580465    3.021994    0.874879
     86          1           0       -4.950739   -2.202498   -0.435930
     87          1           0        4.799535    0.256914   -0.479847
     88          1           0       -4.266761    0.747085    0.033594
     89          1           0        3.519566    2.948960    1.454191
     90          1           0        1.674761    3.213920    0.829746
     91          1           0        3.348052    3.724420   -0.242350
     92          1           0       -3.262827   -2.815045   -0.242314
     93          1           0       -2.626282   -2.336836   -1.961220
     94          1           0       -1.273941   -2.515779   -0.344894
     95          1           0        2.400307   -0.353805   -0.150816
     96          1           0       -2.117280    1.218707    0.182821
     97          1           0        0.463723    1.939028    0.182794
     98          1           0       -0.052390   -0.947916   -0.824858
 ---------------------------------------------------------------------

 SCF Done:  E(RCAM-B3LYP) =  -1706.94462694     A.U. after   13 cycles

 Excitation energies and oscillator strengths:

 Excited State   1:      Singlet-A      2.9713 eV  417.27 nm  f=3.6353  <S**2>=0.000
     155 ->158         0.19582
     156 ->157         0.67121
 This state for optimization and/or second-order correction.
 Total Energy, E(TD-HF/TD-DFT) =  -1706.83543389
 Copying the excited state density for this state as the 1-particle RhoCI density.

 The electronic state is 1-A.
 Alpha  occ. eigenvalues --  -19.20350 -19.20283 -10.29970 -10.29961 -10.29330
 Alpha  occ. eigenvalues --  -10.28289 -10.27933 -10.27857 -10.27771 -10.27703
 Alpha  occ. eigenvalues --  -10.27602 -10.27467 -10.27212 -10.27061 -10.26995
 Alpha  occ. eigenvalues --  -10.26856 -10.26809 -10.26608 -10.26536 -10.26398
 Alpha  occ. eigenvalues --  -10.26396 -10.26297 -10.26248 -10.26144 -10.26079
 Alpha  occ. eigenvalues --  -10.26025 -10.25771 -10.25529 -10.25312 -10.25287
 Alpha  occ. eigenvalues --  -10.25144 -10.24887 -10.24762 -10.24690 -10.24596
 Alpha  occ. eigenvalues --  -10.24586 -10.24370 -10.23925 -10.23846 -10.23762
 Alpha  occ. eigenvalues --  -10.23628 -10.23174  -1.10993  -1.10519  -0.93871
 Alpha  occ. eigenvalues --   -0.93406  -0.92009  -0.91234  -0.90659  -0.90121
 Alpha  occ. eigenvalues --   -0.87482  -0.86702  -0.86270  -0.85561  -0.84641
 Alpha  occ. eigenvalues --   -0.83145  -0.81620  -0.80375  -0.79898  -0.77549
 Alpha  occ. eigenvalues --   -0.76787  -0.76707  -0.76453  -0.76234  -0.75914
 Alpha  occ. eigenvalues --   -0.75729  -0.75170  -0.74621  -0.74248  -0.70425
 Alpha  occ. eigenvalues --   -0.68740  -0.67523  -0.66279  -0.65245  -0.64042
 Alpha  occ. eigenvalues --   -0.63591  -0.61955  -0.60896  -0.59879  -0.59592
 Alpha  occ. eigenvalues --   -0.59443  -0.59054  -0.58291  -0.57663  -0.56170
 Alpha  occ. eigenvalues --   -0.55395  -0.55309  -0.54756  -0.53970  -0.53706
 Alpha  occ. eigenvalues --   -0.53340  -0.53133  -0.52365  -0.51994  -0.51113
 Alpha  occ. eigenvalues --   -0.50338  -0.50080  -0.49882  -0.49430  -0.49129
 Alpha  occ. eigenvalues --   -0.48846  -0.48761  -0.48274  -0.48160  -0.48038
 Alpha  occ. eigenvalues --   -0.47887  -0.47719  -0.47671  -0.47265  -0.46678
 Alpha  occ. eigenvalues --   -0.46520  -0.45891  -0.45071  -0.44890  -0.44885
 Alpha  occ. eigenvalues --   -0.44274  -0.43991  -0.43971  -0.43885  -0.43522
 Alpha  occ. eigenvalues --   -0.43107  -0.43049  -0.42529  -0.42402  -0.42390
 Alpha  occ. eigenvalues --   -0.42037  -0.41364  -0.41136  -0.40723  -0.40142
 Alpha  occ. eigenvalues --   -0.40105  -0.40042  -0.39748  -0.39066  -0.38967
 Alpha  occ. eigenvalues --   -0.38781  -0.38708  -0.38594  -0.38238  -0.38039
 Alpha  occ. eigenvalues --   -0.37656  -0.36938  -0.36835  -0.36207  -0.35491
 Alpha  occ. eigenvalues --   -0.34837  -0.34194  -0.33657  -0.32720  -0.31177
 Alpha  occ. eigenvalues --   -0.30706  -0.30338  -0.29136  -0.26990  -0.24409
 Alpha  occ. eigenvalues --   -0.21435
 Alpha virt. eigenvalues --   -0.03712  -0.00204   0.03303   0.07040   0.08985
 Alpha virt. eigenvalues --    0.09766   0.11410   0.11837   0.12052   0.12450
 Alpha virt. eigenvalues --    0.12614   0.12921   0.13278   0.13708   0.13848

 Mulliken charges:
               1
     1  O   -0.564630
     2  O   -0.537505
     3  C   -0.082828
     4  C   -0.048246
     5  C   -0.199514
     6  C   -0.215894
     7  C    0.185681
     8  C    0.161766
     9  C    0.103192
    10  C    0.105487
    11  C   -0.195865
    12  C   -0.184879
    13  C   -0.018444
    14  C    0.006263
    15  C   -0.278796
    16  C   -0.311083
    17  C   -0.299300
    18  C   -0.284584
    19  C   -0.101211
    20  C   -0.150973
    21  C   -0.330384
    22  C   -0.365315
    23  C   -0.114391
    24  C   -0.067817
    25  C    0.085691
    26  C    0.105911
    27  C   -0.359198
    28  C   -0.378077
    29  C   -0.122577
    30  C   -0.132892
    31  C   -0.090514
    32  C   -0.102686
    33  C   -0.108107
    34  C   -0.105673
    35  C    0.107648
    36  C    0.095436
    37  C   -0.346968
    38  C   -0.347829
    39  C   -0.128206
    40  C   -0.101620
    41  C   -0.082537
    42  C   -0.101904
    43  H    0.097256
    44  H    0.082736
    45  H    0.087308
    46  H    0.092990
    47  H    0.076643
    48  H    0.082621
    49  H    0.131188
    50  H    0.109972
    51  H    0.129062
    52  H    0.111168
    53  H    0.078514
    54  H    0.108503
    55  H    0.115003
    56  H    0.104987
    57  H    0.105291
    58  H    0.091013
    59  H    0.107162
    60  H    0.109283
    61  H    0.086066
    62  H    0.112150
    63  H    0.101912
    64  H    0.077240
    65  H    0.090491
    66  H    0.067096
    67  H    0.122300
    68  H    0.106813
    69  H    0.110303
    70  H    0.085001
    71  H    0.115262
    72  H    0.104878
    73  H    0.296957
    74  H    0.293460
    75  H    0.062251
    76  H    0.085033
    77  H    0.137209
    78  H    0.098341
    79  H    0.122353
    80  H    0.118402
    81  H    0.130928
    82  H    0.115873
    83  H    0.081064
    84  H    0.074284
    85  H    0.046842
    86  H    0.066906
    87  H    0.085550
    88  H    0.083474
    89  H    0.129258
    90  H    0.096716
    91  H    0.120938
    92  H    0.127507
    93  H    0.120738
    94  H    0.101260
    95  H    0.075684
    96  H    0.074463
    97  H    0.071878
    98  H    0.085795
 Sum of Mulliken charges =  -0.00000

 Dipole moment (field-independent basis, Debye):
    X=              1.1126    Y=             -1.6730    Z=              2.8763  Tot=              3.5086
 Quadrupole moment (field-independent basis, Debye-Ang):
   XX=           -255.0599   YY=           -248.2588   ZZ=           -261.7706
   XY=             12.3545   XZ=             -0.0527   YZ=              2.3456

 Normal termination of Gaussian 16 at Fri Jun 28 19:51:29 2019.
