 Gaussian 16, Revision A.03,
 Gaussian 16:  ES64L-G16RevA.03 25-Dec-2016

 -------------------------------------
 # td=(NStates=1) CAM-B3LYP/6-31G(d,p)
 -------------------------------------

 --
 TD
 --
 Symbolic Z-matrix:
 Charge =  0 Multiplicity = 1

                         Standard orientation:
 ---------------------------------------------------------------------
 Center     Atomic      Atomic             Coordinates (Angstroms)
 Number     Number       Type             X           Y           Z
 ---------------------------------------------------------------------
      1          8           0       14.767981   -2.203881   -0.196629
      2          8           0      -14.806348    1.943576    0.787605
      3          6           0       11.372111   -1.109220    1.202078
      4          6           0      -12.304678   -1.020632    0.820465
      5          6           0       12.933697   -1.457113    1.094419
      6          6           0      -13.523179   -0.163562    0.863227
      7          6           0       13.360111   -1.800462   -0.147220
      8          6           0      -13.505544    1.275660    0.853961
      9          6           0       10.973506   -0.247718   -0.015217
     10          6           0      -11.314475   -0.389418   -0.172495
     11          6           0       13.180351   -0.815446   -1.219591
     12          6           0      -12.813762    1.761383   -0.409283
     13          6           0       11.836029   -0.149521   -1.110543
     14          6           0      -11.612621    0.837432   -0.758787
     15          6           0       11.101323   -0.421789    2.482246
     16          6           0       10.619668   -2.443827    1.169378
     17          6           0      -11.665823   -0.845021    2.173304
     18          6           0      -12.576768   -2.401742    0.491858
     19          6           0        9.604716    0.242029    0.089427
     20          6           0      -10.075434   -1.160664   -0.496783
     21          6           0       11.550854    0.669620   -2.274666
     22          6           0      -10.841202    1.429687   -1.830906
     23          6           0        9.324921    1.592963   -0.100149
     24          6           0       -8.902431   -0.563424   -0.380972
     25          6           0        7.952334    2.205908    0.102083
     26          6           0       -7.628021   -1.338645   -0.531759
     27          6           0        8.106372    3.628832    0.647899
     28          6           0       -7.736831   -2.788910   -0.867863
     29          6           0        6.833571    1.487121   -0.003778
     30          6           0       -6.485932   -0.611534   -0.443136
     31          6           0        5.491034    1.939894    0.153431
     32          6           0       -5.118049   -1.104345   -0.648801
     33          6           0        4.449655    1.221493   -0.120460
     34          6           0       -4.028196   -0.368124   -0.308039
     35          6           0        3.054396    1.707791   -0.005862
     36          6           0       -2.646577   -0.698346   -0.452100
     37          6           0        2.831783    3.118995    0.533732
     38          6           0       -2.320491   -2.119196   -1.061317
     39          6           0        2.066622    0.839107   -0.271583
     40          6           0       -1.638686    0.181885   -0.160944
     41          6           0        0.634162    0.981517   -0.052366
     42          6           0       -0.181722   -0.017281   -0.312767
     43          1           0       13.546606   -0.832584    1.326138
     44          1           0       13.095766   -2.317540    1.716573
     45          1           0      -14.071953   -0.492358    1.811300
     46          1           0      -14.102819   -0.591945    0.101205
     47          1           0       12.893871   -2.814900   -0.514565
     48          1           0      -12.861991    1.649386    1.752349
     49          1           0       13.796973   -0.066833   -1.039495
     50          1           0       13.242434   -1.190888   -2.235410
     51          1           0      -13.772851    1.795771   -1.267979
     52          1           0      -12.488870    2.752389   -0.399783
     53          1           0       11.452285   -1.039517    3.259640
     54          1           0       10.062827   -0.322211    2.548258
     55          1           0       11.511732    0.560515    2.613594
     56          1           0       10.613301   -3.087763    0.058149
     57          1           0       11.084773   -3.090145    2.045460
     58          1           0        9.558501   -2.486312    1.517549
     59          1           0      -11.767213    0.247019    2.654852
     60          1           0      -10.522563   -1.301107    2.429706
     61          1           0      -12.474664   -1.345631    2.957443
     62          1           0      -13.269693   -2.550123    1.108791
     63          1           0      -11.603442   -2.998952    0.685333
     64          1           0      -12.853634   -2.401227   -0.518546
     65          1           0        8.963044   -0.401015    0.533336
     66          1           0      -10.106021   -2.207838   -0.548278
     67          1           0       10.501350    0.994763   -2.733726
     68          1           0       12.185593    1.666681   -2.133328
     69          1           0       11.656111    0.162470   -3.224429
     70          1           0      -11.498153    1.803580   -2.589735
     71          1           0      -10.086161    0.791367   -2.449680
     72          1           0      -10.059102    2.262130   -1.529484
     73          1           0       14.791096   -3.073068    0.326037
     74          1           0      -15.123104    1.927143    1.896850
     75          1           0       10.156925    2.153328   -0.693418
     76          1           0       -8.828759    0.659006   -0.444866
     77          1           0        8.789393    4.279688    0.006808
     78          1           0        7.126753    4.285276    0.710971
     79          1           0        8.489696    3.511367    1.697195
     80          1           0       -8.265336   -3.226108   -0.249149
     81          1           0       -8.338850   -2.929981   -1.893967
     82          1           0       -6.710666   -3.308678   -0.962267
     83          1           0        6.990858    0.480318   -0.445434
     84          1           0       -6.643037    0.435274   -0.189526
     85          1           0        5.188271    3.049948    0.227166
     86          1           0       -5.180008   -2.168635   -0.909229
     87          1           0        4.444683    0.205977   -0.482780
     88          1           0       -4.297840    0.665466   -0.098792
     89          1           0        3.611730    3.359048    1.504572
     90          1           0        1.759541    3.537775    0.717283
     91          1           0        3.140759    3.997735   -0.156531
     92          1           0       -2.475367   -3.042090   -0.366539
     93          1           0       -2.758367   -2.035429   -2.138565
     94          1           0       -1.092372   -2.283098   -1.248969
     95          1           0        2.399130   -0.259587   -0.632508
     96          1           0       -1.935592    1.179098    0.535347
     97          1           0        0.182587    1.912216    0.277249
     98          1           0        0.118007   -0.889006   -0.770700
 ---------------------------------------------------------------------

 SCF Done:  E(RCAM-B3LYP) =  -1706.86833749     A.U. after   14 cycles

 Excitation energies and oscillator strengths:

 Excited State   1:      Singlet-A      3.0809 eV  402.43 nm  f=3.6610  <S**2>=0.000
     155 ->158        -0.19377
     156 ->157         0.66921
 This state for optimization and/or second-order correction.
 Total Energy, E(TD-HF/TD-DFT) =  -1706.75511598
 Copying the excited state density for this state as the 1-particle RhoCI density.

 The electronic state is 1-A.
 Alpha  occ. eigenvalues --  -19.23118 -19.20464 -10.30763 -10.29059 -10.28746
 Alpha  occ. eigenvalues --  -10.28632 -10.27919 -10.27816 -10.27787 -10.27734
 Alpha  occ. eigenvalues --  -10.27671 -10.27567 -10.27306 -10.27140 -10.27109
 Alpha  occ. eigenvalues --  -10.27025 -10.26960 -10.26923 -10.26616 -10.26530
 Alpha  occ. eigenvalues --  -10.26495 -10.26289 -10.26213 -10.26192 -10.26177
 Alpha  occ. eigenvalues --  -10.26108 -10.26090 -10.25870 -10.25806 -10.25770
 Alpha  occ. eigenvalues --  -10.25659 -10.25572 -10.25547 -10.25506 -10.25238
 Alpha  occ. eigenvalues --  -10.25235 -10.24989 -10.24234 -10.23734 -10.23335
 Alpha  occ. eigenvalues --  -10.23206 -10.22156  -1.07481  -1.06359  -0.95057
 Alpha  occ. eigenvalues --   -0.94370  -0.92004  -0.91484  -0.90513  -0.89428
 Alpha  occ. eigenvalues --   -0.88286  -0.87963  -0.87470  -0.86369  -0.85295
 Alpha  occ. eigenvalues --   -0.83560  -0.82310  -0.81021  -0.80590  -0.77670
 Alpha  occ. eigenvalues --   -0.77504  -0.77077  -0.76086  -0.76017  -0.75531
 Alpha  occ. eigenvalues --   -0.75060  -0.74509  -0.74190  -0.73571  -0.70156
 Alpha  occ. eigenvalues --   -0.68151  -0.66654  -0.65278  -0.64750  -0.64140
 Alpha  occ. eigenvalues --   -0.63582  -0.62594  -0.61600  -0.60554  -0.59882
 Alpha  occ. eigenvalues --   -0.59602  -0.59280  -0.58045  -0.57261  -0.55860
 Alpha  occ. eigenvalues --   -0.55687  -0.54921  -0.54500  -0.54327  -0.53818
 Alpha  occ. eigenvalues --   -0.53375  -0.53121  -0.52535  -0.52171  -0.51217
 Alpha  occ. eigenvalues --   -0.51006  -0.50195  -0.50031  -0.49851  -0.49039
 Alpha  occ. eigenvalues --   -0.48826  -0.48771  -0.48480  -0.48333  -0.48253
 Alpha  occ. eigenvalues --   -0.47662  -0.47515  -0.46822  -0.46562  -0.46323
 Alpha  occ. eigenvalues --   -0.45895  -0.45593  -0.45269  -0.45140  -0.44298
 Alpha  occ. eigenvalues --   -0.44055  -0.43883  -0.43563  -0.43210  -0.43175
 Alpha  occ. eigenvalues --   -0.42851  -0.42383  -0.42346  -0.41982  -0.41830
 Alpha  occ. eigenvalues --   -0.41323  -0.41298  -0.41067  -0.40747  -0.40497
 Alpha  occ. eigenvalues --   -0.40308  -0.40163  -0.39919  -0.39568  -0.39482
 Alpha  occ. eigenvalues --   -0.39216  -0.39034  -0.38395  -0.38136  -0.37356
 Alpha  occ. eigenvalues --   -0.37188  -0.36764  -0.36504  -0.36107  -0.35740
 Alpha  occ. eigenvalues --   -0.35553  -0.34749  -0.33684  -0.33096  -0.32325
 Alpha  occ. eigenvalues --   -0.31659  -0.29996  -0.27699  -0.26019  -0.24060
 Alpha  occ. eigenvalues --   -0.21623
 Alpha virt. eigenvalues --   -0.03386   0.00186   0.02985   0.05604   0.07770
 Alpha virt. eigenvalues --    0.08136   0.09331   0.10537   0.10911   0.11508
 Alpha virt. eigenvalues --    0.12116   0.12260   0.12602   0.12619   0.12982

 Mulliken charges:
               1
     1  O   -0.581663
     2  O   -0.551152
     3  C   -0.043715
     4  C   -0.021151
     5  C   -0.114763
     6  C   -0.170590
     7  C    0.134971
     8  C    0.161638
     9  C    0.061020
    10  C    0.058343
    11  C   -0.173892
    12  C   -0.203421
    13  C    0.019215
    14  C    0.055470
    15  C   -0.290282
    16  C   -0.295999
    17  C   -0.272478
    18  C   -0.266576
    19  C   -0.091389
    20  C   -0.141278
    21  C   -0.368849
    22  C   -0.379836
    23  C   -0.126513
    24  C   -0.071473
    25  C    0.071992
    26  C    0.093986
    27  C   -0.356625
    28  C   -0.356406
    29  C   -0.120917
    30  C   -0.128340
    31  C   -0.093077
    32  C   -0.079973
    33  C   -0.081112
    34  C   -0.108513
    35  C    0.154323
    36  C    0.096134
    37  C   -0.389671
    38  C   -0.354913
    39  C   -0.167498
    40  C   -0.144082
    41  C   -0.061678
    42  C   -0.047410
    43  H    0.092961
    44  H    0.074907
    45  H    0.064201
    46  H    0.104797
    47  H    0.050317
    48  H    0.071847
    49  H    0.125807
    50  H    0.118165
    51  H    0.084080
    52  H    0.118757
    53  H    0.099133
    54  H    0.106301
    55  H    0.112098
    56  H    0.086796
    57  H    0.082991
    58  H    0.106370
    59  H    0.091203
    60  H    0.087051
    61  H    0.055943
    62  H    0.106243
    63  H    0.094212
    64  H    0.113841
    65  H    0.090486
    66  H    0.082351
    67  H    0.102337
    68  H    0.104652
    69  H    0.108572
    70  H    0.115194
    71  H    0.104318
    72  H    0.091001
    73  H    0.300819
    74  H    0.293856
    75  H    0.094835
    76  H    0.088345
    77  H    0.111621
    78  H    0.093199
    79  H    0.129280
    80  H    0.136981
    81  H    0.105563
    82  H    0.101125
    83  H    0.087554
    84  H    0.074839
    85  H    0.087241
    86  H    0.078131
    87  H    0.074829
    88  H    0.086244
    89  H    0.098687
    90  H    0.108352
    91  H    0.115113
    92  H    0.125888
    93  H    0.125882
    94  H    0.074257
    95  H    0.072822
    96  H    0.067849
    97  H    0.087627
    98  H    0.080277
 Sum of Mulliken charges =  -0.00000

 Dipole moment (field-independent basis, Debye):
    X=             -0.0243    Y=             -1.2924    Z=              1.6367  Tot=              2.0856
 Quadrupole moment (field-independent basis, Debye-Ang):
   XX=           -301.2020   YY=           -243.5218   ZZ=           -258.3079
   XY=              8.5101   XZ=             -8.0869   YZ=              2.4491

 Normal termination of Gaussian 16 at Thu Jun 27 08:36:58 2019.
