 Gaussian 16, Revision A.03,
 Gaussian 16:  ES64L-G16RevA.03 25-Dec-2016

 -------------------------------------
 # td=(NStates=1) CAM-B3LYP/6-31G(d,p)
 -------------------------------------

 --
 TD
 --
 Symbolic Z-matrix:
 Charge =  0 Multiplicity = 1

                         Standard orientation:
 ---------------------------------------------------------------------
 Center     Atomic      Atomic             Coordinates (Angstroms)
 Number     Number       Type             X           Y           Z
 ---------------------------------------------------------------------
      1          8           0       14.716076   -2.150978   -0.353033
      2          8           0      -14.597138    2.146650    0.729033
      3          6           0       11.445070   -0.977505    1.247711
      4          6           0      -12.406574   -0.883017    0.672689
      5          6           0       12.978455   -1.291727    1.010149
      6          6           0      -13.701558    0.055575    0.687294
      7          6           0       13.306312   -1.863920   -0.300528
      8          6           0      -13.450898    1.466195    0.755550
      9          6           0       10.972763   -0.274279   -0.028578
     10          6           0      -11.326785   -0.287612   -0.124494
     11          6           0       12.934096   -0.864070   -1.244067
     12          6           0      -12.656508    1.946819   -0.424504
     13          6           0       11.654966   -0.184952   -1.155734
     14          6           0      -11.484985    0.919539   -0.741108
     15          6           0       11.425658   -0.056356    2.431267
     16          6           0       10.721737   -2.215710    1.422004
     17          6           0      -11.805732   -1.023464    2.167615
     18          6           0      -12.769761   -2.258794    0.222875
     19          6           0        9.634469    0.360242    0.240598
     20          6           0      -10.094151   -1.100287   -0.352900
     21          6           0       11.130720    0.478222   -2.452552
     22          6           0      -10.668589    1.534015   -1.737777
     23          6           0        9.295983    1.625100   -0.192065
     24          6           0       -8.792239   -0.571015   -0.372780
     25          6           0        8.028715    2.207638   -0.062727
     26          6           0       -7.583522   -1.323355   -0.559780
     27          6           0        8.047973    3.758264    0.131334
     28          6           0       -7.736286   -2.895919   -0.892226
     29          6           0        6.878261    1.469137   -0.040662
     30          6           0       -6.359702   -0.672318   -0.437910
     31          6           0        5.504966    1.872582    0.170068
     32          6           0       -5.099861   -1.294443   -0.566807
     33          6           0        4.419789    1.100615    0.002911
     34          6           0       -3.992272   -0.529334   -0.203183
     35          6           0        3.121309    1.580222    0.141533
     36          6           0       -2.593911   -0.914688   -0.227521
     37          6           0        2.749132    2.982112    0.568800
     38          6           0       -2.358223   -2.297883   -0.761181
     39          6           0        2.164998    0.582206   -0.005018
     40          6           0       -1.608062   -0.013682   -0.095947
     41          6           0        0.718503    0.769770    0.115450
     42          6           0       -0.218152   -0.144237   -0.208427
     43          1           0       13.573745   -0.354903    1.256572
     44          1           0       13.339468   -2.050770    1.834359
     45          1           0      -14.502833   -0.305644    1.419358
     46          1           0      -14.213614   -0.298855   -0.315803
     47          1           0       12.760628   -2.770089   -0.567201
     48          1           0      -12.903718    1.526061    1.809429
     49          1           0       13.721778    0.011109   -1.250262
     50          1           0       12.931454   -1.443879   -2.358468
     51          1           0      -13.376810    1.953756   -1.234409
     52          1           0      -12.207225    3.100394   -0.323187
     53          1           0       11.998172   -0.508115    3.363024
     54          1           0       10.399092    0.122601    2.804297
     55          1           0       11.788254    0.891637    2.194448
     56          1           0       10.896781   -3.025214    0.551584
     57          1           0       10.949686   -2.716413    2.368400
     58          1           0        9.433133   -1.994248    1.636177
     59          1           0      -11.190909   -0.087411    2.454290
     60          1           0      -11.127862   -1.997351    2.429750
     61          1           0      -12.756479   -1.114273    2.974384
     62          1           0      -13.661951   -2.722008    0.699305
     63          1           0      -11.797257   -2.750048    0.520061
     64          1           0      -12.959140   -2.251617   -0.977263
     65          1           0        8.926842   -0.284725    0.821092
     66          1           0      -10.105580   -2.167257   -0.466527
     67          1           0       10.036006    0.869763   -2.469563
     68          1           0       11.743792    1.448183   -2.769225
     69          1           0       11.144763   -0.244678   -3.236447
     70          1           0      -11.408918    1.945583   -2.341640
     71          1           0      -10.039630    0.700639   -2.313033
     72          1           0       -9.933691    2.349988   -1.289867
     73          1           0       15.068015   -2.750289    0.543601
     74          1           0      -15.425974    1.821338    1.299583
     75          1           0       10.061049    2.428145   -0.426684
     76          1           0       -8.868586    0.582068   -0.085892
     77          1           0        8.578869    4.266364   -0.620925
     78          1           0        7.117763    3.962119    0.087569
     79          1           0        8.515833    3.866452    1.036471
     80          1           0       -8.384565   -3.416205   -0.228475
     81          1           0       -8.297561   -2.781487   -1.794527
     82          1           0       -6.728433   -3.282949   -0.792224
     83          1           0        6.811742    0.386746   -0.353714
     84          1           0       -6.537416    0.364144   -0.310708
     85          1           0        5.322679    2.814462    0.307403
     86          1           0       -4.915881   -2.248347   -1.054520
     87          1           0        4.679291    0.077870   -0.341904
     88          1           0       -4.125859    0.538712    0.183487
     89          1           0        3.138483    3.353645    1.590054
     90          1           0        1.665605    3.146770    0.869147
     91          1           0        3.003153    3.665265   -0.509139
     92          1           0       -2.857269   -3.222645   -0.202644
     93          1           0       -2.641397   -2.405681   -1.864336
     94          1           0       -1.248342   -2.773927   -0.536483
     95          1           0        2.593421   -0.414853   -0.184227
     96          1           0       -2.032059    1.005529    0.366002
     97          1           0        0.154533    1.715854    0.515956
     98          1           0        0.386779   -1.114817   -0.520737
 ---------------------------------------------------------------------

 SCF Done:  E(RCAM-B3LYP) =  -1706.93390835     A.U. after   14 cycles

 Excitation energies and oscillator strengths:

 Excited State   1:      Singlet-A      2.5100 eV  493.97 nm  f=3.8579  <S**2>=0.000
     155 ->158        -0.18964
     156 ->157         0.67552
 This state for optimization and/or second-order correction.
 Total Energy, E(TD-HF/TD-DFT) =  -1706.84166918
 Copying the excited state density for this state as the 1-particle RhoCI density.

 The electronic state is 1-A.
 Alpha  occ. eigenvalues --  -19.21853 -19.21225 -10.29912 -10.29646 -10.28896
 Alpha  occ. eigenvalues --  -10.27684 -10.27644 -10.27487 -10.27450 -10.27368
 Alpha  occ. eigenvalues --  -10.27349 -10.27292 -10.27198 -10.27195 -10.27068
 Alpha  occ. eigenvalues --  -10.26993 -10.26896 -10.26868 -10.26772 -10.26693
 Alpha  occ. eigenvalues --  -10.26660 -10.26641 -10.26565 -10.26548 -10.26432
 Alpha  occ. eigenvalues --  -10.26385 -10.26054 -10.25952 -10.25924 -10.25834
 Alpha  occ. eigenvalues --  -10.25819 -10.25808 -10.25787 -10.25776 -10.25597
 Alpha  occ. eigenvalues --  -10.25522 -10.25518 -10.25481 -10.25006 -10.24917
 Alpha  occ. eigenvalues --  -10.24234 -10.23273  -1.10781  -1.06620  -0.94880
 Alpha  occ. eigenvalues --   -0.93370  -0.92474  -0.91651  -0.90462  -0.89712
 Alpha  occ. eigenvalues --   -0.88058  -0.87164  -0.86808  -0.85324  -0.84635
 Alpha  occ. eigenvalues --   -0.83392  -0.82203  -0.80375  -0.79361  -0.77436
 Alpha  occ. eigenvalues --   -0.76742  -0.76459  -0.76211  -0.75630  -0.74940
 Alpha  occ. eigenvalues --   -0.74818  -0.74716  -0.73947  -0.73109  -0.70826
 Alpha  occ. eigenvalues --   -0.69324  -0.66951  -0.65516  -0.64582  -0.63822
 Alpha  occ. eigenvalues --   -0.63310  -0.62630  -0.61833  -0.60372  -0.59634
 Alpha  occ. eigenvalues --   -0.58863  -0.58453  -0.58019  -0.57279  -0.55810
 Alpha  occ. eigenvalues --   -0.55727  -0.54735  -0.54347  -0.54229  -0.53373
 Alpha  occ. eigenvalues --   -0.52743  -0.52599  -0.52188  -0.51528  -0.51177
 Alpha  occ. eigenvalues --   -0.50997  -0.50409  -0.50098  -0.49628  -0.49147
 Alpha  occ. eigenvalues --   -0.49069  -0.48770  -0.48409  -0.48068  -0.47942
 Alpha  occ. eigenvalues --   -0.47781  -0.47118  -0.46967  -0.46399  -0.45910
 Alpha  occ. eigenvalues --   -0.45778  -0.45401  -0.45195  -0.44956  -0.44360
 Alpha  occ. eigenvalues --   -0.43937  -0.43789  -0.43423  -0.43270  -0.43028
 Alpha  occ. eigenvalues --   -0.42762  -0.42280  -0.42143  -0.41995  -0.41212
 Alpha  occ. eigenvalues --   -0.41114  -0.40798  -0.40672  -0.40360  -0.40060
 Alpha  occ. eigenvalues --   -0.39787  -0.39780  -0.39678  -0.39332  -0.39282
 Alpha  occ. eigenvalues --   -0.38981  -0.38819  -0.38231  -0.37975  -0.37789
 Alpha  occ. eigenvalues --   -0.37329  -0.37003  -0.36618  -0.36245  -0.35256
 Alpha  occ. eigenvalues --   -0.34688  -0.34301  -0.33821  -0.32090  -0.31944
 Alpha  occ. eigenvalues --   -0.31175  -0.30139  -0.28392  -0.26406  -0.23080
 Alpha  occ. eigenvalues --   -0.20232
 Alpha virt. eigenvalues --   -0.04839  -0.01080   0.02354   0.05805   0.08388
 Alpha virt. eigenvalues --    0.08615   0.09734   0.10601   0.11054   0.11397
 Alpha virt. eigenvalues --    0.11918   0.12343   0.12474   0.12514   0.13312

 Mulliken charges:
               1
     1  O   -0.585473
     2  O   -0.565751
     3  C    0.003037
     4  C   -0.030662
     5  C   -0.205511
     6  C   -0.198835
     7  C    0.221491
     8  C    0.238831
     9  C    0.049637
    10  C    0.107373
    11  C   -0.219538
    12  C   -0.220404
    13  C    0.079904
    14  C    0.037439
    15  C   -0.298847
    16  C   -0.270981
    17  C   -0.291520
    18  C   -0.280661
    19  C   -0.115428
    20  C   -0.152932
    21  C   -0.353607
    22  C   -0.348801
    23  C   -0.105650
    24  C   -0.098802
    25  C    0.039587
    26  C    0.048644
    27  C   -0.343487
    28  C   -0.361398
    29  C   -0.122812
    30  C   -0.098185
    31  C   -0.070335
    32  C   -0.097758
    33  C   -0.112993
    34  C   -0.118949
    35  C    0.139346
    36  C    0.143250
    37  C   -0.355560
    38  C   -0.381370
    39  C   -0.151664
    40  C   -0.139883
    41  C   -0.082183
    42  C   -0.064835
    43  H    0.104605
    44  H    0.049715
    45  H    0.070798
    46  H    0.071586
    47  H    0.086615
    48  H    0.046487
    49  H    0.111492
    50  H    0.068348
    51  H    0.126628
    52  H    0.092013
    53  H    0.085464
    54  H    0.099949
    55  H    0.118885
    56  H    0.096062
    57  H    0.107190
    58  H    0.051620
    59  H    0.108717
    60  H    0.088349
    61  H    0.063197
    62  H    0.104111
    63  H    0.098105
    64  H    0.082078
    65  H    0.098532
    66  H    0.080290
    67  H    0.119577
    68  H    0.097635
    69  H    0.117805
    70  H    0.117119
    71  H    0.101101
    72  H    0.099928
    73  H    0.304787
    74  H    0.311873
    75  H    0.082193
    76  H    0.082961
    77  H    0.118831
    78  H    0.116505
    79  H    0.133418
    80  H    0.125663
    81  H    0.137554
    82  H    0.112512
    83  H    0.071193
    84  H    0.089600
    85  H    0.060510
    86  H    0.104962
    87  H    0.080551
    88  H    0.076020
    89  H    0.121848
    90  H    0.116153
    91  H    0.094349
    92  H    0.100738
    93  H    0.125164
    94  H    0.088149
    95  H    0.091849
    96  H    0.072623
    97  H    0.076175
    98  H    0.076092
 Sum of Mulliken charges =  -0.00000

 Dipole moment (field-independent basis, Debye):
    X=              0.2641    Y=             -0.7850    Z=              1.9236  Tot=              2.0943
 Quadrupole moment (field-independent basis, Debye-Ang):
   XX=           -253.2352   YY=           -248.2302   ZZ=           -263.0441
   XY=             12.3641   XZ=             10.3650   YZ=             -0.2411

 Normal termination of Gaussian 16 at Wed Jul  3 03:44:48 2019.
