 Gaussian 16, Revision A.03,
 Gaussian 16:  ES64L-G16RevA.03 25-Dec-2016

 -------------------------------------
 # td=(NStates=1) CAM-B3LYP/6-31G(d,p)
 -------------------------------------

 --
 TD
 --
 Symbolic Z-matrix:
 Charge =  0 Multiplicity = 1

                         Standard orientation:
 ---------------------------------------------------------------------
 Center     Atomic      Atomic             Coordinates (Angstroms)
 Number     Number       Type             X           Y           Z
 ---------------------------------------------------------------------
      1          8           0       14.810157   -2.125185   -0.165793
      2          8           0      -14.455007    2.260789    0.932764
      3          6           0       11.356481   -1.065189    1.208224
      4          6           0      -12.270736   -0.768578    0.978805
      5          6           0       12.832499   -1.354309    1.266934
      6          6           0      -13.527652    0.046684    1.086335
      7          6           0       13.360859   -1.844032   -0.147840
      8          6           0      -13.250600    1.585504    0.967764
      9          6           0       10.960733   -0.192605    0.038775
     10          6           0      -11.270260   -0.281508   -0.059787
     11          6           0       13.058346   -0.763235   -1.135388
     12          6           0      -12.687471    1.791637   -0.430504
     13          6           0       11.775891   -0.079172   -1.025663
     14          6           0      -11.491291    0.930042   -0.738102
     15          6           0       11.157890   -0.375148    2.688563
     16          6           0       10.559875   -2.408896    1.307212
     17          6           0      -11.487991   -0.756361    2.289044
     18          6           0      -12.575979   -2.228595    0.602980
     19          6           0        9.642047    0.356550    0.155111
     20          6           0      -10.264558   -1.157724   -0.428592
     21          6           0       11.260396    0.714698   -2.248012
     22          6           0      -10.603647    1.330248   -1.921676
     23          6           0        9.289356    1.569740   -0.264005
     24          6           0       -8.908512   -0.693255   -0.354580
     25          6           0        8.014872    2.263559   -0.058618
     26          6           0       -7.682338   -1.420687   -0.634313
     27          6           0        7.961170    3.786637    0.264598
     28          6           0       -7.793069   -2.848767   -1.088596
     29          6           0        6.831551    1.557436   -0.031970
     30          6           0       -6.441122   -0.811129   -0.485151
     31          6           0        5.551600    2.049130    0.087511
     32          6           0       -5.124040   -1.192171   -0.728610
     33          6           0        4.460737    1.249268   -0.033614
     34          6           0       -4.018909   -0.483840   -0.375600
     35          6           0        2.931391    1.564420    0.097268
     36          6           0       -2.685985   -0.952333   -0.597086
     37          6           0        2.639109    3.046305    0.406015
     38          6           0       -2.360775   -2.392315   -1.051204
     39          6           0        2.073316    0.619527   -0.208768
     40          6           0       -1.575738   -0.160380   -0.307741
     41          6           0        0.611985    0.720282   -0.146132
     42          6           0       -0.136482   -0.266020   -0.524597
     43          1           0       13.390929   -0.288074    1.590206
     44          1           0       13.085298   -2.150571    1.930170
     45          1           0      -14.177875   -0.167790    1.955687
     46          1           0      -14.173263   -0.150841    0.063633
     47          1           0       12.858875   -2.660736   -0.556353
     48          1           0      -12.558559    2.099381    1.774520
     49          1           0       13.930174   -0.096895   -1.042552
     50          1           0       13.077013   -1.164003   -2.040388
     51          1           0      -13.512932    1.705580   -1.279197
     52          1           0      -12.352420    2.739485   -0.725566
     53          1           0       11.319888   -0.990286    3.568615
     54          1           0       10.036238   -0.321240    2.799290
     55          1           0       11.688488    0.575405    2.445619
     56          1           0       10.590108   -3.060127    0.427285
     57          1           0       10.849151   -2.914186    2.167150
     58          1           0        9.602838   -2.088079    1.444684
     59          1           0      -11.209767    0.242302    2.575761
     60          1           0      -10.487506   -1.269274    2.066135
     61          1           0      -12.072992   -1.386607    3.185844
     62          1           0      -13.373367   -2.698357    1.197783
     63          1           0      -11.756025   -2.897627    0.516385
     64          1           0      -13.252899   -2.587378   -0.317875
     65          1           0        8.966371   -0.209808    0.665476
     66          1           0      -10.587329   -2.176353   -0.609913
     67          1           0       10.170029    0.741101   -2.247485
     68          1           0       11.675045    1.738519   -2.263458
     69          1           0       11.547918    0.259947   -3.283267
     70          1           0      -11.133490    1.630573   -2.644213
     71          1           0       -9.838725    0.566014   -2.415219
     72          1           0      -10.025607    2.071301   -1.454286
     73          1           0       15.062610   -2.684886    0.538527
     74          1           0      -15.117607    1.954825    1.695055
     75          1           0       10.001019    2.200230   -0.468853
     76          1           0       -8.923196    0.392895    0.202098
     77          1           0        8.818540    4.368140   -0.453721
     78          1           0        6.976291    4.184516    0.120624
     79          1           0        8.129438    3.685907    1.314039
     80          1           0       -8.432133   -3.265160   -0.398112
     81          1           0       -8.074366   -2.995598   -2.235283
     82          1           0       -6.708946   -3.290325   -1.060545
     83          1           0        6.836723    0.552585   -0.407154
     84          1           0       -6.610265    0.231368    0.003022
     85          1           0        5.306327    3.179370    0.290988
     86          1           0       -4.927115   -2.229845   -1.415723
     87          1           0        4.580796    0.165475   -0.405466
     88          1           0       -4.302835    0.514515    0.141781
     89          1           0        3.177007    3.306418    1.340585
     90          1           0        1.483964    3.074449    0.652718
     91          1           0        2.799837    3.792512   -0.564462
     92          1           0       -2.850068   -3.073646   -0.357220
     93          1           0       -2.897662   -2.554383   -1.930090
     94          1           0       -1.293860   -2.604096   -1.387097
     95          1           0        2.414852   -0.431274   -0.447244
     96          1           0       -1.978801    0.844568    0.092563
     97          1           0        0.238912    1.664775    0.019392
     98          1           0        0.136021   -1.272058   -1.024599
 ---------------------------------------------------------------------

 SCF Done:  E(RCAM-B3LYP) =  -1706.96812122     A.U. after   14 cycles

 Excitation energies and oscillator strengths:

 Excited State   1:      Singlet-A      2.6943 eV  460.18 nm  f=3.6891  <S**2>=0.000
     155 ->158        -0.20403
     156 ->157         0.66851
 This state for optimization and/or second-order correction.
 Total Energy, E(TD-HF/TD-DFT) =  -1706.86910863
 Copying the excited state density for this state as the 1-particle RhoCI density.

 The electronic state is 1-A.
 Alpha  occ. eigenvalues --  -19.21675 -19.20259 -10.31693 -10.29646 -10.28218
 Alpha  occ. eigenvalues --  -10.27639 -10.27635 -10.27610 -10.27547 -10.27469
 Alpha  occ. eigenvalues --  -10.27428 -10.27240 -10.27233 -10.27230 -10.26986
 Alpha  occ. eigenvalues --  -10.26927 -10.26867 -10.26810 -10.26781 -10.26731
 Alpha  occ. eigenvalues --  -10.26460 -10.26397 -10.26360 -10.26060 -10.26025
 Alpha  occ. eigenvalues --  -10.25982 -10.25862 -10.25675 -10.25594 -10.25536
 Alpha  occ. eigenvalues --  -10.25495 -10.25468 -10.25406 -10.25399 -10.25172
 Alpha  occ. eigenvalues --  -10.25000 -10.24856 -10.24660 -10.24494 -10.23497
 Alpha  occ. eigenvalues --  -10.23405 -10.23390  -1.09428  -1.07696  -0.94281
 Alpha  occ. eigenvalues --   -0.93922  -0.91834  -0.91136  -0.90516  -0.89119
 Alpha  occ. eigenvalues --   -0.87587  -0.87212  -0.86867  -0.86053  -0.84938
 Alpha  occ. eigenvalues --   -0.83225  -0.82215  -0.80055  -0.79420  -0.77284
 Alpha  occ. eigenvalues --   -0.76925  -0.76236  -0.76107  -0.76042  -0.75675
 Alpha  occ. eigenvalues --   -0.75068  -0.74818  -0.74492  -0.73546  -0.70527
 Alpha  occ. eigenvalues --   -0.69781  -0.67640  -0.66161  -0.65482  -0.64334
 Alpha  occ. eigenvalues --   -0.63976  -0.62898  -0.61824  -0.60010  -0.58910
 Alpha  occ. eigenvalues --   -0.58338  -0.58172  -0.57535  -0.56707  -0.55753
 Alpha  occ. eigenvalues --   -0.55561  -0.55381  -0.55046  -0.54598  -0.53450
 Alpha  occ. eigenvalues --   -0.52900  -0.52205  -0.51915  -0.51588  -0.51283
 Alpha  occ. eigenvalues --   -0.50579  -0.50387  -0.49879  -0.49589  -0.49285
 Alpha  occ. eigenvalues --   -0.48956  -0.48805  -0.48610  -0.48534  -0.48167
 Alpha  occ. eigenvalues --   -0.48039  -0.47699  -0.47009  -0.46773  -0.46457
 Alpha  occ. eigenvalues --   -0.46361  -0.46080  -0.45582  -0.45206  -0.45025
 Alpha  occ. eigenvalues --   -0.44649  -0.44056  -0.43614  -0.43169  -0.43096
 Alpha  occ. eigenvalues --   -0.42839  -0.42683  -0.42486  -0.41983  -0.41964
 Alpha  occ. eigenvalues --   -0.41650  -0.41425  -0.41350  -0.40765  -0.40703
 Alpha  occ. eigenvalues --   -0.40065  -0.39762  -0.39588  -0.39564  -0.39259
 Alpha  occ. eigenvalues --   -0.38869  -0.38452  -0.38201  -0.37970  -0.37787
 Alpha  occ. eigenvalues --   -0.37616  -0.37299  -0.37053  -0.36646  -0.35309
 Alpha  occ. eigenvalues --   -0.34780  -0.34444  -0.34028  -0.32469  -0.31998
 Alpha  occ. eigenvalues --   -0.31594  -0.29619  -0.28246  -0.25976  -0.22874
 Alpha  occ. eigenvalues --   -0.20503
 Alpha virt. eigenvalues --   -0.04174  -0.01071   0.02709   0.05977   0.07830
 Alpha virt. eigenvalues --    0.09599   0.10772   0.11155   0.11452   0.12393
 Alpha virt. eigenvalues --    0.12433   0.12602   0.13296   0.13329   0.13834

 Mulliken charges:
               1
     1  O   -0.579963
     2  O   -0.562434
     3  C   -0.065866
     4  C    0.018602
     5  C   -0.168101
     6  C   -0.205032
     7  C    0.158799
     8  C    0.197741
     9  C    0.081509
    10  C    0.052388
    11  C   -0.214025
    12  C   -0.213555
    13  C    0.049213
    14  C    0.021104
    15  C   -0.301719
    16  C   -0.299471
    17  C   -0.283876
    18  C   -0.327115
    19  C   -0.083579
    20  C   -0.133010
    21  C   -0.373139
    22  C   -0.337567
    23  C   -0.091733
    24  C   -0.123983
    25  C    0.025371
    26  C    0.093818
    27  C   -0.346747
    28  C   -0.352274
    29  C   -0.105920
    30  C   -0.126324
    31  C   -0.074517
    32  C   -0.074011
    33  C   -0.132083
    34  C   -0.109970
    35  C    0.100784
    36  C    0.088957
    37  C   -0.358657
    38  C   -0.374092
    39  C   -0.126962
    40  C   -0.142405
    41  C   -0.069410
    42  C   -0.057523
    43  H    0.069650
    44  H    0.080891
    45  H    0.081637
    46  H    0.091353
    47  H    0.091116
    48  H    0.071235
    49  H    0.125219
    50  H    0.113328
    51  H    0.108755
    52  H    0.109004
    53  H    0.111500
    54  H    0.084088
    55  H    0.111307
    56  H    0.100230
    57  H    0.105389
    58  H    0.106621
    59  H    0.108633
    60  H    0.104012
    61  H    0.068896
    62  H    0.095475
    63  H    0.112264
    64  H    0.081736
    65  H    0.086514
    66  H    0.101406
    67  H    0.134723
    68  H    0.117855
    69  H    0.086566
    70  H    0.112880
    71  H    0.110787
    72  H    0.122797
    73  H    0.301506
    74  H    0.305744
    75  H    0.074137
    76  H    0.081705
    77  H    0.089490
    78  H    0.122929
    79  H    0.145203
    80  H    0.127588
    81  H    0.107381
    82  H    0.096544
    83  H    0.082359
    84  H    0.067454
    85  H    0.076940
    86  H    0.066458
    87  H    0.068148
    88  H    0.094567
    89  H    0.128867
    90  H    0.092707
    91  H    0.113210
    92  H    0.128873
    93  H    0.125069
    94  H    0.103897
    95  H    0.082222
    96  H    0.059699
    97  H    0.091872
    98  H    0.086342
 Sum of Mulliken charges =  -0.00000

 Dipole moment (field-independent basis, Debye):
    X=             -1.3724    Y=             -1.1846    Z=              1.4081  Tot=              2.2956
 Quadrupole moment (field-independent basis, Debye-Ang):
   XX=           -264.0257   YY=           -247.9074   ZZ=           -258.4730
   XY=              7.4817   XZ=              2.2542   YZ=              1.1802

 Normal termination of Gaussian 16 at Sun Jun 30 12:06:14 2019.
