 Gaussian 16, Revision A.03,
 Gaussian 16:  ES64L-G16RevA.03 25-Dec-2016

 -------------------------------------
 # td=(NStates=1) CAM-B3LYP/6-31G(d,p)
 -------------------------------------

 --
 TD
 --
 Symbolic Z-matrix:
 Charge =  0 Multiplicity = 1

                         Standard orientation:
 ---------------------------------------------------------------------
 Center     Atomic      Atomic             Coordinates (Angstroms)
 Number     Number       Type             X           Y           Z
 ---------------------------------------------------------------------
      1          8           0       14.631158   -2.273389   -0.448332
      2          8           0      -14.800408    1.936003    0.686362
      3          6           0       11.345256   -1.233134    1.241621
      4          6           0      -12.261720   -0.896924    0.902908
      5          6           0       12.844558   -1.553695    1.059502
      6          6           0      -13.651623   -0.269442    0.784668
      7          6           0       13.201739   -2.027148   -0.250641
      8          6           0      -13.560307    1.361093    0.774002
      9          6           0       10.890138   -0.282190    0.072040
     10          6           0      -11.313879   -0.368452   -0.154602
     11          6           0       12.934270   -0.884883   -1.364174
     12          6           0      -12.801734    1.577867   -0.480723
     13          6           0       11.635585   -0.166212   -1.072650
     14          6           0      -11.452442    0.881778   -0.751486
     15          6           0       11.010259   -0.637777    2.656074
     16          6           0       10.463537   -2.558629    1.077664
     17          6           0      -11.608217   -0.869331    2.361293
     18          6           0      -12.545667   -2.411948    0.614026
     19          6           0        9.661172    0.406761    0.338874
     20          6           0       -9.994083   -1.051044   -0.368629
     21          6           0       11.094661    0.655658   -2.206812
     22          6           0      -10.658299    1.528832   -1.746855
     23          6           0        9.235778    1.664605    0.008314
     24          6           0       -8.795566   -0.551357   -0.281582
     25          6           0        7.995325    2.327340    0.175262
     26          6           0       -7.521424   -1.337409   -0.513914
     27          6           0        8.118637    3.734582    0.654029
     28          6           0       -7.598071   -2.846703   -0.787168
     29          6           0        6.880738    1.668997   -0.087026
     30          6           0       -6.371696   -0.631734   -0.558923
     31          6           0        5.515679    2.093902    0.113032
     32          6           0       -5.034564   -1.145005   -0.609165
     33          6           0        4.426857    1.352008   -0.058087
     34          6           0       -3.865645   -0.332660   -0.564346
     35          6           0        3.060523    1.756436    0.179297
     36          6           0       -2.548997   -0.781135   -0.642952
     37          6           0        2.828815    3.136918    0.688691
     38          6           0       -2.246620   -2.201133   -1.037030
     39          6           0        2.126914    0.919879   -0.205608
     40          6           0       -1.604559    0.166999   -0.427436
     41          6           0        0.736996    1.124692   -0.161448
     42          6           0       -0.105556    0.104153   -0.554684
     43          1           0       13.404850   -0.570195    1.430107
     44          1           0       13.291765   -2.375960    1.635360
     45          1           0      -14.217102   -0.541894    1.703467
     46          1           0      -14.394537   -0.466403   -0.032825
     47          1           0       12.787715   -2.958341   -0.449139
     48          1           0      -12.776506    1.752352    1.597827
     49          1           0       13.770728   -0.111016   -1.404718
     50          1           0       12.986760   -1.419656   -2.342481
     51          1           0      -13.468944    1.573927   -1.370729
     52          1           0      -12.602209    2.714692   -0.370689
     53          1           0       11.472334   -1.321183    3.466155
     54          1           0        9.926098   -0.584520    2.710403
     55          1           0       11.407091    0.465417    3.086398
     56          1           0       10.645597   -3.043898    0.051973
     57          1           0       10.828551   -3.201861    1.883106
     58          1           0        9.203026   -2.373288    1.121070
     59          1           0      -11.341527    0.309326    2.499897
     60          1           0      -10.633041   -1.562318    2.395239
     61          1           0      -12.491836   -1.294653    3.154378
     62          1           0      -13.081790   -2.817202    1.495651
     63          1           0      -11.609188   -2.972661    0.539668
     64          1           0      -13.032075   -2.612103   -0.498158
     65          1           0        8.967868   -0.027984    0.855466
     66          1           0      -10.263349   -2.191800   -0.435631
     67          1           0        9.949126    0.793674   -2.237019
     68          1           0       11.577309    1.674505   -2.396385
     69          1           0       11.474596    0.322252   -3.245463
     70          1           0      -11.099430    1.810700   -2.707176
     71          1           0       -9.704582    0.918584   -2.177928
     72          1           0      -10.283997    2.367088   -1.298233
     73          1           0       14.796419   -2.877561    0.487639
     74          1           0      -15.399114    1.383993    1.390198
     75          1           0        9.961030    2.455976   -0.275402
     76          1           0       -8.572218    0.441841   -0.029718
     77          1           0        9.023848    4.220612    0.070641
     78          1           0        7.246522    4.292587    0.779723
     79          1           0        8.741451    3.883328    1.583021
     80          1           0       -8.042227   -3.372158    0.029476
     81          1           0       -8.136133   -3.312358   -1.650198
     82          1           0       -6.560455   -3.261058   -0.810637
     83          1           0        6.880120    0.787535   -0.731804
     84          1           0       -6.458810    0.528138   -0.502066
     85          1           0        5.357942    3.193581    0.290366
     86          1           0       -4.636019   -2.245811   -0.687245
     87          1           0        4.667760    0.322494   -0.362237
     88          1           0       -3.935780    0.714688   -0.415698
     89          1           0        3.458655    3.169797    1.639755
     90          1           0        1.654555    3.508818    0.673791
     91          1           0        3.267070    3.852017    0.072910
     92          1           0       -2.823907   -2.967928   -0.454869
     93          1           0       -2.723217   -2.533193   -1.977328
     94          1           0       -1.242022   -2.379825   -1.169905
     95          1           0        2.478839   -0.185361   -0.631299
     96          1           0       -2.009835    1.270455   -0.236001
     97          1           0        0.423474    1.908087    0.280259
     98          1           0        0.442152   -0.902533   -0.819352
 ---------------------------------------------------------------------

 SCF Done:  E(RCAM-B3LYP) =  -1706.96449380     A.U. after   14 cycles

 Excitation energies and oscillator strengths:

 Excited State   1:      Singlet-A      2.7931 eV  443.89 nm  f=3.7146  <S**2>=0.000
     155 ->158        -0.17949
     156 ->157         0.67746
 This state for optimization and/or second-order correction.
 Total Energy, E(TD-HF/TD-DFT) =  -1706.86184752
 Copying the excited state density for this state as the 1-particle RhoCI density.

 The electronic state is 1-A.
 Alpha  occ. eigenvalues --  -19.23283 -19.22034 -10.30946 -10.29877 -10.29182
 Alpha  occ. eigenvalues --  -10.29121 -10.28337 -10.28037 -10.27652 -10.27603
 Alpha  occ. eigenvalues --  -10.27543 -10.27398 -10.27098 -10.27049 -10.27007
 Alpha  occ. eigenvalues --  -10.26982 -10.26857 -10.26805 -10.26553 -10.26492
 Alpha  occ. eigenvalues --  -10.26405 -10.26404 -10.26386 -10.26295 -10.26291
 Alpha  occ. eigenvalues --  -10.26115 -10.26011 -10.25963 -10.25868 -10.25703
 Alpha  occ. eigenvalues --  -10.25700 -10.25634 -10.25580 -10.25554 -10.25547
 Alpha  occ. eigenvalues --  -10.25542 -10.25372 -10.25315 -10.25137 -10.24905
 Alpha  occ. eigenvalues --  -10.24800 -10.24759  -1.10360  -1.06496  -0.93365
 Alpha  occ. eigenvalues --   -0.92945  -0.92729  -0.91787  -0.91229  -0.89714
 Alpha  occ. eigenvalues --   -0.87414  -0.86880  -0.86298  -0.85053  -0.84662
 Alpha  occ. eigenvalues --   -0.83031  -0.81608  -0.80187  -0.79866  -0.78530
 Alpha  occ. eigenvalues --   -0.76945  -0.76765  -0.76225  -0.75390  -0.75249
 Alpha  occ. eigenvalues --   -0.74605  -0.74475  -0.74232  -0.73688  -0.70792
 Alpha  occ. eigenvalues --   -0.69206  -0.66970  -0.65793  -0.64828  -0.63698
 Alpha  occ. eigenvalues --   -0.63096  -0.62591  -0.62087  -0.60150  -0.60027
 Alpha  occ. eigenvalues --   -0.59827  -0.57804  -0.57633  -0.57183  -0.56199
 Alpha  occ. eigenvalues --   -0.55801  -0.55349  -0.55124  -0.54170  -0.53357
 Alpha  occ. eigenvalues --   -0.53135  -0.52618  -0.51718  -0.51525  -0.50924
 Alpha  occ. eigenvalues --   -0.50469  -0.50123  -0.49135  -0.48991  -0.48789
 Alpha  occ. eigenvalues --   -0.48483  -0.48339  -0.47662  -0.47551  -0.47162
 Alpha  occ. eigenvalues --   -0.47064  -0.46958  -0.46882  -0.46730  -0.46503
 Alpha  occ. eigenvalues --   -0.45974  -0.45778  -0.45575  -0.45531  -0.45223
 Alpha  occ. eigenvalues --   -0.44852  -0.44456  -0.44045  -0.43543  -0.43447
 Alpha  occ. eigenvalues --   -0.43191  -0.42853  -0.42476  -0.42369  -0.42166
 Alpha  occ. eigenvalues --   -0.41293  -0.41199  -0.41069  -0.40975  -0.40712
 Alpha  occ. eigenvalues --   -0.40423  -0.40057  -0.40019  -0.39830  -0.39549
 Alpha  occ. eigenvalues --   -0.39242  -0.38852  -0.38825  -0.38138  -0.37870
 Alpha  occ. eigenvalues --   -0.37643  -0.37540  -0.36743  -0.36020  -0.35393
 Alpha  occ. eigenvalues --   -0.35047  -0.34319  -0.33384  -0.32695  -0.32396
 Alpha  occ. eigenvalues --   -0.30996  -0.29993  -0.27814  -0.26262  -0.23867
 Alpha  occ. eigenvalues --   -0.20817
 Alpha virt. eigenvalues --   -0.04040  -0.00271   0.02806   0.05576   0.07731
 Alpha virt. eigenvalues --    0.08771   0.09801   0.10040   0.10835   0.11846
 Alpha virt. eigenvalues --    0.11879   0.12290   0.12532   0.12769   0.13468

 Mulliken charges:
               1
     1  O   -0.561704
     2  O   -0.549090
     3  C   -0.025046
     4  C   -0.016777
     5  C   -0.176468
     6  C   -0.200355
     7  C    0.162910
     8  C    0.185190
     9  C    0.089238
    10  C    0.052145
    11  C   -0.229372
    12  C   -0.225827
    13  C    0.074770
    14  C    0.076196
    15  C   -0.291950
    16  C   -0.294983
    17  C   -0.269257
    18  C   -0.294287
    19  C   -0.101995
    20  C   -0.139276
    21  C   -0.374818
    22  C   -0.372881
    23  C   -0.130463
    24  C   -0.072018
    25  C    0.131931
    26  C    0.114862
    27  C   -0.382408
    28  C   -0.378655
    29  C   -0.144318
    30  C   -0.139685
    31  C   -0.096589
    32  C   -0.096864
    33  C   -0.106357
    34  C   -0.119127
    35  C    0.128170
    36  C    0.181207
    37  C   -0.377090
    38  C   -0.390969
    39  C   -0.129309
    40  C   -0.174820
    41  C   -0.027928
    42  C   -0.109705
    43  H    0.103169
    44  H    0.058405
    45  H    0.062178
    46  H    0.111095
    47  H    0.101872
    48  H    0.052311
    49  H    0.125722
    50  H    0.115211
    51  H    0.111868
    52  H    0.080186
    53  H    0.092710
    54  H    0.114490
    55  H    0.083425
    56  H    0.108570
    57  H    0.107361
    58  H    0.081210
    59  H    0.096960
    60  H    0.112113
    61  H    0.077895
    62  H    0.099149
    63  H    0.094631
    64  H    0.085122
    65  H    0.072359
    66  H    0.073279
    67  H    0.122800
    68  H    0.103694
    69  H    0.087348
    70  H    0.119234
    71  H    0.101486
    72  H    0.130852
    73  H    0.278806
    74  H    0.317620
    75  H    0.068956
    76  H    0.084691
    77  H    0.106997
    78  H    0.122172
    79  H    0.121051
    80  H    0.119395
    81  H    0.122221
    82  H    0.104391
    83  H    0.089675
    84  H    0.084820
    85  H    0.066255
    86  H    0.070649
    87  H    0.076281
    88  H    0.073637
    89  H    0.122957
    90  H    0.094021
    91  H    0.139886
    92  H    0.118640
    93  H    0.125856
    94  H    0.117994
    95  H    0.064174
    96  H    0.078439
    97  H    0.065600
    98  H    0.081882
 Sum of Mulliken charges =  -0.00000

 Dipole moment (field-independent basis, Debye):
    X=             -0.4953    Y=             -1.1097    Z=              1.9908  Tot=              2.3324
 Quadrupole moment (field-independent basis, Debye-Ang):
   XX=           -275.4193   YY=           -245.6984   ZZ=           -262.3683
   XY=             17.6272   XZ=              6.1942   YZ=             -0.4622

 Normal termination of Gaussian 16 at Sun Jul  7 13:35:50 2019.
