 Gaussian 16, Revision A.03,
 Gaussian 16:  ES64L-G16RevA.03 25-Dec-2016

 -------------------------------------
 # td=(NStates=1) CAM-B3LYP/6-31G(d,p)
 -------------------------------------

 --
 TD
 --
 Symbolic Z-matrix:
 Charge =  0 Multiplicity = 1

                         Standard orientation:
 ---------------------------------------------------------------------
 Center     Atomic      Atomic             Coordinates (Angstroms)
 Number     Number       Type             X           Y           Z
 ---------------------------------------------------------------------
      1          8           0       14.619457   -2.443131   -0.437241
      2          8           0      -14.927947    1.929110    0.526080
      3          6           0       11.521827   -0.979698    1.233174
      4          6           0      -12.316085   -0.876547    0.847046
      5          6           0       13.015447   -1.324076    1.123837
      6          6           0      -13.731486   -0.147313    0.804256
      7          6           0       13.329389   -1.990991   -0.262779
      8          6           0      -13.593144    1.283669    0.644481
      9          6           0       11.023128   -0.201435    0.046733
     10          6           0      -11.337374   -0.229353   -0.144864
     11          6           0       12.942909   -1.085050   -1.337879
     12          6           0      -12.828662    1.738613   -0.556582
     13          6           0       11.594145   -0.321726   -1.236680
     14          6           0      -11.643210    0.923734   -0.813668
     15          6           0       11.479689    0.062173    2.560903
     16          6           0       10.674991   -2.178277    1.468088
     17          6           0      -11.754303   -0.761391    2.235846
     18          6           0      -12.770156   -2.332647    0.547542
     19          6           0        9.713789    0.373102    0.175812
     20          6           0      -10.045602   -1.053563   -0.395073
     21          6           0       11.131932    0.226268   -2.502247
     22          6           0      -10.707073    1.406380   -1.841739
     23          6           0        9.326712    1.581313   -0.163181
     24          6           0       -8.827147   -0.589530   -0.218273
     25          6           0        8.045012    2.279437    0.013787
     26          6           0       -7.550526   -1.446849   -0.450633
     27          6           0        8.187731    3.736829    0.194971
     28          6           0       -7.696682   -2.867806   -1.044335
     29          6           0        6.941873    1.584205   -0.175679
     30          6           0       -6.406377   -0.792356   -0.409234
     31          6           0        5.612041    1.996424    0.132312
     32          6           0       -5.022799   -1.196628   -0.478646
     33          6           0        4.586113    1.209733   -0.031171
     34          6           0       -3.964447   -0.395805   -0.337454
     35          6           0        3.164936    1.679662    0.112176
     36          6           0       -2.586279   -0.778088   -0.324574
     37          6           0        2.792207    3.105453    0.385804
     38          6           0       -2.295611   -2.300958   -0.720264
     39          6           0        2.126717    0.756132    0.030368
     40          6           0       -1.625722    0.213766   -0.012473
     41          6           0        0.664280    0.955624    0.127678
     42          6           0       -0.294842   -0.038902   -0.051042
     43          1           0       13.764865   -0.431977    1.204794
     44          1           0       13.319029   -2.007900    1.899821
     45          1           0      -14.300899   -0.541287    1.740974
     46          1           0      -14.092685   -0.553581   -0.236122
     47          1           0       12.469796   -2.634353   -0.173801
     48          1           0      -13.283870    1.761430    1.440950
     49          1           0       13.739025   -0.311537   -1.455349
     50          1           0       12.901708   -1.580034   -2.411121
     51          1           0      -13.552965    1.771800   -1.316625
     52          1           0      -12.509521    2.840470   -0.457881
     53          1           0       11.919189   -0.700407    3.343228
     54          1           0       10.576992    0.162752    2.796524
     55          1           0       12.065524    1.039234    2.243394
     56          1           0       11.119155   -2.881788    0.895059
     57          1           0       10.689959   -2.433320    2.626899
     58          1           0        9.569270   -1.760763    1.227699
     59          1           0      -11.348093    0.319971    2.205492
     60          1           0      -10.920590   -1.291495    2.215564
     61          1           0      -12.634715   -1.077787    2.962511
     62          1           0      -13.519525   -2.758154    1.250031
     63          1           0      -11.764152   -2.828656    0.303090
     64          1           0      -13.363523   -2.485467   -0.355566
     65          1           0        9.031185   -0.146616    0.969934
     66          1           0      -10.243729   -2.008842   -0.727654
     67          1           0       10.044715    0.638310   -2.510450
     68          1           0       11.912218    1.053329   -2.717463
     69          1           0       11.108162   -0.514367   -3.305804
     70          1           0      -11.443857    1.420670   -2.661314
     71          1           0       -9.840082    0.756512   -1.965015
     72          1           0      -10.407507    2.665992   -1.609674
     73          1           0       15.042248   -2.989171    0.432721
     74          1           0      -15.416933    1.762652    1.390875
     75          1           0       10.041146    2.410155   -0.447694
     76          1           0       -8.730458    0.510960    0.013991
     77          1           0        8.589138    4.116865   -0.814759
     78          1           0        7.370685    4.350634    0.395274
     79          1           0        8.707312    4.152678    0.998518
     80          1           0       -8.525561   -3.389699   -0.399322
     81          1           0       -7.990525   -2.887293   -2.130552
     82          1           0       -6.641688   -3.128754   -1.076470
     83          1           0        7.144891    0.511549   -0.408745
     84          1           0       -6.566255    0.198456    0.208179
     85          1           0        5.332372    3.004737    0.574824
     86          1           0       -4.811219   -2.194409   -0.691879
     87          1           0        4.692907    0.140523   -0.570931
     88          1           0       -4.225683    0.601064    0.110035
     89          1           0        3.497675    3.432432    1.148957
     90          1           0        1.736881    3.152200    0.775431
     91          1           0        2.829146    3.773214   -0.541406
     92          1           0       -2.514245   -2.971979    0.219343
     93          1           0       -3.023505   -2.574967   -1.561399
     94          1           0       -1.173340   -2.452607   -0.973359
     95          1           0        2.265569   -0.407468   -0.083344
     96          1           0       -1.947347    1.219877    0.133045
     97          1           0        0.375185    2.052760    0.283556
     98          1           0        0.140383   -1.105539   -0.175789
 ---------------------------------------------------------------------

 SCF Done:  E(RCAM-B3LYP) =  -1706.95530902     A.U. after   14 cycles

 Excitation energies and oscillator strengths:

 Excited State   1:      Singlet-A      2.7446 eV  451.75 nm  f=3.5086  <S**2>=0.000
     155 ->158        -0.14193
     156 ->157         0.68773
 This state for optimization and/or second-order correction.
 Total Energy, E(TD-HF/TD-DFT) =  -1706.85444847
 Copying the excited state density for this state as the 1-particle RhoCI density.

 The electronic state is 1-A.
 Alpha  occ. eigenvalues --  -19.23131 -19.19650 -10.29741 -10.28443 -10.28350
 Alpha  occ. eigenvalues --  -10.28055 -10.28036 -10.27681 -10.27459 -10.27456
 Alpha  occ. eigenvalues --  -10.27292 -10.27075 -10.27022 -10.26938 -10.26845
 Alpha  occ. eigenvalues --  -10.26807 -10.26708 -10.26503 -10.26364 -10.26354
 Alpha  occ. eigenvalues --  -10.26322 -10.26243 -10.26209 -10.26128 -10.26124
 Alpha  occ. eigenvalues --  -10.26119 -10.26101 -10.25927 -10.25838 -10.25730
 Alpha  occ. eigenvalues --  -10.25724 -10.25664 -10.25657 -10.25580 -10.25529
 Alpha  occ. eigenvalues --  -10.25298 -10.25170 -10.25095 -10.25094 -10.25045
 Alpha  occ. eigenvalues --  -10.24967 -10.24371  -1.09062  -1.06127  -0.93881
 Alpha  occ. eigenvalues --   -0.93678  -0.92049  -0.91808  -0.90486  -0.89659
 Alpha  occ. eigenvalues --   -0.87758  -0.87465  -0.87016  -0.85896  -0.85034
 Alpha  occ. eigenvalues --   -0.83855  -0.81883  -0.80846  -0.80313  -0.77788
 Alpha  occ. eigenvalues --   -0.77260  -0.76689  -0.76334  -0.75913  -0.75626
 Alpha  occ. eigenvalues --   -0.75297  -0.74954  -0.74695  -0.73651  -0.70575
 Alpha  occ. eigenvalues --   -0.68546  -0.67238  -0.65607  -0.64638  -0.63673
 Alpha  occ. eigenvalues --   -0.63207  -0.61768  -0.61132  -0.60199  -0.59822
 Alpha  occ. eigenvalues --   -0.59547  -0.58947  -0.58726  -0.57526  -0.56284
 Alpha  occ. eigenvalues --   -0.55759  -0.54974  -0.54575  -0.54320  -0.53391
 Alpha  occ. eigenvalues --   -0.52920  -0.52484  -0.52214  -0.51396  -0.51062
 Alpha  occ. eigenvalues --   -0.50654  -0.50283  -0.49816  -0.49376  -0.49296
 Alpha  occ. eigenvalues --   -0.49111  -0.48996  -0.48671  -0.48220  -0.47987
 Alpha  occ. eigenvalues --   -0.47700  -0.47437  -0.47041  -0.46563  -0.46468
 Alpha  occ. eigenvalues --   -0.45962  -0.45828  -0.45447  -0.45432  -0.45051
 Alpha  occ. eigenvalues --   -0.44629  -0.44373  -0.44049  -0.43510  -0.43254
 Alpha  occ. eigenvalues --   -0.43140  -0.42608  -0.42511  -0.42318  -0.41930
 Alpha  occ. eigenvalues --   -0.41255  -0.41149  -0.40857  -0.40677  -0.40428
 Alpha  occ. eigenvalues --   -0.40274  -0.40192  -0.40132  -0.39638  -0.39446
 Alpha  occ. eigenvalues --   -0.39186  -0.38909  -0.38337  -0.38157  -0.37984
 Alpha  occ. eigenvalues --   -0.37964  -0.37457  -0.36499  -0.35977  -0.35699
 Alpha  occ. eigenvalues --   -0.35140  -0.34392  -0.34201  -0.32475  -0.31031
 Alpha  occ. eigenvalues --   -0.30358  -0.29769  -0.27946  -0.26522  -0.24469
 Alpha  occ. eigenvalues --   -0.20804
 Alpha virt. eigenvalues --   -0.04487   0.00387   0.03159   0.05701   0.07247
 Alpha virt. eigenvalues --    0.08586   0.09354   0.11125   0.11558   0.11644
 Alpha virt. eigenvalues --    0.11762   0.12194   0.12811   0.13037   0.13456

 Mulliken charges:
               1
     1  O   -0.572179
     2  O   -0.597005
     3  C   -0.066218
     4  C   -0.042999
     5  C   -0.199937
     6  C   -0.174953
     7  C    0.213230
     8  C    0.187787
     9  C    0.074297
    10  C   -0.001043
    11  C   -0.203567
    12  C   -0.236380
    13  C    0.061577
    14  C    0.088130
    15  C   -0.276180
    16  C   -0.275747
    17  C   -0.258148
    18  C   -0.303123
    19  C   -0.127438
    20  C   -0.152252
    21  C   -0.360165
    22  C   -0.334122
    23  C   -0.114707
    24  C   -0.075854
    25  C    0.100454
    26  C    0.070414
    27  C   -0.386538
    28  C   -0.352819
    29  C   -0.128973
    30  C   -0.117870
    31  C   -0.074908
    32  C   -0.092419
    33  C   -0.086772
    34  C   -0.100907
    35  C    0.073402
    36  C    0.081944
    37  C   -0.366621
    38  C   -0.363002
    39  C   -0.125724
    40  C   -0.104748
    41  C   -0.094492
    42  C   -0.077383
    43  H    0.081350
    44  H    0.075520
    45  H    0.073305
    46  H    0.090864
    47  H    0.063770
    48  H    0.091108
    49  H    0.108621
    50  H    0.086519
    51  H    0.136550
    52  H    0.105178
    53  H    0.078440
    54  H    0.108897
    55  H    0.102887
    56  H    0.120708
    57  H    0.081837
    58  H    0.096443
    59  H    0.091935
    60  H    0.116161
    61  H    0.082707
    62  H    0.103453
    63  H    0.078549
    64  H    0.104987
    65  H    0.085985
    66  H    0.095312
    67  H    0.115438
    68  H    0.114643
    69  H    0.117427
    70  H    0.115672
    71  H    0.125736
    72  H    0.059351
    73  H    0.316377
    74  H    0.296295
    75  H    0.076721
    76  H    0.097662
    77  H    0.117416
    78  H    0.113981
    79  H    0.126235
    80  H    0.112692
    81  H    0.124351
    82  H    0.114146
    83  H    0.084728
    84  H    0.068938
    85  H    0.081393
    86  H    0.076067
    87  H    0.082375
    88  H    0.077033
    89  H    0.118306
    90  H    0.111796
    91  H    0.122348
    92  H    0.119368
    93  H    0.122986
    94  H    0.107644
    95  H    0.065600
    96  H    0.094315
    97  H    0.072029
    98  H    0.083802
 Sum of Mulliken charges =  -0.00000

 Dipole moment (field-independent basis, Debye):
    X=              1.8395    Y=             -0.7615    Z=              1.9873  Tot=              2.8130
 Quadrupole moment (field-independent basis, Debye-Ang):
   XX=           -274.8444   YY=           -246.7703   ZZ=           -261.7923
   XY=             15.7108   XZ=              2.3895   YZ=              1.3848

 Normal termination of Gaussian 16 at Wed Jul  3 15:01:28 2019.
