 Gaussian 16, Revision A.03,
 Gaussian 16:  ES64L-G16RevA.03 25-Dec-2016

 -------------------------------------
 # td=(NStates=1) CAM-B3LYP/6-31G(d,p)
 -------------------------------------

 --
 TD
 --
 Symbolic Z-matrix:
 Charge =  0 Multiplicity = 1

                         Standard orientation:
 ---------------------------------------------------------------------
 Center     Atomic      Atomic             Coordinates (Angstroms)
 Number     Number       Type             X           Y           Z
 ---------------------------------------------------------------------
      1          8           0       14.748419   -2.116582   -0.476363
      2          8           0      -14.931959    1.865994    0.655343
      3          6           0       11.479189   -1.043224    1.272979
      4          6           0      -12.290735   -0.920122    0.747483
      5          6           0       12.965714   -1.358611    1.041581
      6          6           0      -13.707093   -0.275875    0.693032
      7          6           0       13.419892   -1.833631   -0.401365
      8          6           0      -13.601569    1.214994    0.660861
      9          6           0       10.932120   -0.340817   -0.075089
     10          6           0      -11.340210   -0.190542   -0.097096
     11          6           0       13.051664   -0.838464   -1.410235
     12          6           0      -12.833578    1.724824   -0.559624
     13          6           0       11.635009   -0.231706   -1.226760
     14          6           0      -11.595203    0.887466   -0.875403
     15          6           0       11.290401   -0.180961    2.433787
     16          6           0       10.788915   -2.336056    1.408290
     17          6           0      -11.722193   -0.971449    2.242785
     18          6           0      -12.562901   -2.414373    0.456073
     19          6           0        9.613247    0.242933    0.084012
     20          6           0      -10.078400   -0.951245   -0.365568
     21          6           0       11.162143    0.402029   -2.456875
     22          6           0      -10.729691    1.639229   -1.938225
     23          6           0        9.330407    1.555678   -0.076763
     24          6           0       -8.803421   -0.454361   -0.350812
     25          6           0        8.059934    2.246715    0.083180
     26          6           0       -7.576679   -1.230403   -0.438076
     27          6           0        8.172786    3.673011    0.453123
     28          6           0       -7.623630   -2.717477   -0.956565
     29          6           0        6.908602    1.480673   -0.039468
     30          6           0       -6.391594   -0.587526   -0.319690
     31          6           0        5.561845    1.994266    0.181325
     32          6           0       -5.091979   -1.178554   -0.464698
     33          6           0        4.454845    1.137392    0.088720
     34          6           0       -4.080865   -0.313137   -0.236478
     35          6           0        3.040064    1.546268    0.272393
     36          6           0       -2.569630   -0.749467   -0.265090
     37          6           0        2.735234    3.033704    0.705520
     38          6           0       -2.345608   -2.287734   -0.767275
     39          6           0        2.044788    0.749842    0.014523
     40          6           0       -1.632185    0.068743   -0.232450
     41          6           0        0.605407    0.918182    0.123236
     42          6           0       -0.277463   -0.089537   -0.239145
     43          1           0       13.638867   -0.434386    1.205667
     44          1           0       13.266659   -1.997688    1.736967
     45          1           0      -14.211788   -0.808607    1.530441
     46          1           0      -14.350005   -0.582152   -0.186227
     47          1           0       12.783687   -2.711972   -0.611097
     48          1           0      -13.089509    1.607869    1.552846
     49          1           0       13.695185    0.071264   -1.336747
     50          1           0       13.301883   -1.519257   -2.409155
     51          1           0      -13.388444    1.559927   -1.509537
     52          1           0      -12.765205    2.875051   -0.560762
     53          1           0       11.718406   -0.513038    3.478550
     54          1           0       10.186815    0.066091    2.604960
     55          1           0       11.868988    0.775395    2.346729
     56          1           0       11.070166   -3.040185    0.513586
     57          1           0       11.401571   -2.877534    2.125663
     58          1           0        9.669345   -2.382068    1.531419
     59          1           0      -11.560869    0.068219    2.758480
     60          1           0      -10.682889   -1.516053    2.162660
     61          1           0      -12.359413   -1.531249    2.897330
     62          1           0      -13.604774   -2.724785    0.921741
     63          1           0      -11.765933   -2.999364    0.717479
     64          1           0      -12.686421   -2.432402   -0.574786
     65          1           0        8.904424   -0.288697    0.370501
     66          1           0      -10.137662   -2.014405   -0.422078
     67          1           0       10.224901    0.684343   -2.279987
     68          1           0       11.756610    1.319906   -2.398664
     69          1           0       11.630642   -0.089653   -3.302836
     70          1           0      -11.641214    2.226451   -2.695078
     71          1           0      -10.084697    0.876628   -2.544024
     72          1           0      -10.236299    2.440621   -1.392053
     73          1           0       14.997800   -2.796024    0.189719
     74          1           0      -15.476288    1.533790    1.380030
     75          1           0       10.282586    2.126303   -0.486686
     76          1           0       -8.586219    0.639314   -0.128180
     77          1           0        8.617483    4.271867   -0.290770
     78          1           0        7.137995    3.981466    0.482992
     79          1           0        8.559753    3.821045    1.459902
     80          1           0       -8.085407   -3.288370   -0.128718
     81          1           0       -8.260677   -2.725759   -1.780462
     82          1           0       -6.684342   -2.988063   -1.482166
     83          1           0        7.121996    0.531449   -0.171841
     84          1           0       -6.282865    0.466910   -0.108668
     85          1           0        5.541030    3.099096    0.280309
     86          1           0       -5.028301   -2.236961   -0.712319
     87          1           0        4.578212   -0.036539   -0.148690
     88          1           0       -4.067466    0.786724    0.058400
     89          1           0        3.537536    3.429936    1.405478
     90          1           0        1.660478    3.242020    0.945793
     91          1           0        3.014085    3.812368   -0.149211
     92          1           0       -2.904604   -2.796871    0.068924
     93          1           0       -2.827255   -2.557233   -1.739242
     94          1           0       -1.237915   -2.324448   -1.095358
     95          1           0        2.319546   -0.356153   -0.212072
     96          1           0       -1.856209    1.247981   -0.033148
     97          1           0        0.140330    1.765628    0.353973
     98          1           0        0.318547   -0.877113   -0.642755
 ---------------------------------------------------------------------

 SCF Done:  E(RCAM-B3LYP) =  -1706.99144654     A.U. after   14 cycles

 Excitation energies and oscillator strengths:

 Excited State   1:      Singlet-A      3.0256 eV  409.78 nm  f=3.6390  <S**2>=0.000
     155 ->158        -0.20536
     156 ->157         0.66533
 This state for optimization and/or second-order correction.
 Total Energy, E(TD-HF/TD-DFT) =  -1706.88025655
 Copying the excited state density for this state as the 1-particle RhoCI density.

 The electronic state is 1-A.
 Alpha  occ. eigenvalues --  -19.21884 -19.19892 -10.30304 -10.29804 -10.28386
 Alpha  occ. eigenvalues --  -10.28284 -10.27785 -10.27578 -10.27565 -10.27395
 Alpha  occ. eigenvalues --  -10.27245 -10.27208 -10.27193 -10.27158 -10.26960
 Alpha  occ. eigenvalues --  -10.26940 -10.26814 -10.26574 -10.26452 -10.26245
 Alpha  occ. eigenvalues --  -10.26194 -10.26081 -10.26042 -10.25888 -10.25868
 Alpha  occ. eigenvalues --  -10.25816 -10.25806 -10.25740 -10.25736 -10.25670
 Alpha  occ. eigenvalues --  -10.25606 -10.25478 -10.25476 -10.25270 -10.25203
 Alpha  occ. eigenvalues --  -10.25173 -10.25023 -10.24907 -10.24576 -10.23994
 Alpha  occ. eigenvalues --  -10.23900 -10.23153  -1.11391  -1.06687  -0.93731
 Alpha  occ. eigenvalues --   -0.93628  -0.92385  -0.91370  -0.90875  -0.89736
 Alpha  occ. eigenvalues --   -0.88293  -0.86993  -0.86549  -0.85648  -0.84569
 Alpha  occ. eigenvalues --   -0.83213  -0.81978  -0.81266  -0.79435  -0.77428
 Alpha  occ. eigenvalues --   -0.76737  -0.76468  -0.76093  -0.75571  -0.75502
 Alpha  occ. eigenvalues --   -0.74994  -0.74834  -0.74699  -0.74188  -0.70641
 Alpha  occ. eigenvalues --   -0.68977  -0.67326  -0.65873  -0.65336  -0.64426
 Alpha  occ. eigenvalues --   -0.63791  -0.62920  -0.62612  -0.61560  -0.60009
 Alpha  occ. eigenvalues --   -0.59627  -0.59250  -0.57282  -0.56710  -0.55986
 Alpha  occ. eigenvalues --   -0.55647  -0.55353  -0.54973  -0.54266  -0.53527
 Alpha  occ. eigenvalues --   -0.53277  -0.52332  -0.52265  -0.51891  -0.51463
 Alpha  occ. eigenvalues --   -0.50688  -0.50374  -0.50273  -0.49858  -0.49622
 Alpha  occ. eigenvalues --   -0.49431  -0.49265  -0.48664  -0.48395  -0.47883
 Alpha  occ. eigenvalues --   -0.47421  -0.47074  -0.46900  -0.46325  -0.45962
 Alpha  occ. eigenvalues --   -0.45423  -0.45295  -0.45197  -0.44934  -0.44862
 Alpha  occ. eigenvalues --   -0.44799  -0.44565  -0.44409  -0.43915  -0.43710
 Alpha  occ. eigenvalues --   -0.43132  -0.42961  -0.42704  -0.42261  -0.41758
 Alpha  occ. eigenvalues --   -0.41731  -0.41421  -0.41374  -0.41048  -0.41004
 Alpha  occ. eigenvalues --   -0.40566  -0.40015  -0.39948  -0.39678  -0.39378
 Alpha  occ. eigenvalues --   -0.39021  -0.38579  -0.38493  -0.38415  -0.37880
 Alpha  occ. eigenvalues --   -0.37350  -0.36688  -0.36286  -0.36235  -0.35479
 Alpha  occ. eigenvalues --   -0.35168  -0.34652  -0.33910  -0.32372  -0.31685
 Alpha  occ. eigenvalues --   -0.31307  -0.29412  -0.28272  -0.26506  -0.23801
 Alpha  occ. eigenvalues --   -0.21580
 Alpha virt. eigenvalues --   -0.03545  -0.00234   0.03052   0.06591   0.08038
 Alpha virt. eigenvalues --    0.09807   0.10743   0.11424   0.11890   0.12034
 Alpha virt. eigenvalues --    0.12607   0.12711   0.13204   0.13521   0.13784

 Mulliken charges:
               1
     1  O   -0.545894
     2  O   -0.584539
     3  C    0.022601
     4  C   -0.047837
     5  C   -0.211742
     6  C   -0.197524
     7  C    0.184412
     8  C    0.168523
     9  C    0.036512
    10  C    0.088180
    11  C   -0.205232
    12  C   -0.225575
    13  C    0.024448
    14  C    0.048654
    15  C   -0.295104
    16  C   -0.294788
    17  C   -0.294872
    18  C   -0.290468
    19  C   -0.096285
    20  C   -0.165874
    21  C   -0.335655
    22  C   -0.326590
    23  C   -0.106755
    24  C   -0.080741
    25  C    0.047532
    26  C    0.065790
    27  C   -0.357991
    28  C   -0.371147
    29  C   -0.061667
    30  C   -0.111972
    31  C   -0.101150
    32  C   -0.078038
    33  C   -0.129516
    34  C   -0.111807
    35  C    0.148746
    36  C    0.068430
    37  C   -0.374222
    38  C   -0.360723
    39  C   -0.156999
    40  C   -0.120402
    41  C   -0.063998
    42  C   -0.064472
    43  H    0.080930
    44  H    0.076332
    45  H    0.082506
    46  H    0.100093
    47  H    0.065653
    48  H    0.086135
    49  H    0.112955
    50  H    0.087702
    51  H    0.115845
    52  H    0.112114
    53  H    0.083155
    54  H    0.099429
    55  H    0.103077
    56  H    0.087578
    57  H    0.097869
    58  H    0.103833
    59  H    0.088691
    60  H    0.096866
    61  H    0.102819
    62  H    0.090288
    63  H    0.105898
    64  H    0.114813
    65  H    0.059478
    66  H    0.076410
    67  H    0.120301
    68  H    0.113045
    69  H    0.118165
    70  H    0.063705
    71  H    0.120960
    72  H    0.137570
    73  H    0.311209
    74  H    0.301027
    75  H    0.068134
    76  H    0.080069
    77  H    0.129141
    78  H    0.096452
    79  H    0.133730
    80  H    0.124466
    81  H    0.131772
    82  H    0.110778
    83  H    0.066236
    84  H    0.081030
    85  H    0.093790
    86  H    0.099317
    87  H    0.085376
    88  H    0.092307
    89  H    0.114133
    90  H    0.117131
    91  H    0.099355
    92  H    0.127135
    93  H    0.117646
    94  H    0.109181
    95  H    0.068447
    96  H    0.058865
    97  H    0.064228
    98  H    0.080576
 Sum of Mulliken charges =  -0.00000

 Dipole moment (field-independent basis, Debye):
    X=              0.5251    Y=             -1.6306    Z=              1.4233  Tot=              2.2272
 Quadrupole moment (field-independent basis, Debye-Ang):
   XX=           -271.7274   YY=           -245.0560   ZZ=           -262.5025
   XY=             15.0410   XZ=              2.0915   YZ=              1.4359

 Normal termination of Gaussian 16 at Tue Jul  2 05:25:43 2019.
