 Gaussian 16, Revision A.03,
 Gaussian 16:  ES64L-G16RevA.03 25-Dec-2016

 -------------------------------------
 # td=(NStates=1) CAM-B3LYP/6-31G(d,p)
 -------------------------------------

 --
 TD
 --
 Symbolic Z-matrix:
 Charge =  0 Multiplicity = 1

                         Standard orientation:
 ---------------------------------------------------------------------
 Center     Atomic      Atomic             Coordinates (Angstroms)
 Number     Number       Type             X           Y           Z
 ---------------------------------------------------------------------
      1          8           0       14.607785   -2.383432   -0.266967
      2          8           0      -14.680450    2.046847    0.893138
      3          6           0       11.307340   -1.151672    1.209785
      4          6           0      -12.204869   -0.937680    0.897568
      5          6           0       12.723180   -1.646373    1.131054
      6          6           0      -13.562445   -0.139910    0.835018
      7          6           0       13.200415   -1.993860   -0.299987
      8          6           0      -13.406698    1.388048    0.761908
      9          6           0       10.853584   -0.240159   -0.062659
     10          6           0      -11.294134   -0.322329   -0.264271
     11          6           0       12.996796   -0.913658   -1.353421
     12          6           0      -12.847670    1.640812   -0.628742
     13          6           0       11.736732   -0.169920   -1.206044
     14          6           0      -11.549781    0.745923   -0.911058
     15          6           0       10.984586   -0.408894    2.445860
     16          6           0       10.295969   -2.360863    1.258392
     17          6           0      -11.454115   -0.854990    2.189324
     18          6           0      -12.432018   -2.391243    0.550748
     19          6           0        9.593982    0.385662    0.047192
     20          6           0      -10.054233   -1.087757   -0.480741
     21          6           0       11.234098    0.562774   -2.383778
     22          6           0      -10.703865    1.373563   -2.123952
     23          6           0        9.437458    1.627442   -0.220974
     24          6           0       -8.769217   -0.534287   -0.364973
     25          6           0        8.062211    2.326237    0.070935
     26          6           0       -7.531691   -1.339715   -0.586735
     27          6           0        8.198882    3.679417    0.689620
     28          6           0       -7.693222   -2.783526   -0.944636
     29          6           0        6.842868    1.633056   -0.178445
     30          6           0       -6.387060   -0.601544   -0.344716
     31          6           0        5.557464    2.178820    0.085560
     32          6           0       -5.031614   -1.089640   -0.582941
     33          6           0        4.501818    1.419846   -0.047638
     34          6           0       -3.923996   -0.422578   -0.255485
     35          6           0        3.130322    1.743481    0.199315
     36          6           0       -2.589985   -0.794422   -0.511990
     37          6           0        2.857318    3.172358    0.665120
     38          6           0       -2.335935   -2.275488   -0.699608
     39          6           0        2.094832    0.823701    0.020117
     40          6           0       -1.665113    0.098474   -0.230447
     41          6           0        0.670880    1.094978   -0.008508
     42          6           0       -0.239765   -0.016349   -0.154245
     43          1           0       13.315362   -0.690506    1.354781
     44          1           0       13.024125   -2.334129    1.636768
     45          1           0      -14.271447   -0.514944    1.588578
     46          1           0      -14.376551   -0.538165    0.051939
     47          1           0       12.677415   -2.991902   -0.682307
     48          1           0      -12.718070    1.940795    1.572986
     49          1           0       13.690243   -0.206422   -1.241215
     50          1           0       12.905312   -1.432121   -2.327332
     51          1           0      -13.694583    1.361811   -1.276092
     52          1           0      -12.524194    2.673057   -0.617007
     53          1           0       11.400971   -0.998958    3.367136
     54          1           0        9.878192   -0.102820    2.738387
     55          1           0       11.820447    0.533669    2.501680
     56          1           0       10.564832   -2.991348    0.300498
     57          1           0       10.645524   -2.961602    2.281932
     58          1           0        9.185030   -2.298440    1.273814
     59          1           0      -11.364849    0.203808    2.520431
     60          1           0      -10.452308   -1.398237    1.983421
     61          1           0      -12.007845   -1.302213    3.116429
     62          1           0      -13.121448   -2.860388    1.445048
     63          1           0      -11.451118   -2.943041    0.568904
     64          1           0      -12.990719   -2.577100   -0.354185
     65          1           0        8.910902   -0.226149    0.682572
     66          1           0      -10.093900   -2.245750   -0.684828
     67          1           0       10.118199    0.768971   -2.267571
     68          1           0       11.863317    1.584794   -2.615083
     69          1           0       11.403143    0.053856   -3.351761
     70          1           0      -11.431631    1.685889   -3.025092
     71          1           0       -9.914793    0.656176   -2.466227
     72          1           0      -10.234317    2.179625   -1.766157
     73          1           0       14.705591   -3.096876    0.288348
     74          1           0      -15.122961    1.933041    1.717985
     75          1           0       10.212299    2.211639   -0.579334
     76          1           0       -8.937616    0.516181   -0.041344
     77          1           0        8.799420    4.468817   -0.017050
     78          1           0        7.217889    4.278534    1.021423
     79          1           0        8.958408    3.564819    1.476306
     80          1           0       -8.061782   -3.160338    0.068528
     81          1           0       -8.299598   -3.070083   -1.844089
     82          1           0       -6.706887   -3.328580   -1.017156
     83          1           0        6.906448    0.670433   -0.711376
     84          1           0       -6.284046    0.433392   -0.123120
     85          1           0        5.376021    3.200810    0.311370
     86          1           0       -4.866172   -2.092905   -0.820494
     87          1           0        4.662742    0.358692   -0.351511
     88          1           0       -4.078926    0.585504    0.113117
     89          1           0        3.463165    3.275918    1.505618
     90          1           0        1.704345    3.343859    1.094293
     91          1           0        3.068415    3.905287   -0.200990
     92          1           0       -2.765788   -2.825270    0.319055
     93          1           0       -3.172270   -2.486077   -1.467079
     94          1           0       -1.247471   -2.474636   -0.941895
     95          1           0        2.155762   -0.314279   -0.177380
     96          1           0       -2.048267    1.156338   -0.306691
     97          1           0        0.226836    2.042720    0.135421
     98          1           0        0.340666   -0.938909   -0.040923
 ---------------------------------------------------------------------

 SCF Done:  E(RCAM-B3LYP) =  -1706.97061344     A.U. after   14 cycles

 Excitation energies and oscillator strengths:

 Excited State   1:      Singlet-A      2.6434 eV  469.03 nm  f=3.5830  <S**2>=0.000
     155 ->158         0.15309
     156 ->157         0.68626
 This state for optimization and/or second-order correction.
 Total Energy, E(TD-HF/TD-DFT) =  -1706.87346872
 Copying the excited state density for this state as the 1-particle RhoCI density.

 The electronic state is 1-A.
 Alpha  occ. eigenvalues --  -19.20549 -19.20156 -10.31863 -10.31471 -10.28612
 Alpha  occ. eigenvalues --  -10.28400 -10.28346 -10.27879 -10.27641 -10.27637
 Alpha  occ. eigenvalues --  -10.27628 -10.27604 -10.27362 -10.27214 -10.27081
 Alpha  occ. eigenvalues --  -10.27064 -10.27049 -10.27027 -10.26816 -10.26615
 Alpha  occ. eigenvalues --  -10.26514 -10.26421 -10.26370 -10.26346 -10.26311
 Alpha  occ. eigenvalues --  -10.26115 -10.25978 -10.25941 -10.25801 -10.25650
 Alpha  occ. eigenvalues --  -10.25564 -10.25538 -10.25315 -10.25271 -10.25245
 Alpha  occ. eigenvalues --  -10.25172 -10.25161 -10.25067 -10.25056 -10.24931
 Alpha  occ. eigenvalues --  -10.24896 -10.24657  -1.09547  -1.08368  -0.93765
 Alpha  occ. eigenvalues --   -0.93048  -0.92595  -0.91673  -0.90069  -0.89699
 Alpha  occ. eigenvalues --   -0.88050  -0.87476  -0.86202  -0.85727  -0.84622
 Alpha  occ. eigenvalues --   -0.83420  -0.82017  -0.80580  -0.79000  -0.77832
 Alpha  occ. eigenvalues --   -0.77367  -0.76340  -0.75353  -0.75221  -0.75193
 Alpha  occ. eigenvalues --   -0.74597  -0.74430  -0.74013  -0.73589  -0.70032
 Alpha  occ. eigenvalues --   -0.68529  -0.67313  -0.65377  -0.64700  -0.63381
 Alpha  occ. eigenvalues --   -0.62921  -0.62638  -0.62033  -0.60896  -0.60586
 Alpha  occ. eigenvalues --   -0.59823  -0.58298  -0.57650  -0.57156  -0.56174
 Alpha  occ. eigenvalues --   -0.55529  -0.55329  -0.54775  -0.54535  -0.53639
 Alpha  occ. eigenvalues --   -0.53090  -0.52276  -0.52181  -0.51999  -0.51122
 Alpha  occ. eigenvalues --   -0.50407  -0.50333  -0.49709  -0.49512  -0.49263
 Alpha  occ. eigenvalues --   -0.48718  -0.48608  -0.48507  -0.47959  -0.47864
 Alpha  occ. eigenvalues --   -0.47647  -0.47194  -0.47011  -0.46292  -0.46118
 Alpha  occ. eigenvalues --   -0.45956  -0.45258  -0.44819  -0.44690  -0.44439
 Alpha  occ. eigenvalues --   -0.44127  -0.44059  -0.43654  -0.43308  -0.43135
 Alpha  occ. eigenvalues --   -0.43010  -0.42711  -0.42684  -0.42285  -0.42092
 Alpha  occ. eigenvalues --   -0.41851  -0.41383  -0.41127  -0.40743  -0.40716
 Alpha  occ. eigenvalues --   -0.40552  -0.40089  -0.39854  -0.39532  -0.39261
 Alpha  occ. eigenvalues --   -0.39115  -0.38913  -0.38326  -0.37903  -0.37675
 Alpha  occ. eigenvalues --   -0.37377  -0.36957  -0.36903  -0.36295  -0.35081
 Alpha  occ. eigenvalues --   -0.34894  -0.33740  -0.33293  -0.32289  -0.32173
 Alpha  occ. eigenvalues --   -0.31958  -0.30346  -0.28060  -0.25860  -0.24035
 Alpha  occ. eigenvalues --   -0.20415
 Alpha virt. eigenvalues --   -0.04441   0.00128   0.02635   0.05664   0.08450
 Alpha virt. eigenvalues --    0.10040   0.10989   0.11523   0.11694   0.12518
 Alpha virt. eigenvalues --    0.12799   0.12907   0.12980   0.13413   0.13688

 Mulliken charges:
               1
     1  O   -0.561097
     2  O   -0.577759
     3  C   -0.004960
     4  C    0.012969
     5  C   -0.138283
     6  C   -0.207554
     7  C    0.140201
     8  C    0.177077
     9  C    0.046291
    10  C    0.087725
    11  C   -0.191180
    12  C   -0.194524
    13  C    0.040794
    14  C   -0.004821
    15  C   -0.277290
    16  C   -0.293029
    17  C   -0.282967
    18  C   -0.289971
    19  C   -0.089960
    20  C   -0.179373
    21  C   -0.370950
    22  C   -0.347730
    23  C   -0.116943
    24  C   -0.083101
    25  C    0.061239
    26  C    0.082447
    27  C   -0.365337
    28  C   -0.375886
    29  C   -0.129316
    30  C   -0.109021
    31  C   -0.064676
    32  C   -0.092688
    33  C   -0.087835
    34  C   -0.099551
    35  C    0.076542
    36  C    0.127414
    37  C   -0.364221
    38  C   -0.355620
    39  C   -0.136567
    40  C   -0.137643
    41  C   -0.063730
    42  C   -0.113157
    43  H    0.098738
    44  H    0.073183
    45  H    0.074029
    46  H    0.085207
    47  H    0.062093
    48  H    0.064834
    49  H    0.135801
    50  H    0.118299
    51  H    0.123762
    52  H    0.105392
    53  H    0.085955
    54  H    0.109802
    55  H    0.061473
    56  H    0.086828
    57  H    0.068032
    58  H    0.113688
    59  H    0.099799
    60  H    0.105736
    61  H    0.085737
    62  H    0.069126
    63  H    0.097121
    64  H    0.112337
    65  H    0.092826
    66  H    0.081673
    67  H    0.126065
    68  H    0.081175
    69  H    0.101846
    70  H    0.093896
    71  H    0.117387
    72  H    0.129443
    73  H    0.298779
    74  H    0.303707
    75  H    0.108251
    76  H    0.094334
    77  H    0.096335
    78  H    0.106305
    79  H    0.131673
    80  H    0.131704
    81  H    0.136212
    82  H    0.112885
    83  H    0.092734
    84  H    0.087966
    85  H    0.085579
    86  H    0.063464
    87  H    0.072759
    88  H    0.069501
    89  H    0.136405
    90  H    0.087540
    91  H    0.119575
    92  H    0.105646
    93  H    0.117654
    94  H    0.114585
    95  H    0.078360
    96  H    0.078670
    97  H    0.081961
    98  H    0.080170
 Sum of Mulliken charges =  -0.00000

 Dipole moment (field-independent basis, Debye):
    X=              0.5354    Y=             -1.3082    Z=              1.9681  Tot=              2.4231
 Quadrupole moment (field-independent basis, Debye-Ang):
   XX=           -279.9155   YY=           -245.7530   ZZ=           -261.3283
   XY=              9.8585   XZ=             -2.7783   YZ=              2.3067

 Normal termination of Gaussian 16 at Wed Jul  3 05:01:09 2019.
