 Gaussian 16, Revision A.03,
 Gaussian 16:  ES64L-G16RevA.03 25-Dec-2016

 -------------------------------------
 # td=(NStates=1) CAM-B3LYP/6-31G(d,p)
 -------------------------------------

 --
 TD
 --
 Symbolic Z-matrix:
 Charge =  0 Multiplicity = 1

                         Standard orientation:
 ---------------------------------------------------------------------
 Center     Atomic      Atomic             Coordinates (Angstroms)
 Number     Number       Type             X           Y           Z
 ---------------------------------------------------------------------
      1          8           0       14.774444   -1.937137   -0.355044
      2          8           0      -14.788948    2.025951    0.754920
      3          6           0       11.466339   -1.153801    1.128112
      4          6           0      -12.397796   -0.908772    0.741882
      5          6           0       12.939443   -1.443241    1.046139
      6          6           0      -13.656269   -0.110598    0.742120
      7          6           0       13.370639   -1.817861   -0.381052
      8          6           0      -13.521350    1.406039    0.637549
      9          6           0       10.989434   -0.310701   -0.049435
     10          6           0      -11.335576   -0.326640   -0.215557
     11          6           0       13.081512   -0.666419   -1.272026
     12          6           0      -12.863147    1.740584   -0.633579
     13          6           0       11.662286   -0.088216   -1.138738
     14          6           0      -11.556426    0.860537   -0.810883
     15          6           0       11.241470   -0.398192    2.457724
     16          6           0       10.741751   -2.444059    1.246064
     17          6           0      -11.830422   -0.875133    2.141642
     18          6           0      -12.731902   -2.345926    0.473013
     19          6           0        9.676333    0.243722    0.186209
     20          6           0      -10.071228   -1.156398   -0.448813
     21          6           0       11.281574    0.777802   -2.350278
     22          6           0      -10.550635    1.579481   -1.736580
     23          6           0        9.300871    1.514966   -0.173822
     24          6           0       -8.897245   -0.607812   -0.180816
     25          6           0        8.044720    2.241077    0.108100
     26          6           0       -7.589374   -1.316144   -0.583594
     27          6           0        8.108501    3.602628    0.624779
     28          6           0       -7.653132   -2.785682   -0.986490
     29          6           0        6.909550    1.453747   -0.126168
     30          6           0       -6.413553   -0.607430   -0.285958
     31          6           0        5.587485    1.787405    0.159693
     32          6           0       -5.121475   -1.156625   -0.476530
     33          6           0        4.428813    1.074589    0.074068
     34          6           0       -3.974446   -0.366242   -0.328293
     35          6           0        3.043524    1.624591    0.101797
     36          6           0       -2.631750   -0.750458   -0.449692
     37          6           0        2.781378    2.934991    0.536314
     38          6           0       -2.412394   -2.182645   -0.792392
     39          6           0        2.074385    0.717524   -0.038343
     40          6           0       -1.658878    0.162178   -0.186006
     41          6           0        0.648104    0.857999    0.108554
     42          6           0       -0.253253   -0.122295   -0.235131
     43          1           0       13.615894   -0.533173    1.523616
     44          1           0       13.162224   -2.253384    1.601419
     45          1           0      -14.383697   -0.345274    1.598403
     46          1           0      -14.308746   -0.450374   -0.095728
     47          1           0       13.062821   -2.859665   -0.624867
     48          1           0      -12.826642    1.574784    1.489523
     49          1           0       14.011561   -0.052037   -1.030946
     50          1           0       13.320986   -1.070152   -2.474196
     51          1           0      -13.791590    1.679285   -1.225329
     52          1           0      -12.365391    2.730471   -0.638417
     53          1           0       11.688277   -1.061395    3.194828
     54          1           0       10.181529   -0.014661    2.775878
     55          1           0       11.871967    0.487632    2.457541
     56          1           0       10.778944   -3.057495    0.338291
     57          1           0       10.927656   -3.034519    2.270916
     58          1           0        9.576069   -2.391686    1.342776
     59          1           0      -11.634651    0.166871    2.424204
     60          1           0      -10.875124   -1.304429    2.259221
     61          1           0      -12.494816   -1.190459    2.957800
     62          1           0      -13.424137   -2.706324    1.208611
     63          1           0      -11.845196   -2.939585    0.300767
     64          1           0      -13.273821   -2.429327   -0.623077
     65          1           0        8.899493   -0.264873    0.445262
     66          1           0      -10.275222   -2.128802   -0.524399
     67          1           0       10.080368    0.941558   -2.401140
     68          1           0       11.922915    1.790603   -2.220309
     69          1           0       11.610728    0.179188   -3.421337
     70          1           0      -10.998213    2.086607   -2.644741
     71          1           0       -9.817655    0.921477   -2.103147
     72          1           0       -9.951844    2.186576   -1.107888
     73          1           0       14.987360   -2.841681    0.150261
     74          1           0      -15.135002    1.826041    1.758060
     75          1           0       10.187610    2.034097   -0.442213
     76          1           0       -8.732037    0.455917    0.065012
     77          1           0        8.674228    4.332989    0.043437
     78          1           0        7.127096    4.063271    0.872088
     79          1           0        8.618795    3.686368    1.520116
     80          1           0       -8.228592   -3.406605   -0.119472
     81          1           0       -8.336009   -2.847896   -1.906875
     82          1           0       -6.626691   -3.087986   -1.368528
     83          1           0        6.967975    0.340796   -0.515960
     84          1           0       -6.590206    0.372937    0.151470
     85          1           0        5.535613    2.969139    0.452615
     86          1           0       -4.745449   -2.108192   -0.874581
     87          1           0        4.736619    0.039100   -0.393154
     88          1           0       -4.299928    0.711752    0.025777
     89          1           0        3.217495    3.246664    1.486143
     90          1           0        1.718142    3.293812    0.685367
     91          1           0        3.323982    3.669171   -0.223338
     92          1           0       -2.924413   -3.041286   -0.295230
     93          1           0       -2.756426   -2.243767   -1.909689
     94          1           0       -1.296034   -2.488319   -0.935640
     95          1           0        2.393965   -0.294392   -0.479411
     96          1           0       -2.055869    1.188511    0.096678
     97          1           0        0.253014    1.989123    0.557568
     98          1           0        0.108926   -1.058924   -0.454536
 ---------------------------------------------------------------------

 SCF Done:  E(RCAM-B3LYP) =  -1706.99941399     A.U. after   14 cycles

 Excitation energies and oscillator strengths:

 Excited State   1:      Singlet-A      2.6328 eV  470.93 nm  f=3.7263  <S**2>=0.000
     155 ->158        -0.17171
     156 ->157         0.68198
 This state for optimization and/or second-order correction.
 Total Energy, E(TD-HF/TD-DFT) =  -1706.90266118
 Copying the excited state density for this state as the 1-particle RhoCI density.

 The electronic state is 1-A.
 Alpha  occ. eigenvalues --  -19.22133 -19.21354 -10.30050 -10.29322 -10.28680
 Alpha  occ. eigenvalues --  -10.28604 -10.28234 -10.27774 -10.27753 -10.27476
 Alpha  occ. eigenvalues --  -10.27296 -10.27231 -10.27123 -10.27050 -10.26981
 Alpha  occ. eigenvalues --  -10.26853 -10.26850 -10.26769 -10.26752 -10.26670
 Alpha  occ. eigenvalues --  -10.26655 -10.26628 -10.26437 -10.26412 -10.26331
 Alpha  occ. eigenvalues --  -10.26231 -10.26196 -10.26187 -10.26161 -10.25848
 Alpha  occ. eigenvalues --  -10.25709 -10.25498 -10.25497 -10.25345 -10.25101
 Alpha  occ. eigenvalues --  -10.25058 -10.24811 -10.24663 -10.24529 -10.24292
 Alpha  occ. eigenvalues --  -10.24220 -10.23385  -1.08812  -1.08027  -0.94589
 Alpha  occ. eigenvalues --   -0.93601  -0.92489  -0.91875  -0.90805  -0.89721
 Alpha  occ. eigenvalues --   -0.87594  -0.87122  -0.86582  -0.85556  -0.84907
 Alpha  occ. eigenvalues --   -0.83548  -0.81984  -0.80145  -0.79710  -0.78169
 Alpha  occ. eigenvalues --   -0.76792  -0.76198  -0.75853  -0.75775  -0.75639
 Alpha  occ. eigenvalues --   -0.75221  -0.75199  -0.74784  -0.74050  -0.70492
 Alpha  occ. eigenvalues --   -0.68800  -0.66708  -0.64733  -0.64636  -0.64194
 Alpha  occ. eigenvalues --   -0.63606  -0.62659  -0.61578  -0.60106  -0.59808
 Alpha  occ. eigenvalues --   -0.59493  -0.59323  -0.58718  -0.57640  -0.55908
 Alpha  occ. eigenvalues --   -0.55430  -0.55156  -0.55071  -0.54361  -0.54062
 Alpha  occ. eigenvalues --   -0.52916  -0.52589  -0.51822  -0.51437  -0.50811
 Alpha  occ. eigenvalues --   -0.50189  -0.50021  -0.49953  -0.49141  -0.48940
 Alpha  occ. eigenvalues --   -0.48685  -0.48617  -0.48549  -0.48292  -0.47946
 Alpha  occ. eigenvalues --   -0.47804  -0.47193  -0.46996  -0.46839  -0.46113
 Alpha  occ. eigenvalues --   -0.46013  -0.45096  -0.44993  -0.44979  -0.44753
 Alpha  occ. eigenvalues --   -0.44634  -0.44415  -0.44251  -0.43922  -0.43367
 Alpha  occ. eigenvalues --   -0.43051  -0.42972  -0.42241  -0.41873  -0.41535
 Alpha  occ. eigenvalues --   -0.41073  -0.41007  -0.40541  -0.40305  -0.40268
 Alpha  occ. eigenvalues --   -0.39885  -0.39728  -0.39717  -0.39034  -0.39001
 Alpha  occ. eigenvalues --   -0.38914  -0.38787  -0.38540  -0.38312  -0.38117
 Alpha  occ. eigenvalues --   -0.37768  -0.37371  -0.37177  -0.36597  -0.36132
 Alpha  occ. eigenvalues --   -0.35747  -0.34627  -0.33686  -0.32568  -0.31225
 Alpha  occ. eigenvalues --   -0.31177  -0.29995  -0.28621  -0.27089  -0.23943
 Alpha  occ. eigenvalues --   -0.20468
 Alpha virt. eigenvalues --   -0.04577  -0.00652   0.03085   0.06087   0.07699
 Alpha virt. eigenvalues --    0.09670   0.09978   0.10177   0.10480   0.11050
 Alpha virt. eigenvalues --    0.11778   0.12558   0.12673   0.12941   0.13560

 Mulliken charges:
               1
     1  O   -0.565928
     2  O   -0.570204
     3  C   -0.008019
     4  C   -0.005251
     5  C   -0.166248
     6  C   -0.183940
     7  C    0.157905
     8  C    0.170155
     9  C    0.084415
    10  C    0.046523
    11  C   -0.205204
    12  C   -0.198347
    13  C    0.050174
    14  C    0.010638
    15  C   -0.299272
    16  C   -0.304539
    17  C   -0.299256
    18  C   -0.288938
    19  C   -0.071945
    20  C   -0.111955
    21  C   -0.337511
    22  C   -0.376248
    23  C   -0.140708
    24  C   -0.080169
    25  C    0.095565
    26  C    0.081440
    27  C   -0.386271
    28  C   -0.360788
    29  C   -0.115071
    30  C   -0.121303
    31  C   -0.066436
    32  C   -0.080948
    33  C   -0.136015
    34  C   -0.133720
    35  C    0.150658
    36  C    0.153093
    37  C   -0.388811
    38  C   -0.403431
    39  C   -0.127914
    40  C   -0.126068
    41  C   -0.073898
    42  C   -0.082181
    43  H    0.082591
    44  H    0.080859
    45  H    0.059317
    46  H    0.087652
    47  H    0.082181
    48  H    0.067094
    49  H    0.131188
    50  H    0.059825
    51  H    0.123685
    52  H    0.104493
    53  H    0.096695
    54  H    0.099559
    55  H    0.101650
    56  H    0.106364
    57  H    0.089487
    58  H    0.090802
    59  H    0.092768
    60  H    0.107495
    61  H    0.094067
    62  H    0.109274
    63  H    0.097248
    64  H    0.070902
    65  H    0.072735
    66  H    0.084054
    67  H    0.115165
    68  H    0.110090
    69  H    0.081375
    70  H    0.109431
    71  H    0.124799
    72  H    0.121317
    73  H    0.302278
    74  H    0.311470
    75  H    0.077646
    76  H    0.088174
    77  H    0.126796
    78  H    0.115929
    79  H    0.140863
    80  H    0.114072
    81  H    0.114541
    82  H    0.113871
    83  H    0.078569
    84  H    0.089636
    85  H    0.049986
    86  H    0.080803
    87  H    0.074191
    88  H    0.063612
    89  H    0.130003
    90  H    0.110698
    91  H    0.104473
    92  H    0.135875
    93  H    0.116160
    94  H    0.101140
    95  H    0.075303
    96  H    0.089733
    97  H    0.064748
    98  H    0.091239
 Sum of Mulliken charges =  -0.00000

 Dipole moment (field-independent basis, Debye):
    X=              1.5031    Y=             -1.4967    Z=              2.2380  Tot=              3.0835
 Quadrupole moment (field-independent basis, Debye-Ang):
   XX=           -292.3869   YY=           -241.9868   ZZ=           -261.7054
   XY=              4.4637   XZ=             -4.1175   YZ=              5.2573

 Normal termination of Gaussian 16 at Fri Jun 28 17:57:24 2019.
