 Gaussian 16, Revision A.03,
 Gaussian 16:  ES64L-G16RevA.03 25-Dec-2016

 -------------------------------------
 # td=(NStates=1) CAM-B3LYP/6-31G(d,p)
 -------------------------------------

 --
 TD
 --
 Symbolic Z-matrix:
 Charge =  0 Multiplicity = 1

                         Standard orientation:
 ---------------------------------------------------------------------
 Center     Atomic      Atomic             Coordinates (Angstroms)
 Number     Number       Type             X           Y           Z
 ---------------------------------------------------------------------
      1          8           0       14.772450   -2.278714   -0.556572
      2          8           0      -14.784826    2.041583    0.390307
      3          6           0       11.473660   -1.109707    1.168027
      4          6           0      -12.281267   -0.896084    0.836488
      5          6           0       12.928990   -1.605645    1.046307
      6          6           0      -13.640474   -0.159088    0.817781
      7          6           0       13.374605   -1.991780   -0.424097
      8          6           0      -13.499270    1.348365    0.554748
      9          6           0       11.035292   -0.282841    0.012085
     10          6           0      -11.404055   -0.361483   -0.233479
     11          6           0       12.992214   -0.822549   -1.390103
     12          6           0      -12.862048    1.560506   -0.806967
     13          6           0       11.656675   -0.248233   -1.177012
     14          6           0      -11.667223    0.758737   -0.903734
     15          6           0       11.186772   -0.311790    2.423071
     16          6           0       10.617594   -2.396266    1.321157
     17          6           0      -11.598757   -0.408245    2.334451
     18          6           0      -12.386501   -2.429052    0.816912
     19          6           0        9.686425    0.336709    0.124028
     20          6           0      -10.059673   -1.076009   -0.499738
     21          6           0       11.210879    0.532053   -2.401254
     22          6           0      -10.769452    1.241828   -2.117554
     23          6           0        9.432981    1.667378   -0.029502
     24          6           0       -8.900569   -0.615015   -0.165489
     25          6           0        7.992919    2.336876    0.260025
     26          6           0       -7.622717   -1.382269   -0.455278
     27          6           0        8.200270    3.762679    0.573090
     28          6           0       -7.631790   -2.874592   -0.650584
     29          6           0        6.852651    1.658127   -0.062677
     30          6           0       -6.463028   -0.694810   -0.223476
     31          6           0        5.529855    2.126628    0.139986
     32          6           0       -5.113105   -1.180470   -0.336824
     33          6           0        4.418161    1.346993   -0.148790
     34          6           0       -3.975604   -0.415744   -0.292734
     35          6           0        3.083478    1.720583    0.166935
     36          6           0       -2.651401   -0.747079   -0.457075
     37          6           0        2.801267    3.133400    0.627377
     38          6           0       -2.374462   -2.246334   -0.819237
     39          6           0        2.054373    0.797611   -0.087515
     40          6           0       -1.660439    0.120483   -0.120795
     41          6           0        0.648596    0.829207    0.127344
     42          6           0       -0.270335   -0.078003   -0.303961
     43          1           0       13.542498   -0.821454    1.158275
     44          1           0       13.330760   -2.223881    1.743339
     45          1           0      -14.323556   -0.388847    1.734633
     46          1           0      -14.269686   -0.663675    0.014104
     47          1           0       12.710419   -2.805786   -0.597988
     48          1           0      -12.732454    1.963475    1.335726
     49          1           0       13.759501    0.029630   -1.309078
     50          1           0       13.199394   -1.124996   -2.328721
     51          1           0      -13.581708    1.526957   -1.596074
     52          1           0      -12.575354    2.665729   -0.861111
     53          1           0       11.585375   -0.681527    3.383881
     54          1           0       10.113099   -0.448763    2.715388
     55          1           0       11.492162    0.583906    2.402076
     56          1           0       10.746854   -3.124688    0.410310
     57          1           0       10.959555   -3.051103    2.219797
     58          1           0        9.515146   -2.153577    1.252677
     59          1           0      -11.696944    0.650163    2.564267
     60          1           0      -10.426732   -0.741739    2.537966
     61          1           0      -12.028529   -0.693851    3.309633
     62          1           0      -13.044371   -2.849610    1.706404
     63          1           0      -11.556311   -2.984835    0.734534
     64          1           0      -12.943825   -2.461893   -0.202755
     65          1           0        8.762216   -0.183775    0.419664
     66          1           0      -10.034551   -2.053475   -0.935826
     67          1           0       10.093885    1.065631   -2.388575
     68          1           0       12.076221    1.341412   -2.604573
     69          1           0       11.252835   -0.152188   -3.240029
     70          1           0      -11.470390    1.303356   -3.098098
     71          1           0      -10.072891    0.434295   -2.200468
     72          1           0      -10.314435    2.289337   -2.076520
     73          1           0       14.977119   -2.763365    0.290281
     74          1           0      -15.347519    1.782443    1.144499
     75          1           0       10.153736    2.369757   -0.272733
     76          1           0       -8.790420    0.364514    0.126113
     77          1           0        8.486594    4.549007   -0.203894
     78          1           0        7.297981    4.282742    0.933597
     79          1           0        8.821113    3.793813    1.371321
     80          1           0       -8.151035   -3.301319    0.072300
     81          1           0       -8.188888   -3.116861   -1.718305
     82          1           0       -6.521403   -3.352153   -0.608851
     83          1           0        7.028479    0.531344   -0.355012
     84          1           0       -6.551979    0.437472   -0.016360
     85          1           0        5.427367    3.255324    0.548682
     86          1           0       -5.023898   -2.240520   -0.541507
     87          1           0        4.404852    0.215458   -0.511607
     88          1           0       -4.230535    0.633168    0.034708
     89          1           0        3.449528    3.441949    1.517298
     90          1           0        1.713179    3.405616    0.904259
     91          1           0        3.016360    3.864468   -0.000153
     92          1           0       -2.680204   -2.970833   -0.170516
     93          1           0       -2.900025   -2.403024   -1.667218
     94          1           0       -1.298968   -2.507649   -1.009910
     95          1           0        2.504027   -0.121897   -0.523909
     96          1           0       -1.857542    1.130244    0.334537
     97          1           0        0.168490    1.831779    0.724004
     98          1           0        0.051495   -1.129102   -0.725979
 ---------------------------------------------------------------------

 SCF Done:  E(RCAM-B3LYP) =  -1706.99391257     A.U. after   14 cycles

 Excitation energies and oscillator strengths:

 Excited State   1:      Singlet-A      2.5659 eV  483.19 nm  f=3.6511  <S**2>=0.000
     155 ->158         0.14278
     156 ->157         0.69223
 This state for optimization and/or second-order correction.
 Total Energy, E(TD-HF/TD-DFT) =  -1706.89961627
 Copying the excited state density for this state as the 1-particle RhoCI density.

 The electronic state is 1-A.
 Alpha  occ. eigenvalues --  -19.22258 -19.21372 -10.31999 -10.30433 -10.29364
 Alpha  occ. eigenvalues --  -10.28161 -10.27970 -10.27900 -10.27777 -10.27570
 Alpha  occ. eigenvalues --  -10.27492 -10.27379 -10.27149 -10.27139 -10.27123
 Alpha  occ. eigenvalues --  -10.27076 -10.26831 -10.26762 -10.26705 -10.26519
 Alpha  occ. eigenvalues --  -10.26449 -10.26424 -10.26295 -10.26246 -10.26181
 Alpha  occ. eigenvalues --  -10.26151 -10.26046 -10.25931 -10.25904 -10.25847
 Alpha  occ. eigenvalues --  -10.25814 -10.25709 -10.25595 -10.25355 -10.25331
 Alpha  occ. eigenvalues --  -10.25286 -10.25115 -10.24736 -10.24458 -10.24381
 Alpha  occ. eigenvalues --  -10.23457 -10.22975  -1.09097  -1.07923  -0.94047
 Alpha  occ. eigenvalues --   -0.93837  -0.92069  -0.91245  -0.90366  -0.89361
 Alpha  occ. eigenvalues --   -0.87564  -0.87148  -0.86250  -0.85412  -0.84808
 Alpha  occ. eigenvalues --   -0.82851  -0.81766  -0.80268  -0.79783  -0.78794
 Alpha  occ. eigenvalues --   -0.77098  -0.76896  -0.76499  -0.76335  -0.75628
 Alpha  occ. eigenvalues --   -0.75312  -0.74800  -0.74356  -0.74039  -0.70757
 Alpha  occ. eigenvalues --   -0.68210  -0.67149  -0.65961  -0.65091  -0.64672
 Alpha  occ. eigenvalues --   -0.64417  -0.62849  -0.60551  -0.60266  -0.59768
 Alpha  occ. eigenvalues --   -0.58984  -0.58450  -0.58175  -0.57452  -0.56100
 Alpha  occ. eigenvalues --   -0.55711  -0.55094  -0.54743  -0.54142  -0.53704
 Alpha  occ. eigenvalues --   -0.52897  -0.52310  -0.51824  -0.51093  -0.51013
 Alpha  occ. eigenvalues --   -0.50642  -0.50138  -0.49978  -0.49625  -0.49128
 Alpha  occ. eigenvalues --   -0.48843  -0.48397  -0.48367  -0.47943  -0.47684
 Alpha  occ. eigenvalues --   -0.47594  -0.47216  -0.47054  -0.46295  -0.46138
 Alpha  occ. eigenvalues --   -0.46103  -0.45692  -0.45454  -0.44967  -0.44471
 Alpha  occ. eigenvalues --   -0.44428  -0.44267  -0.43908  -0.43629  -0.43136
 Alpha  occ. eigenvalues --   -0.42740  -0.42554  -0.42205  -0.42093  -0.41810
 Alpha  occ. eigenvalues --   -0.41699  -0.41644  -0.41285  -0.41209  -0.40927
 Alpha  occ. eigenvalues --   -0.40542  -0.40477  -0.40174  -0.39691  -0.39588
 Alpha  occ. eigenvalues --   -0.39161  -0.39055  -0.38796  -0.38304  -0.38210
 Alpha  occ. eigenvalues --   -0.37925  -0.37442  -0.36699  -0.36169  -0.35980
 Alpha  occ. eigenvalues --   -0.35505  -0.34692  -0.33722  -0.32518  -0.32122
 Alpha  occ. eigenvalues --   -0.31933  -0.29565  -0.28377  -0.27263  -0.24535
 Alpha  occ. eigenvalues --   -0.20256
 Alpha virt. eigenvalues --   -0.04960   0.00258   0.04092   0.06119   0.06954
 Alpha virt. eigenvalues --    0.08643   0.10080   0.10655   0.11978   0.12075
 Alpha virt. eigenvalues --    0.12120   0.12465   0.12614   0.13414   0.13606

 Mulliken charges:
               1
     1  O   -0.557457
     2  O   -0.567823
     3  C   -0.012387
     4  C    0.006043
     5  C   -0.218844
     6  C   -0.203299
     7  C    0.158431
     8  C    0.169808
     9  C    0.053399
    10  C    0.069541
    11  C   -0.222228
    12  C   -0.213302
    13  C    0.073262
    14  C    0.058359
    15  C   -0.290282
    16  C   -0.296820
    17  C   -0.326752
    18  C   -0.295425
    19  C   -0.125069
    20  C   -0.184344
    21  C   -0.350998
    22  C   -0.345150
    23  C   -0.098941
    24  C   -0.021844
    25  C    0.051932
    26  C    0.086846
    27  C   -0.378827
    28  C   -0.357565
    29  C   -0.094121
    30  C   -0.124558
    31  C   -0.105467
    32  C   -0.086436
    33  C   -0.118917
    34  C   -0.114894
    35  C    0.148023
    36  C    0.102991
    37  C   -0.381512
    38  C   -0.372576
    39  C   -0.148126
    40  C   -0.122005
    41  C   -0.091195
    42  C   -0.061729
    43  H    0.108147
    44  H    0.079731
    45  H    0.077951
    46  H    0.099867
    47  H    0.087335
    48  H    0.070597
    49  H    0.108422
    50  H    0.115923
    51  H    0.132298
    52  H    0.102403
    53  H    0.085632
    54  H    0.102591
    55  H    0.111990
    56  H    0.083452
    57  H    0.097106
    58  H    0.099794
    59  H    0.099749
    60  H    0.077583
    61  H    0.092626
    62  H    0.095293
    63  H    0.122918
    64  H    0.087774
    65  H    0.088364
    66  H    0.083101
    67  H    0.107383
    68  H    0.094264
    69  H    0.117399
    70  H    0.085708
    71  H    0.122047
    72  H    0.107566
    73  H    0.310841
    74  H    0.301443
    75  H    0.089454
    76  H    0.084740
    77  H    0.122348
    78  H    0.100042
    79  H    0.136125
    80  H    0.143018
    81  H    0.095280
    82  H    0.098371
    83  H    0.081341
    84  H    0.074206
    85  H    0.090583
    86  H    0.067112
    87  H    0.083406
    88  H    0.073840
    89  H    0.103378
    90  H    0.098372
    91  H    0.141271
    92  H    0.133312
    93  H    0.130779
    94  H    0.097189
    95  H    0.072470
    96  H    0.083294
    97  H    0.069876
    98  H    0.083150
 Sum of Mulliken charges =  -0.00000

 Dipole moment (field-independent basis, Debye):
    X=              0.3316    Y=             -1.0682    Z=              2.3265  Tot=              2.5814
 Quadrupole moment (field-independent basis, Debye-Ang):
   XX=           -263.8969   YY=           -244.3986   ZZ=           -261.6146
   XY=             19.5301   XZ=              5.2698   YZ=              1.4511

 Normal termination of Gaussian 16 at Sat Jun 29 05:37:52 2019.
