 Gaussian 16, Revision A.03,
 Gaussian 16:  ES64L-G16RevA.03 25-Dec-2016

 -------------------------------------
 # td=(NStates=1) CAM-B3LYP/6-31G(d,p)
 -------------------------------------

 --
 TD
 --
 Symbolic Z-matrix:
 Charge =  0 Multiplicity = 1

                         Standard orientation:
 ---------------------------------------------------------------------
 Center     Atomic      Atomic             Coordinates (Angstroms)
 Number     Number       Type             X           Y           Z
 ---------------------------------------------------------------------
      1          8           0       14.725277   -2.288171   -0.456022
      2          8           0      -14.921734    1.645968    0.906159
      3          6           0       11.549181   -1.159333    1.279705
      4          6           0      -12.290341   -1.067024    0.886014
      5          6           0       12.975158   -1.494505    1.103803
      6          6           0      -13.615735   -0.371397    0.902603
      7          6           0       13.335589   -1.924320   -0.258864
      8          6           0      -13.650093    1.199427    0.888831
      9          6           0       10.983321   -0.365198    0.051307
     10          6           0      -11.419118   -0.322779   -0.175115
     11          6           0       13.034093   -0.910518   -1.268493
     12          6           0      -13.059692    1.575031   -0.389622
     13          6           0       11.650904   -0.379958   -1.141594
     14          6           0      -11.733704    0.914129   -0.728771
     15          6           0       11.319725   -0.342880    2.574211
     16          6           0       10.770185   -2.448928    1.321418
     17          6           0      -11.691280   -0.921427    2.232580
     18          6           0      -12.468090   -2.573453    0.575171
     19          6           0        9.641215    0.290173    0.278078
     20          6           0      -10.103892   -0.971196   -0.434928
     21          6           0       11.192778    0.462148   -2.339527
     22          6           0      -10.921652    1.579861   -1.802842
     23          6           0        9.378800    1.575702   -0.001022
     24          6           0       -8.890998   -0.403193   -0.369866
     25          6           0        8.107271    2.319779    0.108067
     26          6           0       -7.603688   -1.157589   -0.579926
     27          6           0        8.108274    3.753683    0.360463
     28          6           0       -7.666415   -2.653946   -0.870713
     29          6           0        6.952253    1.578039   -0.017890
     30          6           0       -6.434064   -0.450845   -0.660609
     31          6           0        5.573570    2.006469    0.214452
     32          6           0       -5.082035   -0.985194   -0.870840
     33          6           0        4.495618    1.257653   -0.018087
     34          6           0       -4.000729   -0.166841   -0.533742
     35          6           0        3.117046    1.692720    0.107934
     36          6           0       -2.585315   -0.637005   -0.594081
     37          6           0        2.897874    3.104000    0.578404
     38          6           0       -2.342812   -2.004949   -1.248697
     39          6           0        2.184612    0.749916   -0.057671
     40          6           0       -1.598678    0.247379   -0.282048
     41          6           0        0.649711    1.017917    0.053576
     42          6           0       -0.197948    0.058241   -0.281632
     43          1           0       13.458565   -0.450290    1.338031
     44          1           0       13.416959   -2.226630    1.999079
     45          1           0      -14.174170   -0.857479    1.872506
     46          1           0      -14.334745   -0.861904    0.134069
     47          1           0       12.682003   -2.840447   -0.600353
     48          1           0      -13.031532    1.572935    1.856488
     49          1           0       13.632488   -0.091611   -1.085856
     50          1           0       13.069940   -1.302045   -2.301751
     51          1           0      -13.613262    1.483304   -1.346096
     52          1           0      -12.713845    2.623583   -0.618958
     53          1           0       11.755339   -0.796761    3.410053
     54          1           0       10.177507   -0.114220    2.610473
     55          1           0       11.854967    0.618132    2.422012
     56          1           0       11.043374   -3.074920    0.496415
     57          1           0       10.869421   -2.972325    2.410281
     58          1           0        9.546766   -2.385774    1.169995
     59          1           0      -11.873162    0.150183    2.694288
     60          1           0      -10.582965   -1.311233    2.377430
     61          1           0      -12.186330   -1.640336    2.815271
     62          1           0      -13.174006   -3.075773    1.385626
     63          1           0      -11.462282   -3.159441    0.708104
     64          1           0      -12.843650   -2.370994   -0.599525
     65          1           0        8.998331   -0.455997    0.735470
     66          1           0      -10.193756   -2.073181   -0.558922
     67          1           0       10.027188    0.912359   -2.411376
     68          1           0       11.725347    1.248834   -2.509029
     69          1           0       11.139774   -0.250497   -3.221227
     70          1           0      -11.730562    2.082591   -2.367992
     71          1           0      -10.069049    0.832419   -2.059500
     72          1           0      -10.280276    2.644328   -1.497074
     73          1           0       15.123340   -2.792679    0.352116
     74          1           0      -15.265532    1.220260    1.617714
     75          1           0       10.360400    2.186029   -0.286004
     76          1           0       -9.075030    0.581648   -0.126360
     77          1           0        8.880276    4.219292   -0.174900
     78          1           0        7.043133    4.242977    0.172455
     79          1           0        8.184402    3.916026    1.512916
     80          1           0       -7.762266   -3.229531    0.245072
     81          1           0       -8.677667   -2.850634   -1.590698
     82          1           0       -6.711021   -2.866447   -1.260553
     83          1           0        7.206149    0.529813   -0.251017
     84          1           0       -6.430092    0.559882   -0.202176
     85          1           0        5.368986    3.076076    0.731142
     86          1           0       -5.081698   -1.967801   -1.534580
     87          1           0        4.726516    0.180974   -0.321141
     88          1           0       -4.049494    0.675760   -0.086182
     89          1           0        3.749487    3.417494    1.454838
     90          1           0        1.794830    3.331259    0.847725
     91          1           0        3.283586    3.689724   -0.217573
     92          1           0       -2.734287   -2.905468   -0.706548
     93          1           0       -2.763135   -2.140028   -2.200294
     94          1           0       -1.180247   -2.158764   -1.437092
     95          1           0        2.360091   -0.182867   -0.444424
     96          1           0       -1.835763    1.106433    0.195139
     97          1           0        0.407034    2.214092    0.197430
     98          1           0        0.149888   -0.791452   -0.886277
 ---------------------------------------------------------------------

 SCF Done:  E(RCAM-B3LYP) =  -1706.92992472     A.U. after   13 cycles

 Excitation energies and oscillator strengths:

 Excited State   1:      Singlet-A      3.0078 eV  412.21 nm  f=3.5784  <S**2>=0.000
     155 ->158        -0.21111
     156 ->157         0.66570
 This state for optimization and/or second-order correction.
 Total Energy, E(TD-HF/TD-DFT) =  -1706.81939172
 Copying the excited state density for this state as the 1-particle RhoCI density.

 The electronic state is 1-A.
 Alpha  occ. eigenvalues --  -19.21635 -19.21244 -10.32359 -10.30755 -10.28311
 Alpha  occ. eigenvalues --  -10.28229 -10.28147 -10.28129 -10.27895 -10.27720
 Alpha  occ. eigenvalues --  -10.27716 -10.27345 -10.27301 -10.27199 -10.27137
 Alpha  occ. eigenvalues --  -10.27106 -10.27092 -10.26981 -10.26978 -10.26859
 Alpha  occ. eigenvalues --  -10.26788 -10.26543 -10.26336 -10.26295 -10.26283
 Alpha  occ. eigenvalues --  -10.26263 -10.26136 -10.26111 -10.26072 -10.26037
 Alpha  occ. eigenvalues --  -10.26022 -10.26013 -10.25867 -10.25788 -10.25516
 Alpha  occ. eigenvalues --  -10.25454 -10.25303 -10.25158 -10.25092 -10.25079
 Alpha  occ. eigenvalues --  -10.24865 -10.24340  -1.14633  -1.07215  -0.94368
 Alpha  occ. eigenvalues --   -0.93809  -0.92083  -0.91315  -0.90315  -0.89815
 Alpha  occ. eigenvalues --   -0.88010  -0.87655  -0.87112  -0.85499  -0.84885
 Alpha  occ. eigenvalues --   -0.83000  -0.81571  -0.80308  -0.79781  -0.77972
 Alpha  occ. eigenvalues --   -0.76255  -0.76137  -0.75994  -0.75568  -0.75513
 Alpha  occ. eigenvalues --   -0.74908  -0.74769  -0.74553  -0.73752  -0.70042
 Alpha  occ. eigenvalues --   -0.68883  -0.67903  -0.65861  -0.64539  -0.63690
 Alpha  occ. eigenvalues --   -0.62959  -0.62182  -0.61833  -0.61038  -0.59777
 Alpha  occ. eigenvalues --   -0.59155  -0.58673  -0.58293  -0.57753  -0.56728
 Alpha  occ. eigenvalues --   -0.56103  -0.55460  -0.54991  -0.54005  -0.53558
 Alpha  occ. eigenvalues --   -0.53011  -0.52710  -0.52247  -0.51469  -0.51008
 Alpha  occ. eigenvalues --   -0.50946  -0.49963  -0.49723  -0.49501  -0.49332
 Alpha  occ. eigenvalues --   -0.48674  -0.48534  -0.48341  -0.48253  -0.47926
 Alpha  occ. eigenvalues --   -0.47375  -0.47264  -0.46955  -0.46477  -0.45983
 Alpha  occ. eigenvalues --   -0.45669  -0.45452  -0.45315  -0.45176  -0.44830
 Alpha  occ. eigenvalues --   -0.44801  -0.44396  -0.44258  -0.44035  -0.43407
 Alpha  occ. eigenvalues --   -0.43050  -0.43006  -0.42500  -0.42221  -0.41966
 Alpha  occ. eigenvalues --   -0.41527  -0.41351  -0.40932  -0.40503  -0.40270
 Alpha  occ. eigenvalues --   -0.40010  -0.39925  -0.39553  -0.39202  -0.39069
 Alpha  occ. eigenvalues --   -0.38759  -0.38474  -0.38105  -0.37896  -0.37765
 Alpha  occ. eigenvalues --   -0.37653  -0.37031  -0.36922  -0.36444  -0.36003
 Alpha  occ. eigenvalues --   -0.35820  -0.34404  -0.33623  -0.32350  -0.31961
 Alpha  occ. eigenvalues --   -0.31860  -0.29418  -0.28020  -0.26431  -0.23980
 Alpha  occ. eigenvalues --   -0.21593
 Alpha virt. eigenvalues --   -0.03603  -0.00358   0.03076   0.05711   0.07383
 Alpha virt. eigenvalues --    0.08826   0.09802   0.10541   0.11109   0.11744
 Alpha virt. eigenvalues --    0.11962   0.12287   0.12344   0.12535   0.13156

 Mulliken charges:
               1
     1  O   -0.587381
     2  O   -0.505553
     3  C   -0.007028
     4  C    0.009063
     5  C   -0.191646
     6  C   -0.218601
     7  C    0.202730
     8  C    0.184363
     9  C    0.024689
    10  C    0.031443
    11  C   -0.188736
    12  C   -0.219503
    13  C    0.016234
    14  C    0.056168
    15  C   -0.293178
    16  C   -0.277402
    17  C   -0.276916
    18  C   -0.292606
    19  C   -0.099255
    20  C   -0.148555
    21  C   -0.348933
    22  C   -0.355729
    23  C   -0.118628
    24  C   -0.073756
    25  C    0.106634
    26  C    0.074336
    27  C   -0.368736
    28  C   -0.328523
    29  C   -0.123987
    30  C   -0.120073
    31  C   -0.094388
    32  C   -0.104620
    33  C   -0.097581
    34  C   -0.080622
    35  C    0.132699
    36  C    0.102654
    37  C   -0.368273
    38  C   -0.377337
    39  C   -0.130295
    40  C   -0.119300
    41  C   -0.097271
    42  C   -0.079581
    43  H    0.086150
    44  H    0.063574
    45  H    0.045369
    46  H    0.096645
    47  H    0.067599
    48  H    0.066780
    49  H    0.128032
    50  H    0.111536
    51  H    0.129726
    52  H    0.102109
    53  H    0.105860
    54  H    0.102532
    55  H    0.098914
    56  H    0.113530
    57  H    0.075997
    58  H    0.070026
    59  H    0.085576
    60  H    0.091073
    61  H    0.100098
    62  H    0.095066
    63  H    0.102715
    64  H    0.094826
    65  H    0.097044
    66  H    0.072052
    67  H    0.094183
    68  H    0.131270
    69  H    0.097097
    70  H    0.110884
    71  H    0.134219
    72  H    0.071413
    73  H    0.305704
    74  H    0.295543
    75  H    0.078236
    76  H    0.092769
    77  H    0.121835
    78  H    0.102122
    79  H    0.115781
    80  H    0.099141
    81  H    0.102669
    82  H    0.110361
    83  H    0.081421
    84  H    0.084336
    85  H    0.063438
    86  H    0.095410
    87  H    0.083760
    88  H    0.071211
    89  H    0.097182
    90  H    0.106048
    91  H    0.142106
    92  H    0.117838
    93  H    0.131880
    94  H    0.086205
    95  H    0.082889
    96  H    0.073745
    97  H    0.080309
    98  H    0.089151
 Sum of Mulliken charges =  -0.00000

 Dipole moment (field-independent basis, Debye):
    X=             -0.1891    Y=             -0.6019    Z=              1.9052  Tot=              2.0070
 Quadrupole moment (field-independent basis, Debye-Ang):
   XX=           -271.1491   YY=           -250.0287   ZZ=           -261.8198
   XY=             16.9792   XZ=              3.2139   YZ=             -1.1149

 Normal termination of Gaussian 16 at Sun Jun 30 18:09:44 2019.
