 Gaussian 16, Revision A.03,
 Gaussian 16:  ES64L-G16RevA.03 25-Dec-2016

 -------------------------------------
 # td=(NStates=1) CAM-B3LYP/6-31G(d,p)
 -------------------------------------

 --
 TD
 --
 Symbolic Z-matrix:
 Charge =  0 Multiplicity = 1

                         Standard orientation:
 ---------------------------------------------------------------------
 Center     Atomic      Atomic             Coordinates (Angstroms)
 Number     Number       Type             X           Y           Z
 ---------------------------------------------------------------------
      1          8           0       14.900359   -2.044605   -0.595712
      2          8           0      -14.772330    2.067805    0.687674
      3          6           0       11.672321   -0.964366    1.284307
      4          6           0      -12.331420   -0.927851    0.721446
      5          6           0       13.232453   -1.320315    0.963453
      6          6           0      -13.670271   -0.193179    0.738234
      7          6           0       13.483534   -1.952756   -0.411104
      8          6           0      -13.491837    1.334717    0.672034
      9          6           0       10.990617   -0.179929    0.045930
     10          6           0      -11.400456   -0.271279   -0.232060
     11          6           0       13.054460   -0.815489   -1.415064
     12          6           0      -12.808617    1.824984   -0.419164
     13          6           0       11.647837   -0.266996   -1.173691
     14          6           0      -11.657272    0.892554   -0.802122
     15          6           0       11.553985   -0.131479    2.495479
     16          6           0       10.844815   -2.308279    1.586203
     17          6           0      -11.752008   -0.671185    2.147432
     18          6           0      -12.626307   -2.416671    0.336021
     19          6           0        9.727375    0.373100    0.302116
     20          6           0      -10.137904   -1.121751   -0.459029
     21          6           0       11.122116    0.428788   -2.373958
     22          6           0      -10.759214    1.500517   -1.922159
     23          6           0        9.330085    1.681915   -0.061410
     24          6           0       -8.869583   -0.593387   -0.222275
     25          6           0        8.001085    2.210459   -0.071689
     26          6           0       -7.696304   -1.318606   -0.390962
     27          6           0        7.980038    3.708721    0.224721
     28          6           0       -7.682710   -2.812535   -0.858805
     29          6           0        6.839583    1.513186   -0.073308
     30          6           0       -6.470991   -0.676625   -0.278172
     31          6           0        5.471771    1.933021    0.104178
     32          6           0       -5.165378   -1.221252   -0.340269
     33          6           0        4.416537    1.140735    0.036361
     34          6           0       -4.108146   -0.379102   -0.205366
     35          6           0        3.039290    1.492173    0.142933
     36          6           0       -2.705844   -0.806727   -0.340049
     37          6           0        2.751758    2.845812    0.538025
     38          6           0       -2.372704   -2.209410   -0.804331
     39          6           0        2.078712    0.607700   -0.058831
     40          6           0       -1.686014    0.068748   -0.134190
     41          6           0        0.610641    0.785317    0.021782
     42          6           0       -0.342300   -0.103739   -0.229795
     43          1           0       13.751736   -0.386436    1.375660
     44          1           0       13.576624   -1.862978    1.745206
     45          1           0      -14.480082   -0.283348    1.552741
     46          1           0      -14.229193   -0.431861   -0.244448
     47          1           0       13.173112   -2.928946   -0.561548
     48          1           0      -12.952110    1.553918    1.577531
     49          1           0       13.836784    0.006728   -1.278513
     50          1           0       12.936366   -1.230675   -2.339419
     51          1           0      -13.490070    1.997754   -1.255101
     52          1           0      -12.301705    2.777560   -0.161375
     53          1           0       12.283352   -0.510972    3.213422
     54          1           0       10.556374   -0.116485    2.885802
     55          1           0       11.882761    0.900324    2.213127
     56          1           0       10.844216   -3.258070    0.805091
     57          1           0       11.199039   -2.728490    2.493518
     58          1           0        9.597460   -2.205285    1.608161
     59          1           0      -11.483524    0.219511    2.597065
     60          1           0      -10.664275   -1.233649    2.164961
     61          1           0      -12.291883   -1.183473    2.946953
     62          1           0      -13.414358   -2.810998    0.890031
     63          1           0      -11.862371   -2.991192    0.669308
     64          1           0      -12.749263   -2.393369   -0.691112
     65          1           0        8.842828   -0.404855    0.466800
     66          1           0      -10.160951   -2.167710   -0.948924
     67          1           0       10.079250    0.615696   -2.177391
     68          1           0       11.621142    1.326012   -2.724463
     69          1           0       11.071277   -0.091258   -3.349264
     70          1           0      -11.185776    1.940995   -3.027880
     71          1           0      -10.026305    0.691270   -2.091860
     72          1           0      -10.282609    2.436625   -1.668864
     73          1           0       15.284998   -2.447912    0.327866
     74          1           0      -15.144194    1.660730    1.479056
     75          1           0       10.141305    2.342172   -0.429570
     76          1           0       -8.710340    0.398687    0.121623
     77          1           0        8.579216    4.105361   -0.577340
     78          1           0        6.864957    4.073811    0.361608
     79          1           0        8.491994    3.888538    1.236509
     80          1           0       -8.600315   -3.350692   -0.523990
     81          1           0       -8.154591   -2.915185   -1.768982
     82          1           0       -6.652127   -3.317440   -0.754013
     83          1           0        6.888951    0.365471   -0.173641
     84          1           0       -6.331797    0.327580    0.102698
     85          1           0        5.296857    2.979824    0.304967
     86          1           0       -5.009947   -2.101307   -0.831166
     87          1           0        4.657975    0.129658   -0.420441
     88          1           0       -4.246420    0.759845    0.118314
     89          1           0        3.200685    3.122500    1.546326
     90          1           0        1.813216    3.104553    0.818301
     91          1           0        3.097043    3.493896   -0.138935
     92          1           0       -2.712435   -2.888042    0.157129
     93          1           0       -3.101046   -2.385783   -1.746374
     94          1           0       -1.441019   -2.390824   -1.071793
     95          1           0        2.232860   -0.319616   -0.433154
     96          1           0       -1.938931    1.184616    0.290873
     97          1           0        0.222152    1.829022    0.496768
     98          1           0       -0.113536   -1.158631   -0.410681
 ---------------------------------------------------------------------

 SCF Done:  E(RCAM-B3LYP) =  -1706.96866571     A.U. after   14 cycles

 Excitation energies and oscillator strengths:

 Excited State   1:      Singlet-A      2.7162 eV  456.46 nm  f=3.8998  <S**2>=0.000
     155 ->158         0.19338
     156 ->157         0.67303
 This state for optimization and/or second-order correction.
 Total Energy, E(TD-HF/TD-DFT) =  -1706.86884675
 Copying the excited state density for this state as the 1-particle RhoCI density.

 The electronic state is 1-A.
 Alpha  occ. eigenvalues --  -19.21159 -19.20492 -10.30353 -10.28365 -10.28261
 Alpha  occ. eigenvalues --  -10.27891 -10.27890 -10.27802 -10.27669 -10.27577
 Alpha  occ. eigenvalues --  -10.27416 -10.27323 -10.27297 -10.27165 -10.27094
 Alpha  occ. eigenvalues --  -10.27005 -10.26933 -10.26757 -10.26664 -10.26628
 Alpha  occ. eigenvalues --  -10.26601 -10.26552 -10.26179 -10.26159 -10.26139
 Alpha  occ. eigenvalues --  -10.26115 -10.26105 -10.26008 -10.25956 -10.25758
 Alpha  occ. eigenvalues --  -10.25721 -10.25708 -10.25541 -10.25509 -10.25474
 Alpha  occ. eigenvalues --  -10.25213 -10.24862 -10.24177 -10.23993 -10.23800
 Alpha  occ. eigenvalues --  -10.23649 -10.23423  -1.08131  -1.07347  -0.94325
 Alpha  occ. eigenvalues --   -0.93283  -0.92515  -0.92296  -0.91028  -0.90309
 Alpha  occ. eigenvalues --   -0.88049  -0.87022  -0.86838  -0.85882  -0.84763
 Alpha  occ. eigenvalues --   -0.83648  -0.82969  -0.79813  -0.79622  -0.79151
 Alpha  occ. eigenvalues --   -0.77985  -0.76950  -0.76516  -0.75966  -0.75705
 Alpha  occ. eigenvalues --   -0.75419  -0.75153  -0.74456  -0.74169  -0.71179
 Alpha  occ. eigenvalues --   -0.69232  -0.67707  -0.66011  -0.65410  -0.64829
 Alpha  occ. eigenvalues --   -0.63403  -0.62801  -0.62250  -0.61201  -0.60645
 Alpha  occ. eigenvalues --   -0.59842  -0.58640  -0.57865  -0.57541  -0.56358
 Alpha  occ. eigenvalues --   -0.55769  -0.55186  -0.55090  -0.54835  -0.54320
 Alpha  occ. eigenvalues --   -0.53239  -0.53110  -0.52720  -0.51618  -0.51156
 Alpha  occ. eigenvalues --   -0.50798  -0.50618  -0.50488  -0.50036  -0.49280
 Alpha  occ. eigenvalues --   -0.49129  -0.48506  -0.48226  -0.48019  -0.47880
 Alpha  occ. eigenvalues --   -0.47693  -0.47538  -0.47126  -0.46341  -0.46243
 Alpha  occ. eigenvalues --   -0.46216  -0.45768  -0.45562  -0.45094  -0.45031
 Alpha  occ. eigenvalues --   -0.44763  -0.44568  -0.44345  -0.43960  -0.43690
 Alpha  occ. eigenvalues --   -0.43320  -0.43000  -0.42873  -0.42460  -0.42252
 Alpha  occ. eigenvalues --   -0.42023  -0.41556  -0.41314  -0.40844  -0.40707
 Alpha  occ. eigenvalues --   -0.40575  -0.40202  -0.39563  -0.39434  -0.39361
 Alpha  occ. eigenvalues --   -0.38850  -0.38770  -0.38512  -0.38418  -0.38252
 Alpha  occ. eigenvalues --   -0.38207  -0.37586  -0.36783  -0.36140  -0.35761
 Alpha  occ. eigenvalues --   -0.35130  -0.34815  -0.33689  -0.32088  -0.31585
 Alpha  occ. eigenvalues --   -0.31387  -0.29592  -0.28534  -0.26888  -0.24122
 Alpha  occ. eigenvalues --   -0.21134
 Alpha virt. eigenvalues --   -0.04806  -0.01340   0.02310   0.05762   0.07468
 Alpha virt. eigenvalues --    0.08268   0.10379   0.10710   0.11724   0.12009
 Alpha virt. eigenvalues --    0.12393   0.12689   0.13022   0.13472   0.13855

 Mulliken charges:
               1
     1  O   -0.572899
     2  O   -0.563684
     3  C    0.005085
     4  C   -0.018464
     5  C   -0.219418
     6  C   -0.180114
     7  C    0.180455
     8  C    0.141673
     9  C    0.055907
    10  C    0.049075
    11  C   -0.188044
    12  C   -0.194530
    13  C    0.034088
    14  C    0.043728
    15  C   -0.308159
    16  C   -0.298031
    17  C   -0.317560
    18  C   -0.305455
    19  C   -0.130931
    20  C   -0.176942
    21  C   -0.380040
    22  C   -0.357141
    23  C   -0.108299
    24  C   -0.059220
    25  C    0.073793
    26  C    0.124809
    27  C   -0.349949
    28  C   -0.381054
    29  C   -0.114499
    30  C   -0.137339
    31  C   -0.067563
    32  C   -0.075179
    33  C   -0.120442
    34  C   -0.107270
    35  C    0.150074
    36  C    0.083045
    37  C   -0.379628
    38  C   -0.343359
    39  C   -0.131230
    40  C   -0.109899
    41  C   -0.106585
    42  C   -0.055527
    43  H    0.096398
    44  H    0.080821
    45  H    0.065872
    46  H    0.082838
    47  H    0.102859
    48  H    0.083382
    49  H    0.131045
    50  H    0.110311
    51  H    0.126821
    52  H    0.111249
    53  H    0.092700
    54  H    0.121132
    55  H    0.103102
    56  H    0.073097
    57  H    0.108941
    58  H    0.073628
    59  H    0.124994
    60  H    0.074328
    61  H    0.095741
    62  H    0.111500
    63  H    0.111911
    64  H    0.119941
    65  H    0.093332
    66  H    0.086523
    67  H    0.121318
    68  H    0.115266
    69  H    0.098592
    70  H    0.076746
    71  H    0.116982
    72  H    0.113215
    73  H    0.296690
    74  H    0.296722
    75  H    0.093365
    76  H    0.094803
    77  H    0.122455
    78  H    0.097060
    79  H    0.119564
    80  H    0.103827
    81  H    0.130477
    82  H    0.117208
    83  H    0.066603
    84  H    0.075231
    85  H    0.076656
    86  H    0.083394
    87  H    0.076777
    88  H    0.086288
    89  H    0.106283
    90  H    0.114259
    91  H    0.133749
    92  H    0.106471
    93  H    0.102754
    94  H    0.121125
    95  H    0.072053
    96  H    0.055744
    97  H    0.066520
    98  H    0.076053
 Sum of Mulliken charges =  -0.00000

 Dipole moment (field-independent basis, Debye):
    X=              1.4442    Y=             -1.5479    Z=              1.9870  Tot=              2.9034
 Quadrupole moment (field-independent basis, Debye-Ang):
   XX=           -295.4205   YY=           -248.4873   ZZ=           -259.6348
   XY=             22.1690   XZ=              5.8770   YZ=              1.6987

 Normal termination of Gaussian 16 at Thu Jun 27 12:47:41 2019.
