 Gaussian 16, Revision A.03,
 Gaussian 16:  ES64L-G16RevA.03 25-Dec-2016

 -------------------------------------
 # td=(NStates=1) CAM-B3LYP/6-31G(d,p)
 -------------------------------------

 --
 TD
 --
 Symbolic Z-matrix:
 Charge =  0 Multiplicity = 1

                         Standard orientation:
 ---------------------------------------------------------------------
 Center     Atomic      Atomic             Coordinates (Angstroms)
 Number     Number       Type             X           Y           Z
 ---------------------------------------------------------------------
      1          8           0       14.503668   -2.587426   -0.336599
      2          8           0      -14.898562    1.821194    0.482378
      3          6           0       11.394425   -0.935084    1.275727
      4          6           0      -12.366102   -1.030538    0.842578
      5          6           0       12.870319   -1.443189    1.093005
      6          6           0      -13.631889   -0.259482    0.738270
      7          6           0       13.132183   -2.043992   -0.183276
      8          6           0      -13.534257    1.343555    0.619828
      9          6           0       10.972917   -0.258848   -0.049663
     10          6           0      -11.352744   -0.433201   -0.175620
     11          6           0       12.884035   -1.164806   -1.364819
     12          6           0      -12.712946    1.636355   -0.576663
     13          6           0       11.614631   -0.341830   -1.206270
     14          6           0      -11.475466    0.739404   -0.830210
     15          6           0       11.388150    0.002846    2.487873
     16          6           0       10.555834   -2.191516    1.566343
     17          6           0      -11.656603   -0.690064    2.332022
     18          6           0      -12.449725   -2.485229    0.619868
     19          6           0        9.658744    0.386840    0.163238
     20          6           0      -10.041803   -1.214146   -0.272163
     21          6           0       11.005636    0.072773   -2.492941
     22          6           0      -10.644484    1.257442   -1.837596
     23          6           0        9.346172    1.660430   -0.241690
     24          6           0       -8.893571   -0.574003   -0.174404
     25          6           0        8.159432    2.359753   -0.041076
     26          6           0       -7.577974   -1.282313   -0.436094
     27          6           0        8.040843    3.773093    0.178550
     28          6           0       -7.500131   -2.781962   -0.847781
     29          6           0        6.978684    1.626905   -0.205753
     30          6           0       -6.432147   -0.545842   -0.349659
     31          6           0        5.598814    2.001637    0.135417
     32          6           0       -5.117575   -0.960301   -0.526495
     33          6           0        4.529419    1.311681    0.007607
     34          6           0       -3.967826   -0.271712   -0.280079
     35          6           0        3.140709    1.598641    0.228855
     36          6           0       -2.629822   -0.584297   -0.562082
     37          6           0        2.863988    3.180820    0.527070
     38          6           0       -2.286730   -1.974288   -0.981325
     39          6           0        2.099393    0.868183    0.036341
     40          6           0       -1.674608    0.265899   -0.108811
     41          6           0        0.622569    1.079289   -0.053415
     42          6           0       -0.246133    0.014484   -0.151547
     43          1           0       13.526172   -0.588222    1.187845
     44          1           0       13.032104   -1.811835    2.117003
     45          1           0      -14.332951   -0.559806    1.547398
     46          1           0      -14.191591   -0.580431   -0.319801
     47          1           0       12.488377   -2.957593   -0.306992
     48          1           0      -13.100738    1.784228    1.564638
     49          1           0       13.760024   -0.484838   -1.605393
     50          1           0       12.871192   -1.708267   -2.261591
     51          1           0      -13.339265    1.567206   -1.397753
     52          1           0      -12.091228    2.656362   -0.562841
     53          1           0       11.904555   -0.483447    3.375065
     54          1           0       10.370931    0.270858    2.946046
     55          1           0       11.914564    0.887581    2.292611
     56          1           0       10.457305   -2.856385    0.584330
     57          1           0       11.132284   -2.901596    2.379692
     58          1           0        9.527849   -1.880144    2.103002
     59          1           0      -11.800009    0.524545    2.660251
     60          1           0      -10.543101   -0.814139    2.458644
     61          1           0      -12.360241   -1.391547    2.989327
     62          1           0      -13.399544   -3.133134    0.988775
     63          1           0      -11.506522   -2.995856    0.876454
     64          1           0      -12.441390   -2.557905   -0.466042
     65          1           0        8.797637   -0.042115    0.821438
     66          1           0      -10.150649   -2.082848   -0.716294
     67          1           0        9.984340    0.826116   -2.400901
     68          1           0       11.825159    0.785225   -2.884217
     69          1           0       10.941299   -0.909824   -3.221057
     70          1           0      -11.224748    1.716709   -2.685954
     71          1           0      -10.065136    0.508532   -2.470513
     72          1           0      -10.062517    2.014743   -1.614315
     73          1           0       14.609771   -3.131922    0.513788
     74          1           0      -15.057749    2.247233    1.625372
     75          1           0       10.061801    2.162624   -0.610524
     76          1           0       -8.775827    0.410426    0.212089
     77          1           0        8.874551    4.039605   -0.372000
     78          1           0        7.013501    3.991710   -0.295783
     79          1           0        8.214612    4.043339    1.248560
     80          1           0       -7.634226   -3.521263    0.021584
     81          1           0       -8.414832   -3.037308   -1.462938
     82          1           0       -6.596737   -2.936450   -1.318195
     83          1           0        7.174542    0.420086   -0.347945
     84          1           0       -6.510221    0.536605    0.022114
     85          1           0        5.458329    3.115791    0.582569
     86          1           0       -5.087592   -1.929973   -1.125226
     87          1           0        4.833639    0.372305   -0.312877
     88          1           0       -4.025949    0.645643    0.345537
     89          1           0        3.586633    3.578662    1.420076
     90          1           0        1.838831    3.614490    0.866835
     91          1           0        3.265975    3.797622   -0.361062
     92          1           0       -2.909625   -2.864254   -0.511835
     93          1           0       -2.489362   -2.280629   -2.051153
     94          1           0       -1.124397   -2.289517   -0.957554
     95          1           0        2.316483   -0.212877    0.027411
     96          1           0       -1.841265    1.314271    0.408031
     97          1           0        0.274713    2.042532    0.174073
     98          1           0        0.193212   -1.081407   -0.304996
 ---------------------------------------------------------------------

 SCF Done:  E(RCAM-B3LYP) =  -1706.90380554     A.U. after   14 cycles

 Excitation energies and oscillator strengths:

 Excited State   1:      Singlet-A      2.9106 eV  425.97 nm  f=3.5950  <S**2>=0.000
     155 ->158         0.21288
     156 ->157         0.66641
 This state for optimization and/or second-order correction.
 Total Energy, E(TD-HF/TD-DFT) =  -1706.79684274
 Copying the excited state density for this state as the 1-particle RhoCI density.

 The electronic state is 1-A.
 Alpha  occ. eigenvalues --  -19.23093 -19.21136 -10.31128 -10.30733 -10.28142
 Alpha  occ. eigenvalues --  -10.28094 -10.28073 -10.27906 -10.27844 -10.27695
 Alpha  occ. eigenvalues --  -10.27668 -10.27625 -10.27552 -10.27520 -10.27485
 Alpha  occ. eigenvalues --  -10.27436 -10.27062 -10.27010 -10.26913 -10.26607
 Alpha  occ. eigenvalues --  -10.26452 -10.26411 -10.26359 -10.26339 -10.26258
 Alpha  occ. eigenvalues --  -10.26164 -10.26027 -10.26024 -10.25969 -10.25782
 Alpha  occ. eigenvalues --  -10.25715 -10.25640 -10.25635 -10.25446 -10.25319
 Alpha  occ. eigenvalues --  -10.25287 -10.25271 -10.24853 -10.24742 -10.24452
 Alpha  occ. eigenvalues --  -10.24113 -10.23720  -1.07060  -1.05759  -0.94461
 Alpha  occ. eigenvalues --   -0.93225  -0.92474  -0.92256  -0.90912  -0.90018
 Alpha  occ. eigenvalues --   -0.87813  -0.87607  -0.87329  -0.85868  -0.85302
 Alpha  occ. eigenvalues --   -0.83454  -0.81687  -0.81164  -0.80094  -0.76896
 Alpha  occ. eigenvalues --   -0.76634  -0.76311  -0.75884  -0.75577  -0.75513
 Alpha  occ. eigenvalues --   -0.75226  -0.74438  -0.73777  -0.73020  -0.70739
 Alpha  occ. eigenvalues --   -0.69046  -0.67087  -0.66072  -0.65138  -0.64111
 Alpha  occ. eigenvalues --   -0.63357  -0.62638  -0.61721  -0.60617  -0.59422
 Alpha  occ. eigenvalues --   -0.58975  -0.58200  -0.58032  -0.57421  -0.56130
 Alpha  occ. eigenvalues --   -0.55990  -0.55114  -0.54896  -0.53842  -0.53366
 Alpha  occ. eigenvalues --   -0.52953  -0.52279  -0.51990  -0.51462  -0.50861
 Alpha  occ. eigenvalues --   -0.50312  -0.50019  -0.49799  -0.49593  -0.49335
 Alpha  occ. eigenvalues --   -0.49244  -0.48765  -0.48334  -0.47726  -0.47118
 Alpha  occ. eigenvalues --   -0.46874  -0.46561  -0.46502  -0.46240  -0.46049
 Alpha  occ. eigenvalues --   -0.45936  -0.45588  -0.45363  -0.45197  -0.44729
 Alpha  occ. eigenvalues --   -0.44461  -0.44209  -0.43971  -0.43498  -0.43381
 Alpha  occ. eigenvalues --   -0.43233  -0.43030  -0.42606  -0.42339  -0.42133
 Alpha  occ. eigenvalues --   -0.41756  -0.41578  -0.41517  -0.41175  -0.40822
 Alpha  occ. eigenvalues --   -0.40008  -0.39730  -0.39713  -0.39125  -0.38954
 Alpha  occ. eigenvalues --   -0.38741  -0.38624  -0.38530  -0.38451  -0.37565
 Alpha  occ. eigenvalues --   -0.37331  -0.37166  -0.36048  -0.35764  -0.35548
 Alpha  occ. eigenvalues --   -0.34882  -0.34119  -0.33896  -0.32367  -0.32027
 Alpha  occ. eigenvalues --   -0.31598  -0.29951  -0.28250  -0.27007  -0.24002
 Alpha  occ. eigenvalues --   -0.21527
 Alpha virt. eigenvalues --   -0.04079  -0.00761   0.03048   0.05009   0.06266
 Alpha virt. eigenvalues --    0.08088   0.09619   0.10485   0.11418   0.11670
 Alpha virt. eigenvalues --    0.11817   0.12068   0.12298   0.12537   0.13294

 Mulliken charges:
               1
     1  O   -0.577376
     2  O   -0.541691
     3  C   -0.022870
     4  C    0.045339
     5  C   -0.199382
     6  C   -0.172436
     7  C    0.168599
     8  C    0.151835
     9  C    0.055816
    10  C   -0.002846
    11  C   -0.219700
    12  C   -0.202859
    13  C    0.068493
    14  C    0.070931
    15  C   -0.308224
    16  C   -0.274636
    17  C   -0.295587
    18  C   -0.325295
    19  C   -0.115111
    20  C   -0.119964
    21  C   -0.347410
    22  C   -0.379287
    23  C   -0.085314
    24  C   -0.062234
    25  C    0.080835
    26  C    0.076309
    27  C   -0.350853
    28  C   -0.360491
    29  C   -0.146051
    30  C   -0.116765
    31  C   -0.073501
    32  C   -0.088557
    33  C   -0.092961
    34  C   -0.125355
    35  C    0.134494
    36  C    0.163519
    37  C   -0.377389
    38  C   -0.383539
    39  C   -0.149559
    40  C   -0.148667
    41  C   -0.067137
    42  C   -0.078064
    43  H    0.101353
    44  H    0.090162
    45  H    0.082237
    46  H    0.072355
    47  H    0.078227
    48  H    0.075936
    49  H    0.116610
    50  H    0.123461
    51  H    0.130147
    52  H    0.080811
    53  H    0.089489
    54  H    0.099114
    55  H    0.119112
    56  H    0.101864
    57  H    0.077526
    58  H    0.093611
    59  H    0.059282
    60  H    0.118263
    61  H    0.086923
    62  H    0.092818
    63  H    0.115815
    64  H    0.113402
    65  H    0.094762
    66  H    0.084670
    67  H    0.106400
    68  H    0.104335
    69  H    0.102022
    70  H    0.100079
    71  H    0.114960
    72  H    0.128034
    73  H    0.303452
    74  H    0.294091
    75  H    0.063829
    76  H    0.090047
    77  H    0.112491
    78  H    0.121890
    79  H    0.125192
    80  H    0.118037
    81  H    0.108436
    82  H    0.119832
    83  H    0.061377
    84  H    0.069830
    85  H    0.062182
    86  H    0.069260
    87  H    0.071219
    88  H    0.079742
    89  H    0.089553
    90  H    0.103469
    91  H    0.113282
    92  H    0.113077
    93  H    0.117660
    94  H    0.094929
    95  H    0.068251
    96  H    0.094887
    97  H    0.082715
    98  H    0.092433
 Sum of Mulliken charges =  -0.00000

 Dipole moment (field-independent basis, Debye):
    X=              0.6469    Y=             -0.2849    Z=              2.2998  Tot=              2.4060
 Quadrupole moment (field-independent basis, Debye-Ang):
   XX=           -292.1431   YY=           -246.1256   ZZ=           -258.6472
   XY=              5.7960   XZ=              3.0920   YZ=              4.9336

 Normal termination of Gaussian 16 at Thu Jul  4 18:00:22 2019.
