 Gaussian 16, Revision A.03,
 Gaussian 16:  ES64L-G16RevA.03 25-Dec-2016

 -------------------------------------
 # td=(NStates=1) CAM-B3LYP/6-31G(d,p)
 -------------------------------------

 --
 TD
 --
 Symbolic Z-matrix:
 Charge =  0 Multiplicity = 1

                         Standard orientation:
 ---------------------------------------------------------------------
 Center     Atomic      Atomic             Coordinates (Angstroms)
 Number     Number       Type             X           Y           Z
 ---------------------------------------------------------------------
      1          8           0       14.776958   -2.077665   -0.141298
      2          8           0      -14.671596    2.101725    0.886823
      3          6           0       11.552931   -1.018562    1.279992
      4          6           0      -12.362930   -0.773721    0.848220
      5          6           0       13.060125   -1.232257    1.173164
      6          6           0      -13.672816   -0.101623    1.009865
      7          6           0       13.433121   -1.843517   -0.147691
      8          6           0      -13.459127    1.471000    0.836954
      9          6           0       10.959820   -0.137663    0.069092
     10          6           0      -11.399681   -0.275137   -0.149281
     11          6           0       13.050683   -0.699569   -1.243476
     12          6           0      -12.819448    1.807516   -0.488579
     13          6           0       11.762339   -0.136033   -1.082076
     14          6           0      -11.545188    0.985585   -0.651212
     15          6           0       11.202737   -0.227699    2.545284
     16          6           0       10.790245   -2.386309    1.255600
     17          6           0      -11.649560   -0.953073    2.196696
     18          6           0      -12.788465   -2.275698    0.435902
     19          6           0        9.692548    0.474136    0.275502
     20          6           0      -10.111646   -1.073005   -0.325467
     21          6           0       11.226520    0.586205   -2.311019
     22          6           0      -10.620560    1.434296   -1.835471
     23          6           0        9.335288    1.625819   -0.171333
     24          6           0       -8.870204   -0.580038   -0.229508
     25          6           0        8.037263    2.154853    0.067490
     26          6           0       -7.619952   -1.360047   -0.484126
     27          6           0        7.929263    3.630080    0.558993
     28          6           0       -7.851009   -2.686364   -0.878766
     29          6           0        6.884951    1.470922   -0.211595
     30          6           0       -6.453132   -0.588115   -0.433161
     31          6           0        5.517247    1.860468    0.035924
     32          6           0       -5.114223   -1.100892   -0.659980
     33          6           0        4.438961    1.019347   -0.200497
     34          6           0       -4.044793   -0.369158   -0.385844
     35          6           0        3.015277    1.409664    0.103561
     36          6           0       -2.744042   -0.991651   -0.622747
     37          6           0        2.850015    2.893555    0.557489
     38          6           0       -2.447109   -2.331475   -1.107148
     39          6           0        2.148089    0.511809   -0.243847
     40          6           0       -1.717394   -0.070491   -0.304156
     41          6           0        0.689542    0.754157   -0.084957
     42          6           0       -0.196006   -0.251359   -0.451284
     43          1           0       13.425595   -0.356274    1.509208
     44          1           0       13.233054   -2.043249    1.844305
     45          1           0      -14.153809   -0.357667    2.034815
     46          1           0      -14.341001   -0.287139    0.175971
     47          1           0       12.994447   -2.740670   -0.348821
     48          1           0      -12.872389    1.911532    1.474876
     49          1           0       13.645575    0.082514   -1.361938
     50          1           0       13.278652   -1.225961   -2.137221
     51          1           0      -13.577209    1.597112   -1.463608
     52          1           0      -12.352497    2.865320   -0.553150
     53          1           0       11.772492   -0.849143    3.258324
     54          1           0       10.137466   -0.201034    2.664281
     55          1           0       11.532878    0.739171    2.451160
     56          1           0       11.104413   -2.872568    0.312472
     57          1           0       11.208603   -2.918316    2.086890
     58          1           0        9.689055   -2.064304    1.527497
     59          1           0      -11.491648    0.110666    2.693700
     60          1           0      -10.706082   -1.423174    2.027197
     61          1           0      -12.162997   -1.482769    2.962370
     62          1           0      -13.739687   -2.561815    0.995968
     63          1           0      -11.884485   -2.843709    0.511220
     64          1           0      -13.165558   -2.363359   -0.645291
     65          1           0        8.882750   -0.109650    0.599032
     66          1           0      -10.318290   -1.994981   -0.411336
     67          1           0       10.156393    0.876815   -2.190973
     68          1           0       11.770488    1.408524   -2.656516
     69          1           0       11.495548   -0.007935   -3.335210
     70          1           0      -11.161074    2.112850   -2.679764
     71          1           0       -9.950440    0.816291   -2.199895
     72          1           0       -9.856783    2.171238   -1.231576
     73          1           0       15.005222   -2.554487    0.561445
     74          1           0      -14.997378    1.901053    1.804539
     75          1           0       10.135346    2.237059   -0.730802
     76          1           0       -8.838751    0.397000    0.109268
     77          1           0        8.697947    4.339835   -0.003224
     78          1           0        7.019897    4.204621    0.546943
     79          1           0        8.470264    3.659062    1.344905
     80          1           0       -8.539642   -3.302094   -0.147768
     81          1           0       -8.344515   -2.599881   -1.842926
     82          1           0       -6.810257   -3.253082   -0.997524
     83          1           0        6.874430    0.438235   -0.463661
     84          1           0       -6.559345    0.624761   -0.222541
     85          1           0        5.346481    2.929369    0.228975
     86          1           0       -5.091833   -2.261495   -1.043345
     87          1           0        4.895360   -0.066485   -0.696845
     88          1           0       -4.014679    0.530216    0.016505
     89          1           0        3.697373    3.297712    1.257273
     90          1           0        1.830134    3.320287    0.739975
     91          1           0        3.179625    3.499779   -0.566196
     92          1           0       -2.790382   -3.222504   -0.403676
     93          1           0       -2.794944   -2.214599   -2.110755
     94          1           0       -1.423090   -2.506050   -1.162613
     95          1           0        2.403911   -0.682012   -0.427668
     96          1           0       -1.894912    0.823344   -0.244424
     97          1           0        0.319102    1.713210    0.134213
     98          1           0        0.250181   -1.189386   -0.837306
 ---------------------------------------------------------------------

 SCF Done:  E(RCAM-B3LYP) =  -1706.84933785     A.U. after   14 cycles

 Excitation energies and oscillator strengths:

 Excited State   1:      Singlet-A      3.0343 eV  408.62 nm  f=3.6250  <S**2>=0.000
     155 ->158         0.19598
     156 ->157         0.66914
 This state for optimization and/or second-order correction.
 Total Energy, E(TD-HF/TD-DFT) =  -1706.73783119
 Copying the excited state density for this state as the 1-particle RhoCI density.

 The electronic state is 1-A.
 Alpha  occ. eigenvalues --  -19.20681 -19.19986 -10.30025 -10.29679 -10.28491
 Alpha  occ. eigenvalues --  -10.28048 -10.28021 -10.27869 -10.27517 -10.27384
 Alpha  occ. eigenvalues --  -10.27286 -10.27162 -10.27070 -10.27065 -10.27052
 Alpha  occ. eigenvalues --  -10.26867 -10.26484 -10.26451 -10.26445 -10.26221
 Alpha  occ. eigenvalues --  -10.26127 -10.25885 -10.25764 -10.25686 -10.25440
 Alpha  occ. eigenvalues --  -10.25422 -10.25409 -10.25331 -10.25326 -10.25247
 Alpha  occ. eigenvalues --  -10.25223 -10.25171 -10.25083 -10.24936 -10.24905
 Alpha  occ. eigenvalues --  -10.24884 -10.24478 -10.24398 -10.24300 -10.23750
 Alpha  occ. eigenvalues --  -10.23344 -10.23136  -1.12945  -1.10591  -0.93661
 Alpha  occ. eigenvalues --   -0.93593  -0.92215  -0.91423  -0.90833  -0.90381
 Alpha  occ. eigenvalues --   -0.87573  -0.86751  -0.86116  -0.85648  -0.84496
 Alpha  occ. eigenvalues --   -0.83250  -0.82033  -0.80555  -0.79422  -0.78356
 Alpha  occ. eigenvalues --   -0.76794  -0.76549  -0.76090  -0.75952  -0.75672
 Alpha  occ. eigenvalues --   -0.75319  -0.74665  -0.74433  -0.73761  -0.70972
 Alpha  occ. eigenvalues --   -0.69921  -0.67850  -0.66773  -0.65169  -0.63552
 Alpha  occ. eigenvalues --   -0.62883  -0.62404  -0.61758  -0.61263  -0.60032
 Alpha  occ. eigenvalues --   -0.59944  -0.59605  -0.59341  -0.57762  -0.56976
 Alpha  occ. eigenvalues --   -0.55955  -0.55593  -0.55163  -0.54369  -0.54106
 Alpha  occ. eigenvalues --   -0.53122  -0.52720  -0.52434  -0.51626  -0.51261
 Alpha  occ. eigenvalues --   -0.51184  -0.50505  -0.50264  -0.49961  -0.49784
 Alpha  occ. eigenvalues --   -0.49392  -0.48883  -0.48688  -0.48342  -0.48076
 Alpha  occ. eigenvalues --   -0.47884  -0.47295  -0.47237  -0.46637  -0.46419
 Alpha  occ. eigenvalues --   -0.46072  -0.45696  -0.45596  -0.45521  -0.45199
 Alpha  occ. eigenvalues --   -0.44630  -0.44492  -0.44348  -0.44110  -0.43717
 Alpha  occ. eigenvalues --   -0.43490  -0.43004  -0.42635  -0.42572  -0.42191
 Alpha  occ. eigenvalues --   -0.41573  -0.41380  -0.41370  -0.41251  -0.40841
 Alpha  occ. eigenvalues --   -0.40776  -0.40682  -0.39408  -0.39303  -0.39069
 Alpha  occ. eigenvalues --   -0.38854  -0.38463  -0.37989  -0.37831  -0.37640
 Alpha  occ. eigenvalues --   -0.37494  -0.36737  -0.36615  -0.36007  -0.35611
 Alpha  occ. eigenvalues --   -0.34925  -0.34503  -0.32943  -0.32299  -0.31235
 Alpha  occ. eigenvalues --   -0.30668  -0.29088  -0.27198  -0.26000  -0.23771
 Alpha  occ. eigenvalues --   -0.21199
 Alpha virt. eigenvalues --   -0.03128   0.00087   0.03172   0.05643   0.07360
 Alpha virt. eigenvalues --    0.09452   0.10895   0.11393   0.11562   0.12015
 Alpha virt. eigenvalues --    0.12274   0.12564   0.12699   0.12841   0.13041

 Mulliken charges:
               1
     1  O   -0.540625
     2  O   -0.551031
     3  C   -0.064101
     4  C   -0.014712
     5  C   -0.181123
     6  C   -0.203528
     7  C    0.181643
     8  C    0.187693
     9  C    0.040895
    10  C    0.092122
    11  C   -0.240474
    12  C   -0.216822
    13  C    0.082881
    14  C    0.001769
    15  C   -0.295418
    16  C   -0.287822
    17  C   -0.293257
    18  C   -0.310894
    19  C   -0.087491
    20  C   -0.121154
    21  C   -0.381334
    22  C   -0.326773
    23  C   -0.135061
    24  C   -0.077871
    25  C    0.055380
    26  C    0.127625
    27  C   -0.360923
    28  C   -0.381133
    29  C   -0.113912
    30  C   -0.127980
    31  C   -0.068974
    32  C   -0.109217
    33  C   -0.127678
    34  C   -0.054444
    35  C    0.125758
    36  C    0.092893
    37  C   -0.357568
    38  C   -0.364253
    39  C   -0.127139
    40  C   -0.117218
    41  C   -0.083965
    42  C   -0.110153
    43  H    0.110927
    44  H    0.067670
    45  H    0.077703
    46  H    0.112262
    47  H    0.087296
    48  H    0.080189
    49  H    0.131023
    50  H    0.111602
    51  H    0.094602
    52  H    0.102562
    53  H    0.087197
    54  H    0.104190
    55  H    0.112196
    56  H    0.108048
    57  H    0.095613
    58  H    0.092447
    59  H    0.074531
    60  H    0.111638
    61  H    0.101632
    62  H    0.097730
    63  H    0.098028
    64  H    0.092421
    65  H    0.096463
    66  H    0.057459
    67  H    0.126575
    68  H    0.117669
    69  H    0.072544
    70  H    0.091876
    71  H    0.128920
    72  H    0.073014
    73  H    0.286355
    74  H    0.300020
    75  H    0.101487
    76  H    0.082231
    77  H    0.082781
    78  H    0.120390
    79  H    0.137715
    80  H    0.114471
    81  H    0.142972
    82  H    0.089223
    83  H    0.067198
    84  H    0.078328
    85  H    0.069598
    86  H    0.085396
    87  H    0.073780
    88  H    0.084080
    89  H    0.131928
    90  H    0.121805
    91  H    0.084583
    92  H    0.109399
    93  H    0.137257
    94  H    0.122187
    95  H    0.089007
    96  H    0.057249
    97  H    0.082000
    98  H    0.077924
 Sum of Mulliken charges =  -0.00000

 Dipole moment (field-independent basis, Debye):
    X=              0.5513    Y=             -1.0215    Z=              1.7293  Tot=              2.0827
 Quadrupole moment (field-independent basis, Debye-Ang):
   XX=           -279.5561   YY=           -245.7487   ZZ=           -259.8697
   XY=             12.7708   XZ=             -3.7623   YZ=              3.1026

 Normal termination of Gaussian 16 at Tue Jul  9 13:35:07 2019.
