 Gaussian 16, Revision A.03,
 Gaussian 16:  ES64L-G16RevA.03 25-Dec-2016

 -------------------------------------
 # td=(NStates=1) CAM-B3LYP/6-31G(d,p)
 -------------------------------------

 --
 TD
 --
 Symbolic Z-matrix:
 Charge =  0 Multiplicity = 1

                         Standard orientation:
 ---------------------------------------------------------------------
 Center     Atomic      Atomic             Coordinates (Angstroms)
 Number     Number       Type             X           Y           Z
 ---------------------------------------------------------------------
      1          8           0       14.840930   -2.182136   -0.411882
      2          8           0      -14.575938    2.145122    0.935972
      3          6           0       11.485338   -0.963522    1.237488
      4          6           0      -12.372727   -0.989855    0.793227
      5          6           0       13.012242   -1.404748    1.068807
      6          6           0      -13.594156   -0.097274    0.694210
      7          6           0       13.383060   -1.981860   -0.269278
      8          6           0      -13.371061    1.353349    0.912256
      9          6           0       11.036899   -0.278055    0.086457
     10          6           0      -11.326288   -0.291208   -0.198413
     11          6           0       13.034181   -0.888265   -1.277652
     12          6           0      -12.656875    1.899968   -0.272910
     13          6           0       11.688948   -0.259314   -1.061134
     14          6           0      -11.501301    0.947245   -0.774263
     15          6           0       11.328331   -0.322966    2.657633
     16          6           0       10.663893   -2.324518    1.275727
     17          6           0      -11.778569   -1.153336    2.140058
     18          6           0      -12.793431   -2.408107    0.262030
     19          6           0        9.640543    0.256260    0.266972
     20          6           0      -10.216753   -1.095296   -0.500345
     21          6           0       11.309345    0.590778   -2.209510
     22          6           0      -10.522808    1.593235   -1.678214
     23          6           0        9.326775    1.509211   -0.048614
     24          6           0       -8.859693   -0.650079   -0.253185
     25          6           0        7.986594    2.229532    0.106356
     26          6           0       -7.740245   -1.434955   -0.455915
     27          6           0        8.064274    3.633750    0.434398
     28          6           0       -7.766553   -2.876329   -0.860968
     29          6           0        6.865596    1.475356   -0.159856
     30          6           0       -6.510446   -0.688493   -0.411916
     31          6           0        5.518164    2.003123   -0.076483
     32          6           0       -5.156221   -1.183818   -0.550134
     33          6           0        4.443862    1.199402   -0.160444
     34          6           0       -4.061982   -0.408947   -0.392582
     35          6           0        3.069109    1.701426   -0.134356
     36          6           0       -2.641744   -0.673239   -0.562470
     37          6           0        2.833157    3.047216    0.552252
     38          6           0       -2.407510   -2.107161   -0.877827
     39          6           0        2.008226    0.791997   -0.224559
     40          6           0       -1.646544    0.261551   -0.296322
     41          6           0        0.610097    0.944655   -0.071416
     42          6           0       -0.270016   -0.047122   -0.279322
     43          1           0       13.578931   -0.538518    1.280135
     44          1           0       13.196340   -2.348272    1.857180
     45          1           0      -14.290691   -0.603781    1.619292
     46          1           0      -13.895855   -0.431216   -0.448572
     47          1           0       12.854700   -2.854382   -0.439522
     48          1           0      -12.909528    1.518265    1.749479
     49          1           0       13.740963   -0.010420   -1.235164
     50          1           0       13.035046   -1.232410   -2.253426
     51          1           0      -13.338573    2.156672   -1.095057
     52          1           0      -12.258689    2.900367   -0.167401
     53          1           0       11.992324   -0.914932    3.302231
     54          1           0       10.232368   -0.304749    3.051130
     55          1           0       11.744460    0.545397    2.507991
     56          1           0       10.931116   -3.074434    0.325455
     57          1           0       10.855231   -2.845030    2.263953
     58          1           0        9.493089   -2.301229    1.529036
     59          1           0      -11.486887   -0.117143    2.587270
     60          1           0      -11.079763   -2.103656    2.305902
     61          1           0      -12.839670   -1.355357    2.600923
     62          1           0      -13.711521   -2.728130    0.936804
     63          1           0      -12.016933   -3.136634    0.437611
     64          1           0      -13.060844   -2.492597   -0.755104
     65          1           0        9.175520   -0.336718    1.066918
     66          1           0      -10.366785   -2.090629   -0.923486
     67          1           0       10.182467    0.820560   -2.418622
     68          1           0       11.816337    1.618342   -2.160936
     69          1           0       11.481515    0.043840   -3.021065
     70          1           0      -11.139274    1.743917   -2.591915
     71          1           0       -9.813709    0.899165   -1.862598
     72          1           0      -10.204588    2.547025   -1.269018
     73          1           0       15.093152   -2.825833    0.344157
     74          1           0      -14.890984    2.144944    1.839183
     75          1           0        9.844318    2.238321   -0.463402
     76          1           0       -8.904359    0.436278   -0.189739
     77          1           0        8.740991    4.062591   -0.357826
     78          1           0        7.132250    4.304757    0.448955
     79          1           0        8.447842    4.004499    1.311088
     80          1           0       -8.544756   -3.586354   -0.264486
     81          1           0       -7.856668   -3.007345   -2.064829
     82          1           0       -6.765106   -3.477000   -0.881441
     83          1           0        6.965598    0.595112   -0.534792
     84          1           0       -6.541701    0.297726    0.035706
     85          1           0        5.347815    3.047485    0.167368
     86          1           0       -4.944148   -2.178828   -0.987926
     87          1           0        4.535250    0.152495   -0.424774
     88          1           0       -4.234689    0.659586   -0.103502
     89          1           0        3.395309    3.153174    1.571147
     90          1           0        1.848365    3.405004    0.720187
     91          1           0        3.271566    3.783566    0.000654
     92          1           0       -2.721060   -2.595390    0.121934
     93          1           0       -3.106416   -2.380699   -1.687298
     94          1           0       -1.337394   -2.345702   -1.190458
     95          1           0        2.333463   -0.194618   -0.295402
     96          1           0       -1.881539    1.202554   -0.079817
     97          1           0        0.153764    2.073815   -0.120657
     98          1           0       -0.080163   -1.104871   -0.464879
 ---------------------------------------------------------------------

 SCF Done:  E(RCAM-B3LYP) =  -1706.96130188     A.U. after   15 cycles

 Excitation energies and oscillator strengths:

 Excited State   1:      Singlet-A      2.4681 eV  502.35 nm  f=3.6737  <S**2>=0.000
     155 ->158        -0.16883
     156 ->157         0.68423
 This state for optimization and/or second-order correction.
 Total Energy, E(TD-HF/TD-DFT) =  -1706.87060219
 Copying the excited state density for this state as the 1-particle RhoCI density.

 The electronic state is 1-A.
 Alpha  occ. eigenvalues --  -19.21562 -19.20562 -10.30015 -10.29159 -10.28677
 Alpha  occ. eigenvalues --  -10.27948 -10.27554 -10.27553 -10.27344 -10.27237
 Alpha  occ. eigenvalues --  -10.27152 -10.27121 -10.27057 -10.26985 -10.26774
 Alpha  occ. eigenvalues --  -10.26541 -10.26396 -10.26324 -10.26316 -10.26236
 Alpha  occ. eigenvalues --  -10.26011 -10.25941 -10.25866 -10.25787 -10.25725
 Alpha  occ. eigenvalues --  -10.25721 -10.25463 -10.25361 -10.25290 -10.25280
 Alpha  occ. eigenvalues --  -10.25137 -10.25117 -10.25082 -10.24994 -10.24886
 Alpha  occ. eigenvalues --  -10.24701 -10.24662 -10.24594 -10.24387 -10.24289
 Alpha  occ. eigenvalues --  -10.24267 -10.23684  -1.09048  -1.06873  -0.94620
 Alpha  occ. eigenvalues --   -0.93656  -0.92041  -0.91226  -0.90386  -0.89554
 Alpha  occ. eigenvalues --   -0.87699  -0.87312  -0.87188  -0.85447  -0.84987
 Alpha  occ. eigenvalues --   -0.83570  -0.82154  -0.80695  -0.79969  -0.78502
 Alpha  occ. eigenvalues --   -0.77542  -0.76467  -0.75914  -0.75703  -0.75374
 Alpha  occ. eigenvalues --   -0.75043  -0.74851  -0.74536  -0.73535  -0.70519
 Alpha  occ. eigenvalues --   -0.69424  -0.67749  -0.66177  -0.65700  -0.64796
 Alpha  occ. eigenvalues --   -0.63475  -0.62203  -0.61616  -0.61283  -0.59793
 Alpha  occ. eigenvalues --   -0.59711  -0.59500  -0.58490  -0.58151  -0.56284
 Alpha  occ. eigenvalues --   -0.55697  -0.55208  -0.54620  -0.53943  -0.53618
 Alpha  occ. eigenvalues --   -0.52981  -0.52333  -0.52033  -0.51640  -0.50984
 Alpha  occ. eigenvalues --   -0.50913  -0.50793  -0.50022  -0.49637  -0.49342
 Alpha  occ. eigenvalues --   -0.49094  -0.48904  -0.48700  -0.48445  -0.47958
 Alpha  occ. eigenvalues --   -0.47578  -0.47131  -0.47050  -0.46718  -0.46296
 Alpha  occ. eigenvalues --   -0.46133  -0.45649  -0.45438  -0.44955  -0.44472
 Alpha  occ. eigenvalues --   -0.44417  -0.44240  -0.43877  -0.43556  -0.43412
 Alpha  occ. eigenvalues --   -0.43301  -0.43271  -0.42750  -0.42469  -0.42365
 Alpha  occ. eigenvalues --   -0.41901  -0.41378  -0.40921  -0.40749  -0.40482
 Alpha  occ. eigenvalues --   -0.40418  -0.39823  -0.39769  -0.39685  -0.39367
 Alpha  occ. eigenvalues --   -0.39224  -0.38861  -0.38600  -0.38368  -0.38325
 Alpha  occ. eigenvalues --   -0.37656  -0.37434  -0.37290  -0.36629  -0.35538
 Alpha  occ. eigenvalues --   -0.34925  -0.33895  -0.33331  -0.32706  -0.32437
 Alpha  occ. eigenvalues --   -0.31523  -0.28865  -0.27728  -0.25965  -0.23068
 Alpha  occ. eigenvalues --   -0.19785
 Alpha virt. eigenvalues --   -0.04753  -0.00467   0.02882   0.06171   0.08025
 Alpha virt. eigenvalues --    0.09372   0.10398   0.10715   0.11438   0.11649
 Alpha virt. eigenvalues --    0.12226   0.12400   0.12792   0.12940   0.13888

 Mulliken charges:
               1
     1  O   -0.570418
     2  O   -0.563004
     3  C   -0.081663
     4  C   -0.016471
     5  C   -0.189989
     6  C   -0.167497
     7  C    0.173624
     8  C    0.200822
     9  C    0.131293
    10  C    0.050707
    11  C   -0.206044
    12  C   -0.225355
    13  C    0.007909
    14  C    0.031922
    15  C   -0.291810
    16  C   -0.293633
    17  C   -0.270839
    18  C   -0.303370
    19  C   -0.112513
    20  C   -0.181743
    21  C   -0.350603
    22  C   -0.350962
    23  C   -0.064168
    24  C   -0.109003
    25  C    0.055165
    26  C    0.146177
    27  C   -0.388008
    28  C   -0.374189
    29  C   -0.079445
    30  C   -0.149342
    31  C   -0.081059
    32  C   -0.078165
    33  C   -0.109963
    34  C   -0.110437
    35  C    0.082390
    36  C    0.086889
    37  C   -0.374193
    38  C   -0.375087
    39  C   -0.124869
    40  C   -0.095220
    41  C   -0.099935
    42  C   -0.045043
    43  H    0.111041
    44  H    0.048673
    45  H    0.040934
    46  H    0.096604
    47  H    0.093800
    48  H    0.085623
    49  H    0.118953
    50  H    0.108375
    51  H    0.122052
    52  H    0.100549
    53  H    0.109474
    54  H    0.098689
    55  H    0.120068
    56  H    0.084038
    57  H    0.089898
    58  H    0.088060
    59  H    0.099563
    60  H    0.110507
    61  H    0.076163
    62  H    0.086919
    63  H    0.102413
    64  H    0.115658
    65  H    0.090845
    66  H    0.092863
    67  H    0.101154
    68  H    0.110647
    69  H    0.110939
    70  H    0.108528
    71  H    0.124761
    72  H    0.115020
    73  H    0.301173
    74  H    0.296712
    75  H    0.075071
    76  H    0.096835
    77  H    0.111116
    78  H    0.106128
    79  H    0.137769
    80  H    0.106901
    81  H    0.108038
    82  H    0.111004
    83  H    0.070093
    84  H    0.088791
    85  H    0.078823
    86  H    0.073510
    87  H    0.080085
    88  H    0.067199
    89  H    0.110512
    90  H    0.110746
    91  H    0.121884
    92  H    0.127247
    93  H    0.122369
    94  H    0.099271
    95  H    0.074872
    96  H    0.067709
    97  H    0.076841
    98  H    0.083637
 Sum of Mulliken charges =  -0.00000

 Dipole moment (field-independent basis, Debye):
    X=              0.6124    Y=             -0.6273    Z=              2.1772  Tot=              2.3471
 Quadrupole moment (field-independent basis, Debye-Ang):
   XX=           -285.5107   YY=           -240.6109   ZZ=           -258.3415
   XY=             11.4477   XZ=              3.9046   YZ=              3.7045

 Normal termination of Gaussian 16 at Thu Jul  4 06:33:20 2019.
