 Gaussian 16, Revision A.03,
 Gaussian 16:  ES64L-G16RevA.03 25-Dec-2016

 -------------------------------------
 # td=(NStates=1) CAM-B3LYP/6-31G(d,p)
 -------------------------------------

 --
 TD
 --
 Symbolic Z-matrix:
 Charge =  0 Multiplicity = 1

                         Standard orientation:
 ---------------------------------------------------------------------
 Center     Atomic      Atomic             Coordinates (Angstroms)
 Number     Number       Type             X           Y           Z
 ---------------------------------------------------------------------
      1          8           0       14.812022   -2.107562   -0.498328
      2          8           0      -14.658012    1.969494    0.606974
      3          6           0       11.454526   -1.122705    1.050795
      4          6           0      -12.365461   -0.889917    0.743150
      5          6           0       13.003868   -1.433107    1.053972
      6          6           0      -13.603802   -0.183137    0.825170
      7          6           0       13.445241   -1.899112   -0.345562
      8          6           0      -13.470592    1.373149    0.590235
      9          6           0       10.950401   -0.216369   -0.044994
     10          6           0      -11.353083   -0.323280   -0.213471
     11          6           0       13.017139   -0.815878   -1.349673
     12          6           0      -12.711967    1.703136   -0.654781
     13          6           0       11.710076   -0.047260   -1.206654
     14          6           0      -11.579363    0.860346   -0.965378
     15          6           0       11.367905   -0.348601    2.415575
     16          6           0       10.634982   -2.421096    1.158765
     17          6           0      -11.740567   -0.902448    2.274368
     18          6           0      -12.635341   -2.405791    0.490843
     19          6           0        9.669361    0.328938    0.127792
     20          6           0      -10.090585   -1.099819   -0.398890
     21          6           0       11.194265    0.486477   -2.449109
     22          6           0      -10.620162    1.334722   -2.085917
     23          6           0        9.352305    1.619245   -0.067627
     24          6           0       -8.915871   -0.598373   -0.330155
     25          6           0        7.989737    2.195811    0.177882
     26          6           0       -7.654086   -1.311297   -0.497347
     27          6           0        8.029501    3.568945    0.662826
     28          6           0       -7.645116   -2.798586   -0.696298
     29          6           0        6.775603    1.436517   -0.004731
     30          6           0       -6.459127   -0.532758   -0.419042
     31          6           0        5.511271    1.934620    0.232541
     32          6           0       -5.087240   -1.087970   -0.393554
     33          6           0        4.429355    1.085502    0.143348
     34          6           0       -3.998852   -0.292525   -0.201460
     35          6           0        3.038767    1.615459    0.352237
     36          6           0       -2.650546   -0.678886   -0.392837
     37          6           0        2.883555    3.177076    0.480544
     38          6           0       -2.339520   -2.135955   -0.757270
     39          6           0        2.001849    0.790825    0.023534
     40          6           0       -1.677338    0.229334   -0.184899
     41          6           0        0.613022    0.948354    0.132824
     42          6           0       -0.222643    0.047300   -0.154049
     43          1           0       13.477888   -0.616698    1.303081
     44          1           0       13.434391   -2.070599    1.700262
     45          1           0      -14.232758   -0.375856    1.667397
     46          1           0      -14.271868   -0.675365    0.020474
     47          1           0       12.837088   -2.929325   -0.497985
     48          1           0      -12.887158    1.490267    1.603722
     49          1           0       13.698543    0.009591   -1.337886
     50          1           0       13.178750   -1.267156   -2.464490
     51          1           0      -13.598391    1.462870   -1.346735
     52          1           0      -12.462601    2.632802   -0.589652
     53          1           0       12.028362   -1.026765    3.059004
     54          1           0       10.258826   -0.111932    2.761573
     55          1           0       11.840948    0.547856    2.564835
     56          1           0       10.798070   -3.090423    0.344471
     57          1           0       10.762718   -2.843591    2.005716
     58          1           0        9.514193   -2.089113    1.441606
     59          1           0      -11.285606    0.244845    2.570405
     60          1           0      -10.871278   -1.586690    2.179716
     61          1           0      -12.556535   -1.271679    2.860892
     62          1           0      -13.663141   -2.566079    1.146215
     63          1           0      -11.909799   -3.179911    0.410903
     64          1           0      -13.271176   -2.143052   -0.477422
     65          1           0        8.822459   -0.153226    0.524253
     66          1           0      -10.145568   -2.087147   -0.574989
     67          1           0       10.060389    0.706032   -2.395408
     68          1           0       11.788772    1.321936   -2.797752
     69          1           0       11.349847   -0.154820   -3.197728
     70          1           0      -11.187488    2.243670   -2.625264
     71          1           0      -10.037217    0.503232   -2.543779
     72          1           0       -9.816008    1.858659   -1.498120
     73          1           0       15.186550   -3.020011   -0.003055
     74          1           0      -15.183017    2.093290    1.500682
     75          1           0       10.167746    2.230634   -0.318567
     76          1           0       -8.873270    0.633509   -0.134061
     77          1           0        8.622796    4.112234    0.002510
     78          1           0        7.020689    4.095256    0.722188
     79          1           0        8.461066    3.644064    1.908344
     80          1           0       -8.173285   -3.242265    0.063689
     81          1           0       -8.265222   -3.210380   -1.679428
     82          1           0       -6.721899   -3.250085   -0.718922
     83          1           0        6.996287    0.507071   -0.562685
     84          1           0       -6.569952    0.450938   -0.122450
     85          1           0        5.468034    2.949555    0.538326
     86          1           0       -4.912800   -2.204140   -0.361486
     87          1           0        4.592491    0.037834   -0.133557
     88          1           0       -4.218175    0.765754    0.010340
     89          1           0        3.364432    3.515119    1.377555
     90          1           0        1.724007    3.399789    0.319845
     91          1           0        3.369712    3.629108   -0.551053
     92          1           0       -2.896712   -2.923760   -0.149241
     93          1           0       -2.592941   -2.430843   -1.607506
     94          1           0       -1.184013   -2.448521   -0.659247
     95          1           0        2.262570   -0.283863   -0.366460
     96          1           0       -2.118617    1.258204   -0.162233
     97          1           0        0.033881    1.927324    0.190461
     98          1           0        0.044113   -1.058929   -0.526684
 ---------------------------------------------------------------------

 SCF Done:  E(RCAM-B3LYP) =  -1706.87216405     A.U. after   14 cycles

 Excitation energies and oscillator strengths:

 Excited State   1:      Singlet-A      2.7665 eV  448.16 nm  f=3.6644  <S**2>=0.000
     155 ->158        -0.20694
     156 ->157         0.66622
 This state for optimization and/or second-order correction.
 Total Energy, E(TD-HF/TD-DFT) =  -1706.77049700
 Copying the excited state density for this state as the 1-particle RhoCI density.

 The electronic state is 1-A.
 Alpha  occ. eigenvalues --  -19.22539 -19.22057 -10.31409 -10.30655 -10.28062
 Alpha  occ. eigenvalues --  -10.27900 -10.27597 -10.27503 -10.27455 -10.27141
 Alpha  occ. eigenvalues --  -10.26906 -10.26778 -10.26750 -10.26656 -10.26578
 Alpha  occ. eigenvalues --  -10.26476 -10.26427 -10.26345 -10.26324 -10.26297
 Alpha  occ. eigenvalues --  -10.26269 -10.26196 -10.26112 -10.26031 -10.25931
 Alpha  occ. eigenvalues --  -10.25796 -10.25751 -10.25649 -10.25496 -10.25446
 Alpha  occ. eigenvalues --  -10.25434 -10.25416 -10.25324 -10.25049 -10.24636
 Alpha  occ. eigenvalues --  -10.24569 -10.24012 -10.23936 -10.23859 -10.23729
 Alpha  occ. eigenvalues --  -10.23524 -10.22653  -1.11298  -1.08475  -0.93518
 Alpha  occ. eigenvalues --   -0.93402  -0.92201  -0.91014  -0.90451  -0.89641
 Alpha  occ. eigenvalues --   -0.87836  -0.87254  -0.87147  -0.85623  -0.84866
 Alpha  occ. eigenvalues --   -0.82935  -0.81925  -0.80604  -0.79586  -0.78166
 Alpha  occ. eigenvalues --   -0.77268  -0.76859  -0.76480  -0.75677  -0.75069
 Alpha  occ. eigenvalues --   -0.74818  -0.74498  -0.73868  -0.73654  -0.69869
 Alpha  occ. eigenvalues --   -0.68512  -0.67533  -0.66056  -0.64595  -0.64254
 Alpha  occ. eigenvalues --   -0.63180  -0.62806  -0.60913  -0.60521  -0.60116
 Alpha  occ. eigenvalues --   -0.59667  -0.59323  -0.58544  -0.58156  -0.56412
 Alpha  occ. eigenvalues --   -0.55821  -0.55045  -0.54996  -0.54168  -0.53748
 Alpha  occ. eigenvalues --   -0.53390  -0.53050  -0.52388  -0.52019  -0.50968
 Alpha  occ. eigenvalues --   -0.50447  -0.49986  -0.49799  -0.49400  -0.48875
 Alpha  occ. eigenvalues --   -0.48808  -0.48474  -0.48321  -0.48009  -0.47662
 Alpha  occ. eigenvalues --   -0.47327  -0.47132  -0.46919  -0.46435  -0.46041
 Alpha  occ. eigenvalues --   -0.45789  -0.45289  -0.45079  -0.44752  -0.44665
 Alpha  occ. eigenvalues --   -0.44389  -0.44268  -0.44175  -0.43683  -0.43535
 Alpha  occ. eigenvalues --   -0.43139  -0.42859  -0.42710  -0.42406  -0.42166
 Alpha  occ. eigenvalues --   -0.41840  -0.41390  -0.41063  -0.40846  -0.40817
 Alpha  occ. eigenvalues --   -0.40632  -0.40466  -0.39992  -0.39527  -0.39196
 Alpha  occ. eigenvalues --   -0.39059  -0.38380  -0.38104  -0.37832  -0.37482
 Alpha  occ. eigenvalues --   -0.37305  -0.37249  -0.36799  -0.36037  -0.35564
 Alpha  occ. eigenvalues --   -0.35209  -0.33887  -0.33427  -0.32098  -0.30925
 Alpha  occ. eigenvalues --   -0.30067  -0.29080  -0.26789  -0.25628  -0.23099
 Alpha  occ. eigenvalues --   -0.20579
 Alpha virt. eigenvalues --   -0.03833  -0.00667   0.03227   0.05762   0.07381
 Alpha virt. eigenvalues --    0.08542   0.09289   0.10036   0.11108   0.11396
 Alpha virt. eigenvalues --    0.12022   0.12759   0.12966   0.13283   0.13602

 Mulliken charges:
               1
     1  O   -0.566354
     2  O   -0.555895
     3  C   -0.043184
     4  C   -0.008914
     5  C   -0.176159
     6  C   -0.205835
     7  C    0.183709
     8  C    0.183237
     9  C    0.083917
    10  C    0.056009
    11  C   -0.223892
    12  C   -0.205673
    13  C    0.052823
    14  C    0.055055
    15  C   -0.307604
    16  C   -0.280909
    17  C   -0.274803
    18  C   -0.304327
    19  C   -0.113786
    20  C   -0.132834
    21  C   -0.363412
    22  C   -0.361873
    23  C   -0.103667
    24  C   -0.073451
    25  C    0.053869
    26  C    0.099441
    27  C   -0.347281
    28  C   -0.366987
    29  C   -0.116141
    30  C   -0.129627
    31  C   -0.066369
    32  C   -0.097170
    33  C   -0.111799
    34  C   -0.117363
    35  C    0.071524
    36  C    0.142488
    37  C   -0.351934
    38  C   -0.372064
    39  C   -0.135707
    40  C   -0.161348
    41  C   -0.059933
    42  C   -0.055501
    43  H    0.107779
    44  H    0.081312
    45  H    0.080144
    46  H    0.060766
    47  H    0.042489
    48  H    0.047826
    49  H    0.128925
    50  H    0.084561
    51  H    0.120417
    52  H    0.114295
    53  H    0.084725
    54  H    0.082990
    55  H    0.117663
    56  H    0.110747
    57  H    0.114524
    58  H    0.076785
    59  H    0.067378
    60  H    0.098142
    61  H    0.101085
    62  H    0.082007
    63  H    0.115180
    64  H    0.093804
    65  H    0.089709
    66  H    0.072460
    67  H    0.114241
    68  H    0.107483
    69  H    0.125042
    70  H    0.099343
    71  H    0.137448
    72  H    0.115139
    73  H    0.313365
    74  H    0.327505
    75  H    0.081571
    76  H    0.067281
    77  H    0.131268
    78  H    0.100722
    79  H    0.079168
    80  H    0.133571
    81  H    0.090801
    82  H    0.118380
    83  H    0.087661
    84  H    0.084503
    85  H    0.084822
    86  H    0.082153
    87  H    0.088951
    88  H    0.081842
    89  H    0.130810
    90  H    0.103353
    91  H    0.109877
    92  H    0.101905
    93  H    0.142713
    94  H    0.091062
    95  H    0.075239
    96  H    0.075487
    97  H    0.082824
    98  H    0.068482
 Sum of Mulliken charges =  -0.00000

 Dipole moment (field-independent basis, Debye):
    X=              0.6047    Y=             -1.0811    Z=              1.3856  Tot=              1.8586
 Quadrupole moment (field-independent basis, Debye-Ang):
   XX=           -238.7606   YY=           -239.0368   ZZ=           -264.1554
   XY=            -13.5260   XZ=            -10.1318   YZ=              2.4951

 Normal termination of Gaussian 16 at Tue Jul  2 18:49:22 2019.
