 Gaussian 16, Revision A.03,
 Gaussian 16:  ES64L-G16RevA.03 25-Dec-2016

 -------------------------------------
 # td=(NStates=1) CAM-B3LYP/6-31G(d,p)
 -------------------------------------

 --
 TD
 --
 Symbolic Z-matrix:
 Charge =  0 Multiplicity = 1

                         Standard orientation:
 ---------------------------------------------------------------------
 Center     Atomic      Atomic             Coordinates (Angstroms)
 Number     Number       Type             X           Y           Z
 ---------------------------------------------------------------------
      1          8           0       14.726370   -2.314124   -0.471082
      2          8           0      -14.825048    2.010496    0.626719
      3          6           0       11.594791   -1.091551    1.295552
      4          6           0      -12.315523   -0.995514    0.812268
      5          6           0       13.073072   -1.270590    0.938162
      6          6           0      -13.750766   -0.357965    0.831161
      7          6           0       13.354316   -1.971248   -0.398016
      8          6           0      -13.649488    1.267341    0.655945
      9          6           0       11.051168   -0.284330    0.018337
     10          6           0      -11.378256   -0.239789   -0.246887
     11          6           0       13.025302   -0.974644   -1.455385
     12          6           0      -13.004123    1.556864   -0.612678
     13          6           0       11.559458   -0.318210   -1.280962
     14          6           0      -11.679518    0.798477   -0.945276
     15          6           0       11.445295   -0.164032    2.478444
     16          6           0       10.844151   -2.291106    1.577914
     17          6           0      -11.649886   -0.771168    2.226862
     18          6           0      -12.559457   -2.391730    0.609295
     19          6           0        9.692545    0.422385    0.207940
     20          6           0      -10.148972   -1.030249   -0.372789
     21          6           0       11.008492    0.276738   -2.423880
     22          6           0      -10.725354    1.454578   -1.960677
     23          6           0        9.393726    1.681789   -0.049858
     24          6           0       -8.820743   -0.491293   -0.194030
     25          6           0        7.975605    2.264709    0.197661
     26          6           0       -7.638081   -1.317614   -0.365906
     27          6           0        8.138655    3.751773    0.265868
     28          6           0       -7.703945   -2.651492   -0.919934
     29          6           0        6.876073    1.518135    0.043616
     30          6           0       -6.427422   -0.741094   -0.247883
     31          6           0        5.532549    2.028389    0.240896
     32          6           0       -5.047926   -1.125050   -0.521304
     33          6           0        4.477646    1.233320   -0.024596
     34          6           0       -4.007739   -0.393194   -0.291688
     35          6           0        3.087466    1.713330    0.142313
     36          6           0       -2.552932   -0.792897   -0.412695
     37          6           0        2.826865    3.127138    0.585992
     38          6           0       -2.338358   -2.229275   -0.852352
     39          6           0        2.081806    0.816841    0.001116
     40          6           0       -1.663874    0.210158   -0.181361
     41          6           0        0.636457    0.862724    0.211116
     42          6           0       -0.251315   -0.046121   -0.308885
     43          1           0       13.679429   -0.519378    0.856671
     44          1           0       13.478500   -1.882002    1.672272
     45          1           0      -14.450052   -0.622261    1.807547
     46          1           0      -14.329150   -0.586457   -0.049423
     47          1           0       12.828008   -2.997565   -0.375929
     48          1           0      -13.244225    1.534791    1.424806
     49          1           0       13.810573   -0.191566   -1.622509
     50          1           0       12.722718   -1.557877   -2.655780
     51          1           0      -13.604373    1.448164   -1.513318
     52          1           0      -12.726620    2.610393   -0.535749
     53          1           0       11.764128   -0.558529    3.436856
     54          1           0       10.324569    0.291142    2.574946
     55          1           0       12.087716    0.720892    2.388560
     56          1           0       11.039355   -3.205626    0.717830
     57          1           0       11.292257   -2.791251    2.352513
     58          1           0        9.840434   -1.965035    1.847929
     59          1           0      -11.701679    0.320961    2.564504
     60          1           0      -10.576232   -1.184781    2.205477
     61          1           0      -12.296884   -1.194212    2.960205
     62          1           0      -13.320714   -2.895623    1.441194
     63          1           0      -11.488512   -2.872986    0.604108
     64          1           0      -12.894128   -2.491865   -0.481167
     65          1           0        8.898695   -0.307740    0.906772
     66          1           0      -10.157160   -2.078690   -0.634555
     67          1           0        9.895290    0.604678   -2.130016
     68          1           0       11.391379    1.318461   -2.948673
     69          1           0       11.219623   -0.364295   -3.266488
     70          1           0      -11.134195    1.905647   -2.859707
     71          1           0       -9.848776    0.980844   -2.231285
     72          1           0      -10.519448    2.478391   -1.662407
     73          1           0       15.025968   -2.815865    0.333541
     74          1           0      -15.418268    1.855353    1.314509
     75          1           0       10.124943    2.360503   -0.484695
     76          1           0       -8.689605    0.438909    0.165231
     77          1           0        8.957326    4.061337   -0.479164
     78          1           0        7.297009    4.324310   -0.167643
     79          1           0        8.571714    4.037467    1.340824
     80          1           0       -8.142434   -3.139450   -0.347179
     81          1           0       -8.248587   -2.597556   -1.937160
     82          1           0       -6.787414   -3.323228   -1.045243
     83          1           0        6.987920    0.449403   -0.002720
     84          1           0       -6.385933    0.377798    0.270877
     85          1           0        5.346647    3.050402    0.235211
     86          1           0       -4.832672   -2.055231   -0.976337
     87          1           0        4.665197    0.178734   -0.035755
     88          1           0       -4.228097    0.653859    0.077397
     89          1           0        3.325972    3.370205    1.471227
     90          1           0        1.816299    3.279191    0.396518
     91          1           0        3.406908    3.800181   -0.299280
     92          1           0       -2.783831   -3.046633   -0.190714
     93          1           0       -2.743146   -2.284658   -1.951581
     94          1           0       -1.288938   -2.546182   -0.845806
     95          1           0        2.258267   -0.114367   -0.414191
     96          1           0       -1.886590    1.109343    0.237524
     97          1           0        0.195645    1.665921    0.538657
     98          1           0        0.094035   -0.874541   -0.884826
 ---------------------------------------------------------------------

 SCF Done:  E(RCAM-B3LYP) =  -1706.87172564     A.U. after   14 cycles

 Excitation energies and oscillator strengths:

 Excited State   1:      Singlet-A      3.0597 eV  405.22 nm  f=3.6415  <S**2>=0.000
     155 ->158         0.18953
     156 ->157         0.67262
 This state for optimization and/or second-order correction.
 Total Energy, E(TD-HF/TD-DFT) =  -1706.75928337
 Copying the excited state density for this state as the 1-particle RhoCI density.

 The electronic state is 1-A.
 Alpha  occ. eigenvalues --  -19.20833 -19.20013 -10.30775 -10.28166 -10.28147
 Alpha  occ. eigenvalues --  -10.27981 -10.27718 -10.27585 -10.27535 -10.27307
 Alpha  occ. eigenvalues --  -10.27174 -10.27115 -10.27078 -10.27049 -10.26907
 Alpha  occ. eigenvalues --  -10.26754 -10.26534 -10.26471 -10.26455 -10.26390
 Alpha  occ. eigenvalues --  -10.26197 -10.26100 -10.26083 -10.26057 -10.25801
 Alpha  occ. eigenvalues --  -10.25789 -10.25789 -10.25775 -10.25602 -10.25478
 Alpha  occ. eigenvalues --  -10.25417 -10.25414 -10.25240 -10.25162 -10.25125
 Alpha  occ. eigenvalues --  -10.25119 -10.24891 -10.24818 -10.24592 -10.24257
 Alpha  occ. eigenvalues --  -10.23766 -10.23112  -1.10490  -1.08865  -0.93508
 Alpha  occ. eigenvalues --   -0.93244  -0.92117  -0.91563  -0.90818  -0.89722
 Alpha  occ. eigenvalues --   -0.87914  -0.87362  -0.87145  -0.85288  -0.84604
 Alpha  occ. eigenvalues --   -0.83749  -0.82514  -0.80623  -0.80299  -0.78494
 Alpha  occ. eigenvalues --   -0.77675  -0.76575  -0.76307  -0.75905  -0.75472
 Alpha  occ. eigenvalues --   -0.75175  -0.74855  -0.74401  -0.74247  -0.70613
 Alpha  occ. eigenvalues --   -0.68778  -0.66946  -0.66073  -0.64604  -0.63777
 Alpha  occ. eigenvalues --   -0.63616  -0.63046  -0.62163  -0.61056  -0.60303
 Alpha  occ. eigenvalues --   -0.60096  -0.59857  -0.58714  -0.58239  -0.56543
 Alpha  occ. eigenvalues --   -0.56119  -0.55423  -0.54602  -0.53996  -0.53414
 Alpha  occ. eigenvalues --   -0.53134  -0.52429  -0.52392  -0.51888  -0.51275
 Alpha  occ. eigenvalues --   -0.50717  -0.50378  -0.50240  -0.50003  -0.49371
 Alpha  occ. eigenvalues --   -0.48946  -0.48851  -0.48677  -0.48438  -0.48308
 Alpha  occ. eigenvalues --   -0.48085  -0.47923  -0.47764  -0.46935  -0.46472
 Alpha  occ. eigenvalues --   -0.46314  -0.46118  -0.45465  -0.44791  -0.44691
 Alpha  occ. eigenvalues --   -0.44480  -0.43917  -0.43758  -0.43674  -0.43232
 Alpha  occ. eigenvalues --   -0.43069  -0.42785  -0.42635  -0.42242  -0.41809
 Alpha  occ. eigenvalues --   -0.41665  -0.41447  -0.41143  -0.41106  -0.40418
 Alpha  occ. eigenvalues --   -0.40057  -0.39765  -0.39668  -0.39642  -0.39332
 Alpha  occ. eigenvalues --   -0.38759  -0.38613  -0.38322  -0.38152  -0.37932
 Alpha  occ. eigenvalues --   -0.37370  -0.37228  -0.36189  -0.35951  -0.35590
 Alpha  occ. eigenvalues --   -0.34891  -0.34327  -0.33548  -0.32092  -0.30997
 Alpha  occ. eigenvalues --   -0.30614  -0.29874  -0.28113  -0.26604  -0.24148
 Alpha  occ. eigenvalues --   -0.21483
 Alpha virt. eigenvalues --   -0.03320   0.00176   0.02762   0.05474   0.08088
 Alpha virt. eigenvalues --    0.09576   0.10354   0.10865   0.11616   0.11894
 Alpha virt. eigenvalues --    0.12447   0.12543   0.13349   0.13560   0.13768

 Mulliken charges:
               1
     1  O   -0.573688
     2  O   -0.564240
     3  C    0.008534
     4  C    0.002601
     5  C   -0.183081
     6  C   -0.222397
     7  C    0.184443
     8  C    0.221535
     9  C    0.035762
    10  C    0.052146
    11  C   -0.188693
    12  C   -0.225362
    13  C    0.088047
    14  C    0.065563
    15  C   -0.307263
    16  C   -0.277039
    17  C   -0.295584
    18  C   -0.272412
    19  C   -0.140998
    20  C   -0.178791
    21  C   -0.367962
    22  C   -0.374255
    23  C   -0.101383
    24  C   -0.075855
    25  C    0.076956
    26  C    0.103326
    27  C   -0.370233
    28  C   -0.349855
    29  C   -0.105278
    30  C   -0.144280
    31  C   -0.083189
    32  C   -0.056185
    33  C   -0.094436
    34  C   -0.107683
    35  C    0.086052
    36  C    0.104685
    37  C   -0.351277
    38  C   -0.377489
    39  C   -0.123805
    40  C   -0.112600
    41  C   -0.079940
    42  C   -0.081249
    43  H    0.110728
    44  H    0.064220
    45  H    0.049731
    46  H    0.100763
    47  H    0.072244
    48  H    0.073062
    49  H    0.128850
    50  H    0.036167
    51  H    0.122722
    52  H    0.108695
    53  H    0.099091
    54  H    0.092352
    55  H    0.106710
    56  H    0.071137
    57  H    0.115050
    58  H    0.109211
    59  H    0.090132
    60  H    0.106928
    61  H    0.099143
    62  H    0.092478
    63  H    0.077216
    64  H    0.099627
    65  H    0.063126
    66  H    0.098357
    67  H    0.116435
    68  H    0.087922
    69  H    0.112082
    70  H    0.105287
    71  H    0.131207
    72  H    0.110342
    73  H    0.305131
    74  H    0.294756
    75  H    0.104631
    76  H    0.085968
    77  H    0.108096
    78  H    0.113535
    79  H    0.117193
    80  H    0.129333
    81  H    0.108708
    82  H    0.098901
    83  H    0.084475
    84  H    0.044924
    85  H    0.078292
    86  H    0.072109
    87  H    0.084293
    88  H    0.070574
    89  H    0.139047
    90  H    0.121018
    91  H    0.082303
    92  H    0.126457
    93  H    0.121121
    94  H    0.112477
    95  H    0.069227
    96  H    0.089406
    97  H    0.058023
    98  H    0.085837
 Sum of Mulliken charges =  -0.00000

 Dipole moment (field-independent basis, Debye):
    X=             -0.0040    Y=             -0.5775    Z=              2.1856  Tot=              2.2606
 Quadrupole moment (field-independent basis, Debye-Ang):
   XX=           -269.4307   YY=           -246.6893   ZZ=           -259.1442
   XY=             11.1447   XZ=             11.0113   YZ=             -2.1305

 Normal termination of Gaussian 16 at Thu Jul  4 01:52:49 2019.
