 Gaussian 16, Revision A.03,
 Gaussian 16:  ES64L-G16RevA.03 25-Dec-2016

 -------------------------------------
 # td=(NStates=1) CAM-B3LYP/6-31G(d,p)
 -------------------------------------

 --
 TD
 --
 Symbolic Z-matrix:
 Charge =  0 Multiplicity = 1

                         Standard orientation:
 ---------------------------------------------------------------------
 Center     Atomic      Atomic             Coordinates (Angstroms)
 Number     Number       Type             X           Y           Z
 ---------------------------------------------------------------------
      1          8           0       14.747407   -2.131280   -0.437745
      2          8           0      -14.604237    2.262002    0.756491
      3          6           0       11.465473   -1.028070    1.188963
      4          6           0      -12.303500   -0.843638    0.707426
      5          6           0       13.050693   -1.300867    1.134011
      6          6           0      -13.635027    0.000316    0.734986
      7          6           0       13.335038   -1.829049   -0.323561
      8          6           0      -13.364129    1.419606    0.725740
      9          6           0       10.930121   -0.322825   -0.028656
     10          6           0      -11.329471   -0.238434   -0.277757
     11          6           0       13.093914   -0.703194   -1.245514
     12          6           0      -12.696051    1.966013   -0.490425
     13          6           0       11.681939   -0.186589   -1.170053
     14          6           0      -11.517602    0.947194   -0.934848
     15          6           0       11.313629   -0.111198    2.454190
     16          6           0       10.593967   -2.308941    1.390547
     17          6           0      -11.746524   -0.958471    2.099589
     18          6           0      -12.735642   -2.276212    0.212987
     19          6           0        9.600471    0.369969    0.073547
     20          6           0      -10.129909   -0.982552   -0.521526
     21          6           0       11.026113    0.438290   -2.526399
     22          6           0      -10.536582    1.601829   -1.933044
     23          6           0        9.347033    1.723705   -0.187467
     24          6           0       -8.848943   -0.685432   -0.211211
     25          6           0        7.999375    2.255316    0.117157
     26          6           0       -7.602600   -1.317525   -0.380581
     27          6           0        8.155418    3.646350    0.467267
     28          6           0       -7.722547   -2.820306   -0.886053
     29          6           0        6.825326    1.568546   -0.047152
     30          6           0       -6.521730   -0.763766   -0.131979
     31          6           0        5.490531    1.958007    0.168014
     32          6           0       -5.136972   -1.418448   -0.210805
     33          6           0        4.441547    1.197036    0.034463
     34          6           0       -3.952907   -0.610170   -0.082671
     35          6           0        3.007124    1.519519    0.073005
     36          6           0       -2.680010   -1.046866   -0.213367
     37          6           0        2.678082    3.023964    0.509317
     38          6           0       -2.360880   -2.407592   -0.606905
     39          6           0        2.072051    0.557459   -0.157629
     40          6           0       -1.699719   -0.004453   -0.030841
     41          6           0        0.689850    0.804133   -0.084509
     42          6           0       -0.281542   -0.123337   -0.251504
     43          1           0       13.638359   -0.346698    1.313302
     44          1           0       13.571559   -2.094528    1.888442
     45          1           0      -13.996694   -0.283363    1.575654
     46          1           0      -14.247009   -0.511274   -0.134007
     47          1           0       12.740702   -2.773264   -0.584301
     48          1           0      -12.672930    1.684796    1.533889
     49          1           0       13.972773    0.092830   -1.285604
     50          1           0       13.404980   -1.214472   -2.214816
     51          1           0      -13.318535    2.078971   -1.259437
     52          1           0      -12.238175    2.827690   -0.315783
     53          1           0       11.597852   -0.771946    3.280030
     54          1           0       10.200728    0.284518    2.292583
     55          1           0       12.003004    0.812141    2.277504
     56          1           0       10.769378   -3.023170    0.690140
     57          1           0       10.753614   -2.776822    2.435140
     58          1           0        9.599664   -2.194464    1.472648
     59          1           0      -11.459295    0.000209    2.516232
     60          1           0      -10.618095   -1.396377    2.072637
     61          1           0      -12.317661   -1.408392    2.777002
     62          1           0      -13.405130   -2.756701    0.597181
     63          1           0      -11.937201   -2.883339    0.179333
     64          1           0      -13.160839   -2.228730   -0.891587
     65          1           0        8.739909   -0.279800    0.400285
     66          1           0      -10.179453   -2.083191   -0.917208
     67          1           0       10.043678    0.666494   -2.405440
     68          1           0       11.507746    1.221300   -2.718823
     69          1           0       11.092385   -0.042559   -3.606119
     70          1           0      -11.046849    1.655870   -2.925844
     71          1           0       -9.679116    0.826358   -2.297953
     72          1           0      -10.069537    2.454267   -1.541289
     73          1           0       14.959265   -3.043347   -0.096215
     74          1           0      -15.231498    1.867907    1.439349
     75          1           0        9.988964    2.389695   -0.706165
     76          1           0       -8.517329    0.228677    0.286364
     77          1           0        8.529787    4.309051   -0.497979
     78          1           0        7.185446    4.212197    0.687066
     79          1           0        8.750223    3.929126    1.429002
     80          1           0       -8.121390   -3.349393   -0.006330
     81          1           0       -8.377756   -2.965693   -1.776945
     82          1           0       -6.579882   -3.242464   -0.992207
     83          1           0        6.988777    0.660443   -0.438152
     84          1           0       -6.227462    0.446100    0.261334
     85          1           0        5.467944    3.060372    0.522584
     86          1           0       -5.269090   -2.419712   -0.548802
     87          1           0        4.473895    0.167777   -0.344448
     88          1           0       -4.237772    0.381778    0.128823
     89          1           0        3.632200    3.030834    1.320192
     90          1           0        1.594544    2.868780    1.047400
     91          1           0        2.700749    3.823744   -0.298355
     92          1           0       -2.916683   -3.124201    0.010474
     93          1           0       -2.784898   -2.554734   -1.602449
     94          1           0       -1.329116   -2.773662   -0.729345
     95          1           0        2.679647   -0.186197   -0.748050
     96          1           0       -1.949272    0.916805    0.273171
     97          1           0        0.124959    1.695801    0.270381
     98          1           0        0.058125   -1.167714   -0.584984
 ---------------------------------------------------------------------

 SCF Done:  E(RCAM-B3LYP) =  -1706.85165475     A.U. after   14 cycles

 Excitation energies and oscillator strengths:

 Excited State   1:      Singlet-A      2.5931 eV  478.12 nm  f=3.5754  <S**2>=0.000
     155 ->158         0.15007
     156 ->157         0.68856
 This state for optimization and/or second-order correction.
 Total Energy, E(TD-HF/TD-DFT) =  -1706.75635865
 Copying the excited state density for this state as the 1-particle RhoCI density.

 The electronic state is 1-A.
 Alpha  occ. eigenvalues --  -19.20697 -19.20388 -10.30764 -10.29609 -10.28263
 Alpha  occ. eigenvalues --  -10.27890 -10.27850 -10.27819 -10.27812 -10.27698
 Alpha  occ. eigenvalues --  -10.27635 -10.27612 -10.27455 -10.27332 -10.27148
 Alpha  occ. eigenvalues --  -10.27119 -10.27101 -10.26989 -10.26712 -10.26651
 Alpha  occ. eigenvalues --  -10.26606 -10.26573 -10.26496 -10.26399 -10.26344
 Alpha  occ. eigenvalues --  -10.26305 -10.26260 -10.26080 -10.25881 -10.25872
 Alpha  occ. eigenvalues --  -10.25718 -10.25697 -10.25546 -10.25534 -10.25129
 Alpha  occ. eigenvalues --  -10.25042 -10.24286 -10.24107 -10.23865 -10.23667
 Alpha  occ. eigenvalues --  -10.22949 -10.22765  -1.07563  -1.05875  -0.93718
 Alpha  occ. eigenvalues --   -0.93065  -0.92642  -0.92139  -0.91516  -0.90526
 Alpha  occ. eigenvalues --   -0.87677  -0.86598  -0.85748  -0.85682  -0.84735
 Alpha  occ. eigenvalues --   -0.83296  -0.81874  -0.79663  -0.79546  -0.78520
 Alpha  occ. eigenvalues --   -0.78039  -0.76913  -0.76763  -0.76363  -0.76276
 Alpha  occ. eigenvalues --   -0.75978  -0.75248  -0.74350  -0.73671  -0.71266
 Alpha  occ. eigenvalues --   -0.68977  -0.67395  -0.66176  -0.65298  -0.64422
 Alpha  occ. eigenvalues --   -0.63769  -0.63255  -0.61605  -0.61429  -0.59927
 Alpha  occ. eigenvalues --   -0.59055  -0.58515  -0.57309  -0.56806  -0.56094
 Alpha  occ. eigenvalues --   -0.55309  -0.55056  -0.54911  -0.54091  -0.53801
 Alpha  occ. eigenvalues --   -0.53386  -0.52599  -0.52356  -0.51996  -0.50823
 Alpha  occ. eigenvalues --   -0.50800  -0.50165  -0.50077  -0.49905  -0.49199
 Alpha  occ. eigenvalues --   -0.49112  -0.48999  -0.48669  -0.48398  -0.48165
 Alpha  occ. eigenvalues --   -0.48080  -0.47610  -0.47096  -0.46935  -0.46544
 Alpha  occ. eigenvalues --   -0.46325  -0.45936  -0.45475  -0.45393  -0.44864
 Alpha  occ. eigenvalues --   -0.44680  -0.44196  -0.43952  -0.43626  -0.43530
 Alpha  occ. eigenvalues --   -0.43142  -0.42901  -0.42218  -0.42043  -0.41454
 Alpha  occ. eigenvalues --   -0.41295  -0.41088  -0.40914  -0.40639  -0.40348
 Alpha  occ. eigenvalues --   -0.40171  -0.39913  -0.39622  -0.39422  -0.39064
 Alpha  occ. eigenvalues --   -0.38915  -0.38730  -0.38631  -0.38563  -0.38350
 Alpha  occ. eigenvalues --   -0.36920  -0.36402  -0.36276  -0.35826  -0.35715
 Alpha  occ. eigenvalues --   -0.35159  -0.34710  -0.33515  -0.32009  -0.31511
 Alpha  occ. eigenvalues --   -0.30427  -0.29721  -0.28213  -0.26925  -0.24753
 Alpha  occ. eigenvalues --   -0.20574
 Alpha virt. eigenvalues --   -0.05052  -0.00500   0.03070   0.05202   0.07762
 Alpha virt. eigenvalues --    0.08361   0.09340   0.11273   0.11544   0.11757
 Alpha virt. eigenvalues --    0.12734   0.12796   0.13013   0.13379   0.13566

 Mulliken charges:
               1
     1  O   -0.580499
     2  O   -0.585261
     3  C   -0.031708
     4  C   -0.036251
     5  C   -0.170900
     6  C   -0.162351
     7  C    0.161866
     8  C    0.155267
     9  C    0.069061
    10  C    0.090343
    11  C   -0.224590
    12  C   -0.179132
    13  C    0.035694
    14  C   -0.001573
    15  C   -0.283186
    16  C   -0.306547
    17  C   -0.309255
    18  C   -0.296163
    19  C   -0.151741
    20  C   -0.184815
    21  C   -0.352924
    22  C   -0.357205
    23  C   -0.081259
    24  C   -0.051409
    25  C    0.080651
    26  C    0.129792
    27  C   -0.384118
    28  C   -0.362586
    29  C   -0.084157
    30  C   -0.140807
    31  C   -0.077662
    32  C   -0.098528
    33  C   -0.100735
    34  C   -0.112871
    35  C    0.083768
    36  C    0.145380
    37  C   -0.338883
    38  C   -0.391580
    39  C   -0.123835
    40  C   -0.125012
    41  C   -0.091706
    42  C   -0.080961
    43  H    0.105551
    44  H    0.062644
    45  H    0.089787
    46  H    0.091577
    47  H    0.084164
    48  H    0.086971
    49  H    0.114007
    50  H    0.104540
    51  H    0.125818
    52  H    0.116623
    53  H    0.107050
    54  H    0.089988
    55  H    0.091946
    56  H    0.111599
    57  H    0.081473
    58  H    0.116762
    59  H    0.105447
    60  H    0.089645
    61  H    0.112818
    62  H    0.106522
    63  H    0.106916
    64  H    0.077308
    65  H    0.103022
    66  H    0.072691
    67  H    0.120810
    68  H    0.127487
    69  H    0.085912
    70  H    0.114848
    71  H    0.097367
    72  H    0.127399
    73  H    0.304271
    74  H    0.295956
    75  H    0.110096
    76  H    0.063963
    77  H    0.100215
    78  H    0.099807
    79  H    0.122791
    80  H    0.130450
    81  H    0.127805
    82  H    0.081000
    83  H    0.066414
    84  H    0.058253
    85  H    0.084752
    86  H    0.069061
    87  H    0.069384
    88  H    0.086188
    89  H    0.094480
    90  H    0.096738
    91  H    0.128874
    92  H    0.125236
    93  H    0.130304
    94  H    0.121642
    95  H    0.094261
    96  H    0.071114
    97  H    0.085187
    98  H    0.061453
 Sum of Mulliken charges =  -0.00000

 Dipole moment (field-independent basis, Debye):
    X=              0.4263    Y=             -2.3051    Z=              0.5864  Tot=              2.4164
 Quadrupole moment (field-independent basis, Debye-Ang):
   XX=           -278.6919   YY=           -244.8851   ZZ=           -261.1215
   XY=             16.1115   XZ=            -11.4477   YZ=             -0.4319

 Normal termination of Gaussian 16 at Wed Jun 26 16:42:18 2019.
