 Gaussian 16, Revision A.03,
 Gaussian 16:  ES64L-G16RevA.03 25-Dec-2016

 -------------------------------------
 # td=(NStates=1) CAM-B3LYP/6-31G(d,p)
 -------------------------------------

 --
 TD
 --
 Symbolic Z-matrix:
 Charge =  0 Multiplicity = 1

                         Standard orientation:
 ---------------------------------------------------------------------
 Center     Atomic      Atomic             Coordinates (Angstroms)
 Number     Number       Type             X           Y           Z
 ---------------------------------------------------------------------
      1          8           0       14.733091   -2.208995   -0.348914
      2          8           0      -14.795327    2.019263    0.882769
      3          6           0       11.403478   -1.118533    1.279200
      4          6           0      -12.285789   -0.883982    0.854893
      5          6           0       12.861224   -1.309997    1.074264
      6          6           0      -13.563963   -0.108261    0.972618
      7          6           0       13.329441   -1.929184   -0.309218
      8          6           0      -13.452300    1.348657    0.799647
      9          6           0       10.897939   -0.401454   -0.007286
     10          6           0      -11.388447   -0.266299   -0.115796
     11          6           0       13.062959   -0.791698   -1.276214
     12          6           0      -12.895224    1.684406   -0.621514
     13          6           0       11.638524   -0.208014   -1.133205
     14          6           0      -11.622305    0.846753   -0.842450
     15          6           0       11.267506   -0.277780    2.607358
     16          6           0       10.654416   -2.449541    1.375895
     17          6           0      -11.640643   -0.902462    2.278422
     18          6           0      -12.635365   -2.348607    0.569451
     19          6           0        9.592774    0.312316    0.124855
     20          6           0      -10.191192   -1.067797   -0.427237
     21          6           0       11.343380    0.455546   -2.312518
     22          6           0      -10.659736    1.371853   -1.943720
     23          6           0        9.316330    1.617760   -0.220537
     24          6           0       -8.823170   -0.596939   -0.433292
     25          6           0        8.061161    2.267030    0.061175
     26          6           0       -7.582156   -1.297442   -0.632413
     27          6           0        8.088792    3.712965    0.531674
     28          6           0       -7.559363   -2.753090   -0.977486
     29          6           0        6.855613    1.564325   -0.015167
     30          6           0       -6.403721   -0.639890   -0.375441
     31          6           0        5.492325    2.054783    0.069310
     32          6           0       -5.144084   -1.115110   -0.436822
     33          6           0        4.448257    1.256486   -0.227470
     34          6           0       -4.035738   -0.264682   -0.363218
     35          6           0        3.106958    1.663545    0.128762
     36          6           0       -2.616745   -0.789197   -0.498255
     37          6           0        2.681786    3.114893    0.472822
     38          6           0       -2.400355   -2.229119   -0.779853
     39          6           0        2.088052    0.737180   -0.116352
     40          6           0       -1.676079    0.023196   -0.141917
     41          6           0        0.773330    0.829112   -0.064302
     42          6           0       -0.223555   -0.098588   -0.387905
     43          1           0       13.247712   -0.334198    1.339313
     44          1           0       13.195115   -1.908446    1.897832
     45          1           0      -14.140036   -0.567269    1.709857
     46          1           0      -14.236815   -0.447684    0.099495
     47          1           0       12.650068   -2.765350   -0.415414
     48          1           0      -12.710781    1.808819    1.573360
     49          1           0       13.933524    0.038526   -1.334293
     50          1           0       13.161765   -1.088491   -2.412246
     51          1           0      -13.572004    1.452241   -1.322810
     52          1           0      -12.676975    2.787785   -0.693495
     53          1           0       11.837419   -0.691051    3.251687
     54          1           0       10.272865   -0.017634    2.963604
     55          1           0       11.778035    0.706136    2.790139
     56          1           0       11.013798   -3.164990    0.626410
     57          1           0       10.820762   -2.945217    2.280035
     58          1           0        9.565147   -2.410541    1.327045
     59          1           0      -11.227093    0.170599    2.525859
     60          1           0      -10.579697   -1.376696    2.228260
     61          1           0      -12.057742   -1.326913    3.188663
     62          1           0      -13.570607   -2.564860    1.106397
     63          1           0      -11.747841   -3.007438    0.704739
     64          1           0      -12.645279   -2.406020   -0.713209
     65          1           0        8.767946   -0.125041    0.584252
     66          1           0      -10.538361   -2.088288   -0.698709
     67          1           0       10.377467    0.766658   -2.396570
     68          1           0       12.100694    1.340230   -2.506449
     69          1           0       11.229951   -0.190481   -3.221919
     70          1           0      -11.298460    1.707261   -2.851462
     71          1           0       -9.961119    0.445718   -2.311825
     72          1           0       -9.933948    2.190232   -1.562697
     73          1           0       15.074798   -2.647373    0.437210
     74          1           0      -15.087346    1.924084    1.918109
     75          1           0       10.154354    2.232377   -0.322906
     76          1           0       -8.521502    0.451580   -0.285065
     77          1           0        9.007323    4.027402   -0.011722
     78          1           0        7.082855    4.169777    0.334205
     79          1           0        8.473196    3.791988    1.730802
     80          1           0       -8.059386   -3.340509   -0.356564
     81          1           0       -8.210117   -2.736666   -1.926897
     82          1           0       -6.555382   -3.191475   -1.328110
     83          1           0        7.026278    0.431502   -0.269634
     84          1           0       -6.511282    0.351992   -0.025804
     85          1           0        5.396549    3.133685    0.534307
     86          1           0       -4.866757   -2.095808   -0.658038
     87          1           0        4.535651    0.302664   -0.628140
     88          1           0       -4.200780    0.724898   -0.328301
     89          1           0        3.146958    3.340739    1.472636
     90          1           0        1.579995    3.196378    0.397347
     91          1           0        3.058385    3.746591   -0.208955
     92          1           0       -2.912770   -2.915647   -0.207068
     93          1           0       -2.832955   -2.395836   -1.727560
     94          1           0       -1.412004   -2.501897   -0.900374
     95          1           0        2.528848   -0.298535   -0.608376
     96          1           0       -1.798402    1.124998    0.089172
     97          1           0        0.262176    1.723013    0.286285
     98          1           0        0.097806   -1.098522   -0.677794
 ---------------------------------------------------------------------

 SCF Done:  E(RCAM-B3LYP) =  -1706.98365487     A.U. after   15 cycles

 Excitation energies and oscillator strengths:

 Excited State   1:      Singlet-A      2.4302 eV  510.19 nm  f=3.7472  <S**2>=0.000
     155 ->158        -0.17929
     156 ->157         0.67925
 This state for optimization and/or second-order correction.
 Total Energy, E(TD-HF/TD-DFT) =  -1706.89434844
 Copying the excited state density for this state as the 1-particle RhoCI density.

 The electronic state is 1-A.
 Alpha  occ. eigenvalues --  -19.21624 -19.21253 -10.31230 -10.31128 -10.28155
 Alpha  occ. eigenvalues --  -10.27642 -10.27628 -10.27343 -10.27341 -10.27283
 Alpha  occ. eigenvalues --  -10.27184 -10.27181 -10.27030 -10.27000 -10.26963
 Alpha  occ. eigenvalues --  -10.26942 -10.26929 -10.26480 -10.26428 -10.26343
 Alpha  occ. eigenvalues --  -10.26308 -10.26304 -10.26250 -10.25981 -10.25947
 Alpha  occ. eigenvalues --  -10.25813 -10.25788 -10.25677 -10.25452 -10.25429
 Alpha  occ. eigenvalues --  -10.25400 -10.25395 -10.25193 -10.25157 -10.24962
 Alpha  occ. eigenvalues --  -10.24960 -10.24398 -10.24355 -10.24327 -10.24150
 Alpha  occ. eigenvalues --  -10.24021 -10.23971  -1.08776  -1.05036  -0.94462
 Alpha  occ. eigenvalues --   -0.94002  -0.92429  -0.91668  -0.90709  -0.90033
 Alpha  occ. eigenvalues --   -0.88432  -0.87114  -0.86612  -0.85516  -0.84170
 Alpha  occ. eigenvalues --   -0.83551  -0.82165  -0.80663  -0.79258  -0.78623
 Alpha  occ. eigenvalues --   -0.78359  -0.77126  -0.76352  -0.76198  -0.75501
 Alpha  occ. eigenvalues --   -0.75301  -0.75241  -0.75041  -0.73545  -0.70510
 Alpha  occ. eigenvalues --   -0.69135  -0.67725  -0.66020  -0.65538  -0.64609
 Alpha  occ. eigenvalues --   -0.64301  -0.63328  -0.62290  -0.60974  -0.60601
 Alpha  occ. eigenvalues --   -0.59229  -0.59023  -0.57360  -0.56872  -0.56546
 Alpha  occ. eigenvalues --   -0.55829  -0.55120  -0.54777  -0.54294  -0.53538
 Alpha  occ. eigenvalues --   -0.53225  -0.52700  -0.52352  -0.51110  -0.50770
 Alpha  occ. eigenvalues --   -0.50696  -0.50182  -0.49896  -0.49717  -0.49322
 Alpha  occ. eigenvalues --   -0.49118  -0.49025  -0.48969  -0.48449  -0.47962
 Alpha  occ. eigenvalues --   -0.47642  -0.47448  -0.47364  -0.47042  -0.46641
 Alpha  occ. eigenvalues --   -0.46159  -0.45948  -0.45727  -0.45312  -0.45186
 Alpha  occ. eigenvalues --   -0.44823  -0.44781  -0.44468  -0.44363  -0.44065
 Alpha  occ. eigenvalues --   -0.43632  -0.43364  -0.42910  -0.42279  -0.41976
 Alpha  occ. eigenvalues --   -0.41794  -0.41265  -0.40701  -0.40537  -0.40248
 Alpha  occ. eigenvalues --   -0.40136  -0.40047  -0.39888  -0.39654  -0.39282
 Alpha  occ. eigenvalues --   -0.39067  -0.38643  -0.38425  -0.38257  -0.37834
 Alpha  occ. eigenvalues --   -0.37597  -0.36956  -0.36795  -0.36065  -0.35855
 Alpha  occ. eigenvalues --   -0.35090  -0.34497  -0.33445  -0.32444  -0.32392
 Alpha  occ. eigenvalues --   -0.31988  -0.29530  -0.28670  -0.26018  -0.23066
 Alpha  occ. eigenvalues --   -0.19851
 Alpha virt. eigenvalues --   -0.04942  -0.01316   0.02142   0.06208   0.07518
 Alpha virt. eigenvalues --    0.09431   0.10642   0.10822   0.11740   0.11825
 Alpha virt. eigenvalues --    0.12414   0.13186   0.13433   0.13700   0.13794

 Mulliken charges:
               1
     1  O   -0.572065
     2  O   -0.572813
     3  C    0.008445
     4  C    0.005499
     5  C   -0.231038
     6  C   -0.179064
     7  C    0.199703
     8  C    0.145202
     9  C    0.053892
    10  C    0.077806
    11  C   -0.215337
    12  C   -0.207406
    13  C    0.091200
    14  C    0.040652
    15  C   -0.323265
    16  C   -0.312792
    17  C   -0.313141
    18  C   -0.297551
    19  C   -0.125756
    20  C   -0.171081
    21  C   -0.377292
    22  C   -0.352361
    23  C   -0.097374
    24  C   -0.103730
    25  C    0.067348
    26  C    0.117209
    27  C   -0.341070
    28  C   -0.366587
    29  C   -0.123302
    30  C   -0.127043
    31  C   -0.100166
    32  C   -0.059355
    33  C   -0.084545
    34  C   -0.108742
    35  C    0.087438
    36  C    0.109110
    37  C   -0.361376
    38  C   -0.380950
    39  C   -0.118378
    40  C   -0.124513
    41  C   -0.076845
    42  C   -0.110927
    43  H    0.109183
    44  H    0.070821
    45  H    0.089628
    46  H    0.089647
    47  H    0.090861
    48  H    0.077625
    49  H    0.105550
    50  H    0.088259
    51  H    0.131779
    52  H    0.108485
    53  H    0.115346
    54  H    0.109643
    55  H    0.093494
    56  H    0.103456
    57  H    0.105827
    58  H    0.108521
    59  H    0.085171
    60  H    0.095539
    61  H    0.109387
    62  H    0.110978
    63  H    0.115136
    64  H    0.065724
    65  H    0.087248
    66  H    0.092421
    67  H    0.119827
    68  H    0.104375
    69  H    0.108802
    70  H    0.097936
    71  H    0.107659
    72  H    0.111157
    73  H    0.305796
    74  H    0.301618
    75  H    0.085647
    76  H    0.086645
    77  H    0.114365
    78  H    0.115883
    79  H    0.096252
    80  H    0.134413
    81  H    0.103671
    82  H    0.104799
    83  H    0.069832
    84  H    0.076150
    85  H    0.082844
    86  H    0.069166
    87  H    0.091324
    88  H    0.077236
    89  H    0.115573
    90  H    0.113310
    91  H    0.136265
    92  H    0.134975
    93  H    0.124542
    94  H    0.117783
    95  H    0.056323
    96  H    0.070161
    97  H    0.072080
    98  H    0.066223
 Sum of Mulliken charges =  -0.00000

 Dipole moment (field-independent basis, Debye):
    X=              1.5315    Y=             -1.2620    Z=              2.4568  Tot=              3.1582
 Quadrupole moment (field-independent basis, Debye-Ang):
   XX=           -277.5454   YY=           -247.2554   ZZ=           -257.0263
   XY=             15.4670   XZ=              6.0341   YZ=              0.5196

 Normal termination of Gaussian 16 at Sun Jul  7 02:06:04 2019.
