 Gaussian 16, Revision A.03,
 Gaussian 16:  ES64L-G16RevA.03 25-Dec-2016

 -------------------------------------
 # td=(NStates=1) CAM-B3LYP/6-31G(d,p)
 -------------------------------------

 --
 TD
 --
 Symbolic Z-matrix:
 Charge =  0 Multiplicity = 1

                         Standard orientation:
 ---------------------------------------------------------------------
 Center     Atomic      Atomic             Coordinates (Angstroms)
 Number     Number       Type             X           Y           Z
 ---------------------------------------------------------------------
      1          8           0       14.911368   -2.080373   -0.237874
      2          8           0      -14.679742    2.055651    0.929628
      3          6           0       11.420341   -1.050760    1.221027
      4          6           0      -12.348345   -0.979979    0.724435
      5          6           0       12.959552   -1.323188    1.021109
      6          6           0      -13.693664   -0.160264    0.786958
      7          6           0       13.456437   -1.892936   -0.288608
      8          6           0      -13.431141    1.350256    0.792424
      9          6           0       11.012143   -0.187394   -0.006007
     10          6           0      -11.343777   -0.265172   -0.252785
     11          6           0       13.137243   -0.868624   -1.299072
     12          6           0      -12.762191    1.854635   -0.454867
     13          6           0       11.743301   -0.193707   -1.129584
     14          6           0      -11.503726    0.941643   -0.798432
     15          6           0       11.257893   -0.322354    2.434623
     16          6           0       10.635635   -2.444511    1.345236
     17          6           0      -11.665784   -1.061907    2.156742
     18          6           0      -12.661047   -2.315646    0.249155
     19          6           0        9.634468    0.329752    0.182917
     20          6           0      -10.088114   -1.068018   -0.590806
     21          6           0       11.263919    0.524520   -2.347259
     22          6           0      -10.613870    1.709768   -1.745026
     23          6           0        9.280333    1.524873   -0.161908
     24          6           0       -8.879827   -0.633974   -0.123199
     25          6           0        7.925350    2.180959    0.036224
     26          6           0       -7.622672   -1.375561   -0.520039
     27          6           0        8.065248    3.540404    0.463887
     28          6           0       -7.796768   -2.753081   -1.114490
     29          6           0        6.813020    1.450237   -0.101666
     30          6           0       -6.465448   -0.702383   -0.308627
     31          6           0        5.457558    1.955334    0.074923
     32          6           0       -5.078321   -1.277952   -0.373678
     33          6           0        4.411222    1.287968   -0.140562
     34          6           0       -4.047181   -0.420886   -0.101293
     35          6           0        3.069221    1.707541    0.114890
     36          6           0       -2.639866   -0.849163   -0.320613
     37          6           0        2.896242    3.140022    0.514752
     38          6           0       -2.406843   -2.243310   -0.750737
     39          6           0        2.039593    0.745190   -0.103921
     40          6           0       -1.738205    0.140041   -0.232575
     41          6           0        0.671399    0.945984   -0.032626
     42          6           0       -0.282558    0.047564   -0.414481
     43          1           0       13.516609   -0.282679    1.256783
     44          1           0       13.316158   -1.994916    1.967927
     45          1           0      -14.206393   -0.605692    1.718650
     46          1           0      -14.413468   -0.247541   -0.032989
     47          1           0       13.000494   -2.805373   -0.327753
     48          1           0      -12.794987    1.548354    1.595219
     49          1           0       13.824973   -0.123255   -1.077976
     50          1           0       13.358751   -1.262369   -2.315823
     51          1           0      -13.595586    1.559383   -1.163830
     52          1           0      -12.804000    2.931583   -0.521078
     53          1           0       11.703880   -0.839849    3.341930
     54          1           0       10.302943    0.250811    2.550816
     55          1           0       11.764111    0.595083    2.521574
     56          1           0       11.017513   -3.186435    0.587355
     57          1           0       10.910658   -2.827481    2.246138
     58          1           0        9.446141   -2.427688    1.157600
     59          1           0      -11.548979   -0.247126    2.724506
     60          1           0      -10.801883   -1.775035    1.922945
     61          1           0      -12.447276   -1.637334    2.612187
     62          1           0      -13.277748   -2.559179    0.978153
     63          1           0      -12.006630   -3.188364    0.306182
     64          1           0      -13.148741   -2.336546   -0.758083
     65          1           0        8.910677   -0.394445    0.466692
     66          1           0      -10.268310   -1.995776   -1.338500
     67          1           0       10.135757    0.678436   -2.163331
     68          1           0       11.919818    1.460795   -2.708472
     69          1           0       11.257267   -0.293058   -3.271577
     70          1           0      -11.057357    1.929852   -2.825972
     71          1           0       -9.868316    1.011915   -2.119876
     72          1           0      -10.196172    2.610190   -1.375754
     73          1           0       15.034014   -2.827568    0.239857
     74          1           0      -14.935287    1.765711    1.819745
     75          1           0       10.115627    2.060218   -0.368177
     76          1           0       -8.844888    0.144791    0.372077
     77          1           0        8.365446    4.174848   -0.457350
     78          1           0        7.079556    4.200247    0.703766
     79          1           0        8.818103    3.578424    1.232980
     80          1           0       -8.526056   -3.512313   -0.528425
     81          1           0       -8.211212   -2.693520   -2.078963
     82          1           0       -6.868777   -3.409648   -0.883879
     83          1           0        6.733710    0.431406   -0.628392
     84          1           0       -6.562999    0.382105   -0.005282
     85          1           0        5.367918    3.063002    0.541211
     86          1           0       -4.915368   -2.163565   -0.638161
     87          1           0        4.464135    0.270909   -0.379822
     88          1           0       -4.177362    0.619675    0.110098
     89          1           0        3.400238    3.313575    1.442084
     90          1           0        1.846093    3.182474    0.745985
     91          1           0        3.143161    4.048262   -0.129294
     92          1           0       -2.832756   -2.922150   -0.085631
     93          1           0       -2.674094   -2.423583   -1.848779
     94          1           0       -1.258148   -2.314116   -0.777272
     95          1           0        2.632127   -0.323653   -0.298806
     96          1           0       -1.919098    1.028692    0.438115
     97          1           0        0.459556    1.936966    0.459435
     98          1           0       -0.021180   -0.875211   -0.923435
 ---------------------------------------------------------------------

 SCF Done:  E(RCAM-B3LYP) =  -1706.96662622     A.U. after   13 cycles

 Excitation energies and oscillator strengths:

 Excited State   1:      Singlet-A      2.9505 eV  420.22 nm  f=3.4610  <S**2>=0.000
     155 ->158        -0.15078
     156 ->157         0.68723
 This state for optimization and/or second-order correction.
 Total Energy, E(TD-HF/TD-DFT) =  -1706.85819810
 Copying the excited state density for this state as the 1-particle RhoCI density.

 The electronic state is 1-A.
 Alpha  occ. eigenvalues --  -19.20793 -19.20458 -10.29682 -10.29024 -10.27816
 Alpha  occ. eigenvalues --  -10.27534 -10.27435 -10.27347 -10.27327 -10.27156
 Alpha  occ. eigenvalues --  -10.27079 -10.27053 -10.27036 -10.27033 -10.26952
 Alpha  occ. eigenvalues --  -10.26909 -10.26869 -10.26529 -10.26512 -10.26459
 Alpha  occ. eigenvalues --  -10.26454 -10.26251 -10.26090 -10.26088 -10.25999
 Alpha  occ. eigenvalues --  -10.25808 -10.25767 -10.25612 -10.25573 -10.25533
 Alpha  occ. eigenvalues --  -10.25436 -10.25207 -10.25147 -10.25106 -10.24725
 Alpha  occ. eigenvalues --  -10.24683 -10.24674 -10.24614 -10.24380 -10.23751
 Alpha  occ. eigenvalues --  -10.23705 -10.23342  -1.09813  -1.08889  -0.94071
 Alpha  occ. eigenvalues --   -0.93020  -0.92468  -0.91736  -0.90729  -0.89745
 Alpha  occ. eigenvalues --   -0.87748  -0.87335  -0.87074  -0.86178  -0.84782
 Alpha  occ. eigenvalues --   -0.83302  -0.82189  -0.81261  -0.79720  -0.78570
 Alpha  occ. eigenvalues --   -0.77230  -0.76837  -0.76598  -0.76346  -0.75619
 Alpha  occ. eigenvalues --   -0.75394  -0.75132  -0.74231  -0.73973  -0.70462
 Alpha  occ. eigenvalues --   -0.68315  -0.66772  -0.65514  -0.64955  -0.64414
 Alpha  occ. eigenvalues --   -0.63222  -0.62924  -0.61724  -0.60769  -0.60102
 Alpha  occ. eigenvalues --   -0.59915  -0.59720  -0.58700  -0.57595  -0.56052
 Alpha  occ. eigenvalues --   -0.55787  -0.55669  -0.55141  -0.54131  -0.53681
 Alpha  occ. eigenvalues --   -0.53016  -0.52776  -0.52284  -0.51618  -0.51026
 Alpha  occ. eigenvalues --   -0.50958  -0.50618  -0.50434  -0.50007  -0.49788
 Alpha  occ. eigenvalues --   -0.49267  -0.49103  -0.48493  -0.48099  -0.48040
 Alpha  occ. eigenvalues --   -0.47940  -0.47735  -0.47630  -0.46998  -0.46501
 Alpha  occ. eigenvalues --   -0.46004  -0.45911  -0.45541  -0.45299  -0.44852
 Alpha  occ. eigenvalues --   -0.44569  -0.44403  -0.44361  -0.43804  -0.43079
 Alpha  occ. eigenvalues --   -0.42793  -0.42535  -0.42298  -0.42076  -0.41940
 Alpha  occ. eigenvalues --   -0.41671  -0.41633  -0.41254  -0.40769  -0.40346
 Alpha  occ. eigenvalues --   -0.40217  -0.40055  -0.39766  -0.39686  -0.39106
 Alpha  occ. eigenvalues --   -0.38818  -0.38805  -0.38442  -0.37870  -0.37807
 Alpha  occ. eigenvalues --   -0.37601  -0.37285  -0.37015  -0.36889  -0.35727
 Alpha  occ. eigenvalues --   -0.34595  -0.33897  -0.33491  -0.32373  -0.31898
 Alpha  occ. eigenvalues --   -0.31692  -0.29600  -0.28265  -0.27295  -0.24844
 Alpha  occ. eigenvalues --   -0.21099
 Alpha virt. eigenvalues --   -0.03655   0.00996   0.03601   0.06570   0.08061
 Alpha virt. eigenvalues --    0.08804   0.10596   0.11277   0.11975   0.12382
 Alpha virt. eigenvalues --    0.12612   0.13510   0.13610   0.13914   0.14086

 Mulliken charges:
               1
     1  O   -0.549508
     2  O   -0.556187
     3  C    0.012964
     4  C   -0.031985
     5  C   -0.202599
     6  C   -0.192853
     7  C    0.159578
     8  C    0.136044
     9  C    0.031975
    10  C    0.020538
    11  C   -0.202789
    12  C   -0.222077
    13  C    0.057350
    14  C    0.070478
    15  C   -0.311778
    16  C   -0.299731
    17  C   -0.296936
    18  C   -0.295219
    19  C   -0.089589
    20  C   -0.161422
    21  C   -0.360844
    22  C   -0.364715
    23  C   -0.117998
    24  C   -0.022285
    25  C    0.106936
    26  C    0.099910
    27  C   -0.371524
    28  C   -0.372160
    29  C   -0.137502
    30  C   -0.140421
    31  C   -0.074989
    32  C   -0.057535
    33  C   -0.078923
    34  C   -0.091071
    35  C    0.097180
    36  C    0.107921
    37  C   -0.376566
    38  C   -0.371859
    39  C   -0.115530
    40  C   -0.140179
    41  C   -0.099923
    42  C   -0.096020
    43  H    0.085655
    44  H    0.043607
    45  H    0.067145
    46  H    0.107653
    47  H    0.090652
    48  H    0.080685
    49  H    0.140193
    50  H    0.104837
    51  H    0.105547
    52  H    0.117809
    53  H    0.093045
    54  H    0.104569
    55  H    0.107307
    56  H    0.090852
    57  H    0.117171
    58  H    0.091158
    59  H    0.114166
    60  H    0.115725
    61  H    0.092269
    62  H    0.105928
    63  H    0.099069
    64  H    0.106600
    65  H    0.094474
    66  H    0.088783
    67  H    0.122850
    68  H    0.104735
    69  H    0.077324
    70  H    0.091646
    71  H    0.112313
    72  H    0.123200
    73  H    0.294856
    74  H    0.302807
    75  H    0.086219
    76  H    0.061114
    77  H    0.121078
    78  H    0.098006
    79  H    0.130691
    80  H    0.094607
    81  H    0.139622
    82  H    0.104252
    83  H    0.083452
    84  H    0.082551
    85  H    0.064058
    86  H    0.062571
    87  H    0.064690
    88  H    0.084702
    89  H    0.129090
    90  H    0.099127
    91  H    0.122992
    92  H    0.135711
    93  H    0.124504
    94  H    0.099375
    95  H    0.069095
    96  H    0.080839
    97  H    0.089652
    98  H    0.079217
 Sum of Mulliken charges =  -0.00000

 Dipole moment (field-independent basis, Debye):
    X=              0.2842    Y=             -1.8166    Z=              1.7724  Tot=              2.5538
 Quadrupole moment (field-independent basis, Debye-Ang):
   XX=           -298.5675   YY=           -241.2250   ZZ=           -258.8556
   XY=             16.5145   XZ=             -4.4249   YZ=              4.4887

 Normal termination of Gaussian 16 at Mon Jul  8 02:17:08 2019.
