 Gaussian 16, Revision A.03,
 Gaussian 16:  ES64L-G16RevA.03 25-Dec-2016

 -------------------------------------
 # td=(NStates=1) CAM-B3LYP/6-31G(d,p)
 -------------------------------------

 --
 TD
 --
 Symbolic Z-matrix:
 Charge =  0 Multiplicity = 1

                         Standard orientation:
 ---------------------------------------------------------------------
 Center     Atomic      Atomic             Coordinates (Angstroms)
 Number     Number       Type             X           Y           Z
 ---------------------------------------------------------------------
      1          8           0       14.631772   -2.410527   -0.423449
      2          8           0      -14.965467    1.789707    0.841423
      3          6           0       11.470408   -1.030848    1.303749
      4          6           0      -12.353408   -0.963808    0.643229
      5          6           0       12.921117   -1.517851    1.189256
      6          6           0      -13.762482   -0.202890    0.732111
      7          6           0       13.316781   -1.989514   -0.246685
      8          6           0      -13.644473    1.269680    0.785775
      9          6           0       10.974210   -0.304384   -0.046559
     10          6           0      -11.385032   -0.344327   -0.363830
     11          6           0       12.969978   -0.903129   -1.217573
     12          6           0      -12.875229    1.715712   -0.472147
     13          6           0       11.592555   -0.280836   -1.167732
     14          6           0      -11.562535    0.854454   -0.754832
     15          6           0       11.348403   -0.179373    2.423409
     16          6           0       10.639044   -2.348000    1.515178
     17          6           0      -11.835086   -1.013992    2.173364
     18          6           0      -12.654989   -2.358870    0.218129
     19          6           0        9.720581    0.331114    0.186209
     20          6           0      -10.115674   -0.965573   -0.476390
     21          6           0       11.177775    0.314383   -2.446897
     22          6           0      -10.721688    1.426258   -1.817908
     23          6           0        9.413269    1.637295   -0.291008
     24          6           0       -8.847539   -0.555806   -0.170221
     25          6           0        8.111407    2.231741   -0.031419
     26          6           0       -7.565052   -1.273581   -0.556033
     27          6           0        8.168278    3.718284    0.361265
     28          6           0       -7.587847   -2.679287   -0.996884
     29          6           0        6.949144    1.606709   -0.286586
     30          6           0       -6.369171   -0.688196   -0.271448
     31          6           0        5.666196    2.040181    0.056184
     32          6           0       -4.989741   -1.091654   -0.423982
     33          6           0        4.508355    1.342583   -0.153782
     34          6           0       -3.944846   -0.436588   -0.065493
     35          6           0        3.070898    1.786308    0.102289
     36          6           0       -2.495972   -0.733889   -0.257355
     37          6           0        2.932780    3.101702    0.681187
     38          6           0       -2.234054   -2.043747   -0.778134
     39          6           0        2.084476    0.847981   -0.125244
     40          6           0       -1.571152    0.236253    0.030144
     41          6           0        0.647775    1.126660   -0.037758
     42          6           0       -0.159918    0.086125   -0.225291
     43          1           0       13.699931   -0.750260    1.260447
     44          1           0       13.301670   -2.256438    1.986933
     45          1           0      -14.351993   -0.451310    1.591545
     46          1           0      -14.302716   -0.372632   -0.105585
     47          1           0       12.537515   -2.823370   -0.614574
     48          1           0      -13.130735    1.512786    1.471746
     49          1           0       13.869471   -0.257060   -1.316882
     50          1           0       13.181428   -1.256271   -2.279346
     51          1           0      -13.560308    1.742598   -1.429936
     52          1           0      -12.650391    2.724554   -0.430595
     53          1           0       11.343710   -0.542277    3.331742
     54          1           0       10.120567   -0.062072    2.571489
     55          1           0       11.885173    0.851097    2.662096
     56          1           0       10.704039   -3.083993    0.636819
     57          1           0       10.905188   -2.940021    2.579840
     58          1           0        9.505929   -1.943736    1.497185
     59          1           0      -11.531096   -0.038094    2.399169
     60          1           0      -10.951229   -1.674958    2.280762
     61          1           0      -12.645349   -1.716024    2.791804
     62          1           0      -13.205228   -3.076467    0.764029
     63          1           0      -11.599624   -2.925804    0.023329
     64          1           0      -13.033039   -2.319549   -0.824842
     65          1           0        8.748987   -0.067046    0.591095
     66          1           0      -10.163851   -2.027819   -0.698365
     67          1           0       10.079711    0.436947   -2.476136
     68          1           0       11.482123    1.465517   -2.443701
     69          1           0       11.487609   -0.425870   -3.421333
     70          1           0      -11.424227    1.754936   -2.530875
     71          1           0      -10.103169    0.817432   -2.112009
     72          1           0      -10.260700    2.328472   -1.478146
     73          1           0       14.779086   -3.489355   -0.031279
     74          1           0      -15.178693    1.899577    1.884210
     75          1           0       10.263950    2.342750   -0.595128
     76          1           0       -8.795419    0.433681   -0.196294
     77          1           0        8.656280    4.238521   -0.511749
     78          1           0        7.048199    4.141040    0.665806
     79          1           0        8.851772    3.780879    1.272803
     80          1           0       -8.101166   -3.289927   -0.253851
     81          1           0       -8.144192   -2.865487   -1.968588
     82          1           0       -6.448415   -3.096965   -0.901084
     83          1           0        7.013025    0.501020   -0.552092
     84          1           0       -6.534555    0.256715    0.247443
     85          1           0        5.399705    2.996576    0.326168
     86          1           0       -5.046504   -2.142118   -0.697783
     87          1           0        4.595169    0.242130   -0.472691
     88          1           0       -4.099638    0.611063    0.144452
     89          1           0        3.365439    3.320768    1.655293
     90          1           0        1.939498    3.327196    0.985512
     91          1           0        3.212944    3.936751    0.241336
     92          1           0       -2.813862   -2.959644   -0.236260
     93          1           0       -2.649985   -2.362056   -1.690864
     94          1           0       -1.089224   -2.293114   -1.001892
     95          1           0        2.217617   -0.174417   -0.348445
     96          1           0       -2.152939    1.192418    0.351569
     97          1           0        0.210756    2.072699    0.005904
     98          1           0        0.186059   -0.881110   -0.265711
 ---------------------------------------------------------------------

 SCF Done:  E(RCAM-B3LYP) =  -1706.85038964     A.U. after   14 cycles

 Excitation energies and oscillator strengths:

 Excited State   1:      Singlet-A      3.0075 eV  412.25 nm  f=3.5564  <S**2>=0.000
     155 ->158        -0.19194
     156 ->157         0.66924
 This state for optimization and/or second-order correction.
 Total Energy, E(TD-HF/TD-DFT) =  -1706.73986553
 Copying the excited state density for this state as the 1-particle RhoCI density.

 The electronic state is 1-A.
 Alpha  occ. eigenvalues --  -19.23066 -19.21911 -10.30736 -10.27941 -10.27930
 Alpha  occ. eigenvalues --  -10.27836 -10.27598 -10.27495 -10.27456 -10.27346
 Alpha  occ. eigenvalues --  -10.27232 -10.27173 -10.26889 -10.26880 -10.26783
 Alpha  occ. eigenvalues --  -10.26767 -10.26541 -10.26515 -10.26374 -10.26343
 Alpha  occ. eigenvalues --  -10.26226 -10.26008 -10.25766 -10.25712 -10.25664
 Alpha  occ. eigenvalues --  -10.25649 -10.25635 -10.25556 -10.25544 -10.25537
 Alpha  occ. eigenvalues --  -10.25498 -10.25481 -10.25429 -10.24852 -10.24844
 Alpha  occ. eigenvalues --  -10.24795 -10.24619 -10.24565 -10.24435 -10.23945
 Alpha  occ. eigenvalues --  -10.22614 -10.22118  -1.08172  -1.07980  -0.94420
 Alpha  occ. eigenvalues --   -0.94153  -0.92439  -0.91426  -0.90605  -0.89705
 Alpha  occ. eigenvalues --   -0.88224  -0.87755  -0.87245  -0.85757  -0.84926
 Alpha  occ. eigenvalues --   -0.83721  -0.82639  -0.81042  -0.79336  -0.79027
 Alpha  occ. eigenvalues --   -0.77511  -0.76310  -0.75959  -0.75721  -0.75466
 Alpha  occ. eigenvalues --   -0.75235  -0.75189  -0.74285  -0.73940  -0.70518
 Alpha  occ. eigenvalues --   -0.68862  -0.67749  -0.66349  -0.64854  -0.64565
 Alpha  occ. eigenvalues --   -0.64136  -0.63280  -0.62851  -0.61121  -0.60191
 Alpha  occ. eigenvalues --   -0.59632  -0.59306  -0.58402  -0.58036  -0.56614
 Alpha  occ. eigenvalues --   -0.55346  -0.55146  -0.54844  -0.54046  -0.53814
 Alpha  occ. eigenvalues --   -0.53502  -0.53311  -0.52489  -0.51906  -0.50877
 Alpha  occ. eigenvalues --   -0.50120  -0.49992  -0.49857  -0.49454  -0.49295
 Alpha  occ. eigenvalues --   -0.49041  -0.48821  -0.48639  -0.48390  -0.48072
 Alpha  occ. eigenvalues --   -0.47843  -0.47768  -0.47226  -0.46720  -0.46582
 Alpha  occ. eigenvalues --   -0.46070  -0.45725  -0.45372  -0.45072  -0.44892
 Alpha  occ. eigenvalues --   -0.44605  -0.44215  -0.43670  -0.42985  -0.42820
 Alpha  occ. eigenvalues --   -0.42731  -0.42528  -0.42224  -0.42109  -0.41873
 Alpha  occ. eigenvalues --   -0.41697  -0.41124  -0.40906  -0.40467  -0.40316
 Alpha  occ. eigenvalues --   -0.40218  -0.39930  -0.39722  -0.39526  -0.39181
 Alpha  occ. eigenvalues --   -0.38953  -0.38657  -0.38443  -0.38153  -0.38018
 Alpha  occ. eigenvalues --   -0.37710  -0.37317  -0.36530  -0.35529  -0.35116
 Alpha  occ. eigenvalues --   -0.34926  -0.34490  -0.33262  -0.32156  -0.31363
 Alpha  occ. eigenvalues --   -0.30822  -0.30212  -0.28994  -0.26877  -0.24356
 Alpha  occ. eigenvalues --   -0.21376
 Alpha virt. eigenvalues --   -0.03418  -0.00246   0.02434   0.05597   0.07273
 Alpha virt. eigenvalues --    0.07934   0.09562   0.10090   0.10414   0.11734
 Alpha virt. eigenvalues --    0.11890   0.12264   0.12381   0.13020   0.13268

 Mulliken charges:
               1
     1  O   -0.565165
     2  O   -0.567698
     3  C    0.007433
     4  C   -0.022105
     5  C   -0.182242
     6  C   -0.148122
     7  C    0.188468
     8  C    0.193813
     9  C    0.077932
    10  C    0.112515
    11  C   -0.237244
    12  C   -0.238617
    13  C    0.095297
    14  C   -0.005520
    15  C   -0.280477
    16  C   -0.287000
    17  C   -0.297592
    18  C   -0.302378
    19  C   -0.131209
    20  C   -0.149723
    21  C   -0.361075
    22  C   -0.325677
    23  C   -0.123437
    24  C   -0.077582
    25  C    0.069533
    26  C    0.095768
    27  C   -0.354455
    28  C   -0.375224
    29  C   -0.104713
    30  C   -0.132336
    31  C   -0.056854
    32  C   -0.040286
    33  C   -0.134405
    34  C   -0.127290
    35  C    0.119052
    36  C    0.167497
    37  C   -0.405048
    38  C   -0.399066
    39  C   -0.134977
    40  C   -0.145263
    41  C   -0.053827
    42  C   -0.090585
    43  H    0.097406
    44  H    0.071006
    45  H    0.074145
    46  H    0.104151
    47  H    0.040419
    48  H    0.073223
    49  H    0.111069
    50  H    0.089332
    51  H    0.100672
    52  H    0.104222
    53  H    0.118674
    54  H    0.057025
    55  H    0.101704
    56  H    0.110399
    57  H    0.085210
    58  H    0.083864
    59  H    0.108347
    60  H    0.104441
    61  H    0.082829
    62  H    0.107601
    63  H    0.063356
    64  H    0.098960
    65  H    0.100578
    66  H    0.073734
    67  H    0.128956
    68  H    0.111834
    69  H    0.089951
    70  H    0.112667
    71  H    0.113167
    72  H    0.106882
    73  H    0.314707
    74  H    0.306782
    75  H    0.083347
    76  H    0.076564
    77  H    0.121334
    78  H    0.093807
    79  H    0.117997
    80  H    0.128759
    81  H    0.116523
    82  H    0.087246
    83  H    0.074803
    84  H    0.066830
    85  H    0.066979
    86  H    0.059301
    87  H    0.062183
    88  H    0.074479
    89  H    0.125799
    90  H    0.109445
    91  H    0.135244
    92  H    0.098167
    93  H    0.139806
    94  H    0.090224
    95  H    0.089816
    96  H    0.080269
    97  H    0.090674
    98  H    0.092976
 Sum of Mulliken charges =  -0.00000

 Dipole moment (field-independent basis, Debye):
    X=              0.2507    Y=             -0.4430    Z=              1.9169  Tot=              1.9833
 Quadrupole moment (field-independent basis, Debye-Ang):
   XX=           -281.6544   YY=           -238.8675   ZZ=           -258.4343
   XY=             -9.4098   XZ=             -5.6660   YZ=              4.7358

 Normal termination of Gaussian 16 at Tue Jul  9 07:36:32 2019.
