 Gaussian 16, Revision A.03,
 Gaussian 16:  ES64L-G16RevA.03 25-Dec-2016

 -------------------------------------
 # td=(NStates=1) CAM-B3LYP/6-31G(d,p)
 -------------------------------------

 --
 TD
 --
 Symbolic Z-matrix:
 Charge =  0 Multiplicity = 1

                         Standard orientation:
 ---------------------------------------------------------------------
 Center     Atomic      Atomic             Coordinates (Angstroms)
 Number     Number       Type             X           Y           Z
 ---------------------------------------------------------------------
      1          8           0       14.606152   -2.407854   -0.518065
      2          8           0      -14.759349    1.949228    0.829763
      3          6           0       11.510472   -1.040677    1.318727
      4          6           0      -12.297229   -0.962497    0.815928
      5          6           0       13.002098   -1.526858    1.047491
      6          6           0      -13.633972   -0.259531    0.893886
      7          6           0       13.234127   -2.080803   -0.300449
      8          6           0      -13.574480    1.192235    0.804229
      9          6           0       10.992991   -0.260359    0.087598
     10          6           0      -11.287407   -0.309423   -0.218449
     11          6           0       12.863721   -1.044582   -1.321021
     12          6           0      -12.812132    1.568987   -0.474487
     13          6           0       11.560871   -0.343847   -1.183367
     14          6           0      -11.546708    0.826106   -0.803004
     15          6           0       11.459946   -0.177760    2.565002
     16          6           0       10.670634   -2.288252    1.562033
     17          6           0      -11.592875   -0.987295    2.255840
     18          6           0      -12.590608   -2.407182    0.432322
     19          6           0        9.655539    0.430017    0.271980
     20          6           0      -10.119391   -1.055874   -0.464290
     21          6           0       11.011410    0.343995   -2.338482
     22          6           0      -10.762131    1.428854   -1.940025
     23          6           0        9.358716    1.666599   -0.190080
     24          6           0       -8.866046   -0.514504   -0.422188
     25          6           0        8.075961    2.383312   -0.120762
     26          6           0       -7.596303   -1.149328   -0.501886
     27          6           0        8.059103    3.751255    0.559613
     28          6           0       -7.770401   -2.620959   -1.053458
     29          6           0        6.935861    1.550890   -0.234014
     30          6           0       -6.413254   -0.568985   -0.365606
     31          6           0        5.542193    2.051441   -0.048014
     32          6           0       -5.114566   -1.101800   -0.509711
     33          6           0        4.446011    1.306702   -0.147750
     34          6           0       -3.979294   -0.300338   -0.096659
     35          6           0        3.080695    1.733477    0.170508
     36          6           0       -2.639423   -0.805726   -0.424886
     37          6           0        2.896973    3.196562    0.479085
     38          6           0       -2.319823   -2.140559   -0.850329
     39          6           0        2.132792    0.756854   -0.039841
     40          6           0       -1.686582    0.176726   -0.169576
     41          6           0        0.665733    0.985792   -0.039586
     42          6           0       -0.243156    0.047237   -0.271368
     43          1           0       13.674456   -0.803671    1.260563
     44          1           0       13.104349   -2.341627    1.736321
     45          1           0      -14.093519   -0.631612    1.835626
     46          1           0      -14.355277   -0.769538    0.282218
     47          1           0       12.576570   -3.007641   -0.361594
     48          1           0      -12.914942    1.540672    1.659092
     49          1           0       13.770933   -0.460078   -1.434985
     50          1           0       12.943852   -1.467972   -2.375936
     51          1           0      -13.634779    1.524536   -1.254252
     52          1           0      -12.660680    2.595368   -0.306811
     53          1           0       11.943299   -0.733287    3.383267
     54          1           0       10.380390    0.012810    2.737986
     55          1           0       11.937175    0.845742    2.356440
     56          1           0       10.728191   -2.902612    0.553110
     57          1           0       11.291803   -2.676788    2.383751
     58          1           0        9.619441   -2.115891    1.570236
     59          1           0      -11.478747    0.022048    2.831593
     60          1           0      -10.298387   -1.254438    2.104955
     61          1           0      -11.882447   -1.873608    3.001021
     62          1           0      -13.186631   -2.803005    1.208674
     63          1           0      -11.630868   -2.936713    0.374676
     64          1           0      -12.938957   -2.389692   -0.452276
     65          1           0        8.951218   -0.140600    0.779658
     66          1           0      -10.078248   -2.146156   -0.800079
     67          1           0       10.102462    0.487111   -2.342408
     68          1           0       11.674728    1.206734   -2.294886
     69          1           0       11.141808   -0.133912   -3.447745
     70          1           0      -11.587237    1.649587   -2.597771
     71          1           0       -9.870635    0.788360   -2.347335
     72          1           0      -10.569401    2.555172   -1.973245
     73          1           0       14.729445   -3.041474    0.281596
     74          1           0      -15.462427    1.531176    1.386848
     75          1           0       10.237301    2.270721   -0.478060
     76          1           0       -8.657166    0.393785    0.018834
     77          1           0        8.870104    4.262851   -0.006926
     78          1           0        7.057397    4.212663    0.463394
     79          1           0        8.432488    3.807590    1.484740
     80          1           0       -8.321024   -3.140513   -0.321113
     81          1           0       -8.080652   -2.724886   -2.128842
     82          1           0       -6.667036   -3.119364   -0.889567
     83          1           0        7.133981    0.618874   -0.702440
     84          1           0       -6.598437    0.530424   -0.038150
     85          1           0        5.583316    2.989927    0.557735
     86          1           0       -4.852644   -2.062490   -0.936369
     87          1           0        4.469497    0.465172   -0.340076
     88          1           0       -3.970700    0.602179    0.391527
     89          1           0        3.320391    3.477209    1.487249
     90          1           0        1.754154    3.561901    0.569153
     91          1           0        3.586538    3.834516   -0.286119
     92          1           0       -2.649746   -2.790237   -0.187096
     93          1           0       -2.772780   -2.206945   -1.720113
     94          1           0       -1.236572   -2.384365   -0.907931
     95          1           0        2.414054   -0.244275   -0.307596
     96          1           0       -2.098294    1.286149    0.006823
     97          1           0        0.385026    2.233846    0.086660
     98          1           0        0.099048   -1.034168   -0.457328
 ---------------------------------------------------------------------

 SCF Done:  E(RCAM-B3LYP) =  -1706.92186441     A.U. after   14 cycles

 Excitation energies and oscillator strengths:

 Excited State   1:      Singlet-A      2.7491 eV  451.01 nm  f=3.6843  <S**2>=0.000
     155 ->158        -0.18219
     156 ->157         0.67723
 This state for optimization and/or second-order correction.
 Total Energy, E(TD-HF/TD-DFT) =  -1706.82083828
 Copying the excited state density for this state as the 1-particle RhoCI density.

 The electronic state is 1-A.
 Alpha  occ. eigenvalues --  -19.22033 -19.21578 -10.30078 -10.30000 -10.28104
 Alpha  occ. eigenvalues --  -10.27958 -10.27957 -10.27819 -10.27620 -10.27505
 Alpha  occ. eigenvalues --  -10.27306 -10.27214 -10.27166 -10.27084 -10.26931
 Alpha  occ. eigenvalues --  -10.26811 -10.26790 -10.26738 -10.26292 -10.26245
 Alpha  occ. eigenvalues --  -10.26120 -10.26061 -10.26041 -10.25993 -10.25958
 Alpha  occ. eigenvalues --  -10.25884 -10.25773 -10.25627 -10.25550 -10.25399
 Alpha  occ. eigenvalues --  -10.25260 -10.25135 -10.24975 -10.24669 -10.24529
 Alpha  occ. eigenvalues --  -10.24502 -10.24445 -10.23948 -10.23853 -10.23715
 Alpha  occ. eigenvalues --  -10.23712 -10.22738  -1.09445  -1.09153  -0.94117
 Alpha  occ. eigenvalues --   -0.93443  -0.92267  -0.91608  -0.90658  -0.89602
 Alpha  occ. eigenvalues --   -0.87973  -0.87710  -0.86861  -0.85727  -0.84706
 Alpha  occ. eigenvalues --   -0.83158  -0.82454  -0.80862  -0.80135  -0.78781
 Alpha  occ. eigenvalues --   -0.77306  -0.76783  -0.76527  -0.76324  -0.75949
 Alpha  occ. eigenvalues --   -0.75822  -0.75138  -0.74207  -0.73649  -0.70782
 Alpha  occ. eigenvalues --   -0.69022  -0.67326  -0.65917  -0.64745  -0.64109
 Alpha  occ. eigenvalues --   -0.63339  -0.63055  -0.61728  -0.60297  -0.59573
 Alpha  occ. eigenvalues --   -0.58879  -0.58833  -0.58658  -0.57537  -0.56601
 Alpha  occ. eigenvalues --   -0.56322  -0.55736  -0.55225  -0.54606  -0.54121
 Alpha  occ. eigenvalues --   -0.53993  -0.53518  -0.52967  -0.52463  -0.52295
 Alpha  occ. eigenvalues --   -0.51667  -0.50716  -0.50457  -0.49772  -0.49638
 Alpha  occ. eigenvalues --   -0.49379  -0.49009  -0.48873  -0.48134  -0.47865
 Alpha  occ. eigenvalues --   -0.47542  -0.47204  -0.46888  -0.46810  -0.46506
 Alpha  occ. eigenvalues --   -0.46328  -0.46201  -0.45999  -0.45724  -0.45497
 Alpha  occ. eigenvalues --   -0.45316  -0.44767  -0.44472  -0.43723  -0.43571
 Alpha  occ. eigenvalues --   -0.43308  -0.43084  -0.42879  -0.42040  -0.41894
 Alpha  occ. eigenvalues --   -0.41291  -0.41266  -0.40872  -0.40376  -0.40350
 Alpha  occ. eigenvalues --   -0.40233  -0.40125  -0.39832  -0.39464  -0.39130
 Alpha  occ. eigenvalues --   -0.39081  -0.38540  -0.38137  -0.37865  -0.37556
 Alpha  occ. eigenvalues --   -0.37274  -0.37117  -0.36655  -0.36191  -0.35898
 Alpha  occ. eigenvalues --   -0.35808  -0.34474  -0.33286  -0.32168  -0.32013
 Alpha  occ. eigenvalues --   -0.31889  -0.29784  -0.27819  -0.26149  -0.23736
 Alpha  occ. eigenvalues --   -0.20752
 Alpha virt. eigenvalues --   -0.04169  -0.00559   0.03008   0.05876   0.07871
 Alpha virt. eigenvalues --    0.09545   0.10427   0.10824   0.11399   0.11598
 Alpha virt. eigenvalues --    0.12292   0.12550   0.13036   0.13265   0.14043

 Mulliken charges:
               1
     1  O   -0.556559
     2  O   -0.571670
     3  C   -0.047042
     4  C   -0.006348
     5  C   -0.182378
     6  C   -0.202117
     7  C    0.165099
     8  C    0.189557
     9  C    0.026681
    10  C    0.066572
    11  C   -0.234870
    12  C   -0.243945
    13  C    0.061086
    14  C    0.092985
    15  C   -0.284430
    16  C   -0.280302
    17  C   -0.295748
    18  C   -0.291259
    19  C   -0.108204
    20  C   -0.159318
    21  C   -0.325044
    22  C   -0.366819
    23  C   -0.123021
    24  C   -0.075381
    25  C    0.048765
    26  C    0.089727
    27  C   -0.350959
    28  C   -0.373034
    29  C   -0.113249
    30  C   -0.109920
    31  C   -0.115622
    32  C   -0.122847
    33  C   -0.007653
    34  C   -0.085170
    35  C    0.124523
    36  C    0.099604
    37  C   -0.374123
    38  C   -0.363358
    39  C   -0.142157
    40  C   -0.146244
    41  C   -0.071320
    42  C   -0.093003
    43  H    0.108230
    44  H    0.065423
    45  H    0.078335
    46  H    0.095140
    47  H    0.071486
    48  H    0.069046
    49  H    0.124586
    50  H    0.094998
    51  H    0.107553
    52  H    0.118049
    53  H    0.094142
    54  H    0.104121
    55  H    0.099978
    56  H    0.088260
    57  H    0.103349
    58  H    0.110523
    59  H    0.103383
    60  H    0.058273
    61  H    0.089757
    62  H    0.102594
    63  H    0.097950
    64  H    0.113895
    65  H    0.085815
    66  H    0.094864
    67  H    0.126346
    68  H    0.126493
    69  H    0.075072
    70  H    0.114733
    71  H    0.120554
    72  H    0.104915
    73  H    0.305468
    74  H    0.310324
    75  H    0.077176
    76  H    0.069885
    77  H    0.105743
    78  H    0.112661
    79  H    0.141186
    80  H    0.130034
    81  H    0.125746
    82  H    0.066785
    83  H    0.085226
    84  H    0.072849
    85  H    0.079375
    86  H    0.097000
    87  H    0.017728
    88  H    0.093044
    89  H    0.124108
    90  H    0.096143
    91  H    0.113312
    92  H    0.137742
    93  H    0.140104
    94  H    0.108348
    95  H    0.088412
    96  H    0.072919
    97  H    0.063241
    98  H    0.076088
 Sum of Mulliken charges =  -0.00000

 Dipole moment (field-independent basis, Debye):
    X=             -0.8533    Y=             -1.6481    Z=              1.7145  Tot=              2.5266
 Quadrupole moment (field-independent basis, Debye-Ang):
   XX=           -262.0605   YY=           -249.3144   ZZ=           -261.3263
   XY=             17.5573   XZ=             11.8649   YZ=              0.2235

 Normal termination of Gaussian 16 at Fri Jun 28 23:51:40 2019.
