 Gaussian 16, Revision A.03,
 Gaussian 16:  ES64L-G16RevA.03 25-Dec-2016

 -------------------------------------
 # td=(NStates=1) CAM-B3LYP/6-31G(d,p)
 -------------------------------------

 --
 TD
 --
 Symbolic Z-matrix:
 Charge =  0 Multiplicity = 1

                         Standard orientation:
 ---------------------------------------------------------------------
 Center     Atomic      Atomic             Coordinates (Angstroms)
 Number     Number       Type             X           Y           Z
 ---------------------------------------------------------------------
      1          8           0       14.585423   -2.359722   -0.374792
      2          8           0      -14.750187    2.110443    0.560776
      3          6           0       11.351506   -1.183401    1.113222
      4          6           0      -12.268300   -0.913036    0.982793
      5          6           0       12.878310   -1.553389    1.100049
      6          6           0      -13.634295   -0.157640    0.894618
      7          6           0       13.198233   -1.956110   -0.277901
      8          6           0      -13.472318    1.371913    0.630593
      9          6           0       10.865761   -0.303856    0.014545
     10          6           0      -11.206639   -0.314458   -0.098646
     11          6           0       13.010674   -0.797343   -1.255485
     12          6           0      -12.819684    1.594820   -0.711221
     13          6           0       11.620219   -0.148766   -1.078031
     14          6           0      -11.519760    0.748428   -0.880267
     15          6           0       11.082144   -0.439730    2.517667
     16          6           0       10.505939   -2.431499    1.108146
     17          6           0      -11.517553   -0.616062    2.333521
     18          6           0      -12.589787   -2.386453    0.855635
     19          6           0        9.667621    0.461282    0.231961
     20          6           0      -10.057568   -1.050610   -0.247961
     21          6           0       11.280380    0.594682   -2.379330
     22          6           0      -10.708480    1.233110   -2.004520
     23          6           0        9.356565    1.690981   -0.038902
     24          6           0       -8.824055   -0.517316   -0.311348
     25          6           0        8.114761    2.357501    0.171296
     26          6           0       -7.516267   -1.335788   -0.571956
     27          6           0        7.990393    3.706743    0.745247
     28          6           0       -7.713041   -2.909479   -0.651503
     29          6           0        6.956950    1.662042   -0.070905
     30          6           0       -6.340716   -0.632607   -0.458392
     31          6           0        5.646831    2.091662    0.219947
     32          6           0       -5.064322   -1.124179   -0.737384
     33          6           0        4.469644    1.330661   -0.209047
     34          6           0       -3.974435   -0.304045   -0.351458
     35          6           0        3.087459    1.701741    0.064909
     36          6           0       -2.553253   -0.679800   -0.554454
     37          6           0        2.813961    3.027716    0.660364
     38          6           0       -2.443171   -2.113176   -1.137050
     39          6           0        2.153801    0.727340   -0.171767
     40          6           0       -1.577676    0.167805   -0.322518
     41          6           0        0.756646    0.852367   -0.004166
     42          6           0       -0.132817   -0.075102   -0.485653
     43          1           0       13.393340   -0.835046    1.331221
     44          1           0       13.166847   -2.390623    1.691191
     45          1           0      -14.340788   -0.243151    1.825096
     46          1           0      -14.285393   -0.575192   -0.008360
     47          1           0       12.498756   -2.785586   -0.405003
     48          1           0      -12.911888    1.836463    1.287877
     49          1           0       13.719035    0.150031   -1.116570
     50          1           0       13.098866   -1.367991   -2.287533
     51          1           0      -13.416840    1.310953   -1.613717
     52          1           0      -12.639630    2.683114   -0.769523
     53          1           0       11.035392   -1.114806    3.375248
     54          1           0        9.991061   -0.077554    2.372915
     55          1           0       11.644293    0.457627    2.801799
     56          1           0       10.476742   -2.961226    0.237948
     57          1           0       10.773412   -3.207060    1.977720
     58          1           0        9.458783   -2.051954    1.274402
     59          1           0      -11.314782    0.469958    2.677696
     60          1           0      -10.744125   -1.266321    2.333109
     61          1           0      -12.198548   -1.011873    3.122565
     62          1           0      -13.360161   -2.679647    1.570611
     63          1           0      -11.732403   -3.224944    1.189426
     64          1           0      -12.966875   -2.491556   -0.112415
     65          1           0        8.952558   -0.016751    0.762458
     66          1           0      -10.096697   -2.262847   -0.364988
     67          1           0       10.238150    1.078431   -2.633998
     68          1           0       12.055263    1.440558   -2.374295
     69          1           0       11.513545   -0.153750   -3.202117
     70          1           0      -11.492106    1.321407   -2.820674
     71          1           0       -9.825380    0.490870   -2.133520
     72          1           0      -10.213222    2.402302   -1.923905
     73          1           0       14.651146   -3.000310    0.474419
     74          1           0      -15.135086    1.586618    1.354603
     75          1           0       10.317411    2.255740   -0.251128
     76          1           0       -8.830582    0.601198   -0.025264
     77          1           0        8.606623    4.482224    0.242032
     78          1           0        6.807445    4.081856    0.720184
     79          1           0        8.278558    3.945443    1.674761
     80          1           0       -7.982031   -3.253173    0.359392
     81          1           0       -8.224122   -3.218004   -1.483536
     82          1           0       -6.748389   -3.439154   -0.627343
     83          1           0        7.018387    0.602647   -0.280731
     84          1           0       -6.447044    0.451405   -0.194804
     85          1           0        5.658934    3.006276    0.646017
     86          1           0       -5.015120   -2.178412   -0.992031
     87          1           0        4.562848    0.334367   -0.695679
     88          1           0       -3.971413    0.754007    0.015285
     89          1           0        3.250743    3.107675    1.734138
     90          1           0        1.810681    3.059694    0.665356
     91          1           0        3.091244    3.833110   -0.147825
     92          1           0       -3.077395   -2.909239   -0.589402
     93          1           0       -2.709215   -2.405904   -2.141134
     94          1           0       -1.449896   -2.476870   -1.208834
     95          1           0        2.700643   -0.334838   -0.504928
     96          1           0       -1.970578    1.211017   -0.100511
     97          1           0        0.328627    1.756551    0.636086
     98          1           0        0.076529   -1.045227   -0.639550
 ---------------------------------------------------------------------

 SCF Done:  E(RCAM-B3LYP) =  -1706.94621199     A.U. after   14 cycles

 Excitation energies and oscillator strengths:

 Excited State   1:      Singlet-A      2.5688 eV  482.66 nm  f=3.6030  <S**2>=0.000
     155 ->158         0.17751
     156 ->157         0.67933
 This state for optimization and/or second-order correction.
 Total Energy, E(TD-HF/TD-DFT) =  -1706.85181133
 Copying the excited state density for this state as the 1-particle RhoCI density.

 The electronic state is 1-A.
 Alpha  occ. eigenvalues --  -19.21603 -19.21256 -10.29530 -10.29166 -10.28784
 Alpha  occ. eigenvalues --  -10.28405 -10.27999 -10.27788 -10.27771 -10.27541
 Alpha  occ. eigenvalues --  -10.27497 -10.27459 -10.27319 -10.27216 -10.27180
 Alpha  occ. eigenvalues --  -10.27104 -10.26977 -10.26780 -10.26716 -10.26631
 Alpha  occ. eigenvalues --  -10.26478 -10.26428 -10.26427 -10.26357 -10.26198
 Alpha  occ. eigenvalues --  -10.26080 -10.26039 -10.26015 -10.25982 -10.25908
 Alpha  occ. eigenvalues --  -10.25740 -10.25641 -10.25580 -10.25465 -10.25442
 Alpha  occ. eigenvalues --  -10.25228 -10.25208 -10.25132 -10.25001 -10.24593
 Alpha  occ. eigenvalues --  -10.24383 -10.22708  -1.07383  -1.07272  -0.94633
 Alpha  occ. eigenvalues --   -0.93216  -0.92199  -0.91637  -0.90815  -0.89246
 Alpha  occ. eigenvalues --   -0.87433  -0.87119  -0.86322  -0.86030  -0.85103
 Alpha  occ. eigenvalues --   -0.83056  -0.82086  -0.80866  -0.79727  -0.78310
 Alpha  occ. eigenvalues --   -0.76861  -0.76727  -0.76633  -0.76303  -0.76016
 Alpha  occ. eigenvalues --   -0.75276  -0.75161  -0.74592  -0.73569  -0.71174
 Alpha  occ. eigenvalues --   -0.68482  -0.66916  -0.65954  -0.65008  -0.64356
 Alpha  occ. eigenvalues --   -0.63591  -0.62917  -0.61758  -0.61043  -0.60596
 Alpha  occ. eigenvalues --   -0.59514  -0.58892  -0.57343  -0.56548  -0.55927
 Alpha  occ. eigenvalues --   -0.55564  -0.54991  -0.54467  -0.54045  -0.53858
 Alpha  occ. eigenvalues --   -0.52825  -0.52323  -0.52017  -0.51732  -0.51431
 Alpha  occ. eigenvalues --   -0.50779  -0.50224  -0.49996  -0.49735  -0.49641
 Alpha  occ. eigenvalues --   -0.49426  -0.48871  -0.48334  -0.48095  -0.47822
 Alpha  occ. eigenvalues --   -0.47417  -0.47006  -0.46535  -0.46275  -0.46088
 Alpha  occ. eigenvalues --   -0.45703  -0.45609  -0.45351  -0.44601  -0.44477
 Alpha  occ. eigenvalues --   -0.44303  -0.44141  -0.43989  -0.43708  -0.43500
 Alpha  occ. eigenvalues --   -0.43414  -0.42878  -0.42669  -0.42546  -0.42403
 Alpha  occ. eigenvalues --   -0.42080  -0.41831  -0.41456  -0.41391  -0.41251
 Alpha  occ. eigenvalues --   -0.41078  -0.40347  -0.40153  -0.39720  -0.39541
 Alpha  occ. eigenvalues --   -0.39373  -0.38902  -0.38763  -0.38569  -0.38245
 Alpha  occ. eigenvalues --   -0.37564  -0.37153  -0.36659  -0.36432  -0.35745
 Alpha  occ. eigenvalues --   -0.35503  -0.34891  -0.33716  -0.32785  -0.32584
 Alpha  occ. eigenvalues --   -0.31469  -0.29928  -0.28208  -0.26598  -0.23403
 Alpha  occ. eigenvalues --   -0.20545
 Alpha virt. eigenvalues --   -0.04846  -0.00877   0.02929   0.05497   0.07368
 Alpha virt. eigenvalues --    0.10026   0.10384   0.10880   0.11281   0.11774
 Alpha virt. eigenvalues --    0.12403   0.12593   0.12832   0.13235   0.13557

 Mulliken charges:
               1
     1  O   -0.569411
     2  O   -0.561696
     3  C   -0.068872
     4  C   -0.004940
     5  C   -0.133405
     6  C   -0.211364
     7  C    0.160446
     8  C    0.160412
     9  C    0.125796
    10  C    0.056738
    11  C   -0.207735
    12  C   -0.215699
    13  C   -0.013104
    14  C    0.048623
    15  C   -0.309770
    16  C   -0.293915
    17  C   -0.295644
    18  C   -0.304235
    19  C   -0.098924
    20  C   -0.131061
    21  C   -0.334730
    22  C   -0.341039
    23  C   -0.113784
    24  C   -0.120202
    25  C    0.099292
    26  C    0.045724
    27  C   -0.377897
    28  C   -0.373569
    29  C   -0.103054
    30  C   -0.092395
    31  C   -0.082210
    32  C   -0.084992
    33  C   -0.128736
    34  C   -0.126374
    35  C    0.118603
    36  C    0.143907
    37  C   -0.351101
    38  C   -0.387795
    39  C   -0.121771
    40  C   -0.154432
    41  C   -0.104984
    42  C   -0.074309
    43  H    0.097179
    44  H    0.069723
    45  H    0.066235
    46  H    0.093498
    47  H    0.080986
    48  H    0.101271
    49  H    0.114851
    50  H    0.106417
    51  H    0.113396
    52  H    0.112563
    53  H    0.099869
    54  H    0.085393
    55  H    0.106637
    56  H    0.120137
    57  H    0.081158
    58  H    0.096399
    59  H    0.101517
    60  H    0.123137
    61  H    0.082606
    62  H    0.111486
    63  H    0.076044
    64  H    0.121091
    65  H    0.079516
    66  H    0.080386
    67  H    0.113449
    68  H    0.105423
    69  H    0.106575
    70  H    0.101621
    71  H    0.116985
    72  H    0.077100
    73  H    0.295732
    74  H    0.298888
    75  H    0.073921
    76  H    0.095792
    77  H    0.108704
    78  H    0.085699
    79  H    0.139330
    80  H    0.134731
    81  H    0.138433
    82  H    0.101665
    83  H    0.079883
    84  H    0.086973
    85  H    0.067800
    86  H    0.095437
    87  H    0.080729
    88  H    0.082282
    89  H    0.123172
    90  H    0.110933
    91  H    0.114366
    92  H    0.102113
    93  H    0.128400
    94  H    0.100925
    95  H    0.074948
    96  H    0.075837
    97  H    0.101003
    98  H    0.093265
 Sum of Mulliken charges =  -0.00000

 Dipole moment (field-independent basis, Debye):
    X=              0.2871    Y=             -2.0987    Z=              2.7752  Tot=              3.4913
 Quadrupole moment (field-independent basis, Debye-Ang):
   XX=           -304.3173   YY=           -245.7178   ZZ=           -261.0517
   XY=             28.9370   XZ=              4.1282   YZ=              3.1682

 Normal termination of Gaussian 16 at Fri Jul  5 13:07:34 2019.
