 Gaussian 16, Revision A.03,
 Gaussian 16:  ES64L-G16RevA.03 25-Dec-2016

 -------------------------------------
 # td=(NStates=1) CAM-B3LYP/6-31G(d,p)
 -------------------------------------

 --
 TD
 --
 Symbolic Z-matrix:
 Charge =  0 Multiplicity = 1

                         Standard orientation:
 ---------------------------------------------------------------------
 Center     Atomic      Atomic             Coordinates (Angstroms)
 Number     Number       Type             X           Y           Z
 ---------------------------------------------------------------------
      1          8           0       14.774053   -1.953556   -0.340517
      2          8           0      -14.618175    2.305093    0.676023
      3          6           0       11.459968   -0.983750    1.246186
      4          6           0      -12.386258   -0.734283    0.917014
      5          6           0       12.882085   -1.349866    1.003938
      6          6           0      -13.746693    0.096565    0.788017
      7          6           0       13.394146   -1.860221   -0.246508
      8          6           0      -13.442524    1.562010    0.702190
      9          6           0       10.893130   -0.218740    0.051051
     10          6           0      -11.349882   -0.228702   -0.054951
     11          6           0       13.049170   -0.637155   -1.313783
     12          6           0      -12.761772    1.820436   -0.729051
     13          6           0       11.678500   -0.114501   -1.141263
     14          6           0      -11.509693    0.769501   -0.852172
     15          6           0       11.254260   -0.246299    2.591176
     16          6           0       10.635348   -2.330168    1.376895
     17          6           0      -11.774036   -0.831801    2.358203
     18          6           0      -12.722458   -2.244225    0.536854
     19          6           0        9.589754    0.379075    0.267432
     20          6           0      -10.129569   -1.012633   -0.177898
     21          6           0       11.077952    0.504871   -2.343116
     22          6           0      -10.413313    1.277816   -1.887315
     23          6           0        9.405307    1.660995   -0.016222
     24          6           0       -8.838195   -0.524110   -0.183249
     25          6           0        7.948175    2.279685    0.129246
     26          6           0       -7.598130   -1.382765   -0.395451
     27          6           0        8.048192    3.719302    0.516229
     28          6           0       -7.716914   -2.819166   -0.799151
     29          6           0        6.871173    1.522376    0.054336
     30          6           0       -6.460075   -0.750683   -0.337881
     31          6           0        5.477080    1.987609    0.162656
     32          6           0       -5.108208   -1.221719   -0.505320
     33          6           0        4.533008    1.164175   -0.217818
     34          6           0       -4.000993   -0.475404   -0.358954
     35          6           0        3.095138    1.432605   -0.045262
     36          6           0       -2.631011   -0.981970   -0.537357
     37          6           0        2.741734    2.827908    0.513268
     38          6           0       -2.465793   -2.399650   -0.976276
     39          6           0        2.095654    0.551234   -0.356723
     40          6           0       -1.589664   -0.111935   -0.206974
     41          6           0        0.648128    0.749451   -0.204466
     42          6           0       -0.207110   -0.286863   -0.483120
     43          1           0       13.536677   -0.425249    1.157151
     44          1           0       13.295060   -2.091740    1.858378
     45          1           0      -14.488505   -0.050712    1.546155
     46          1           0      -14.165903   -0.471907   -0.058774
     47          1           0       12.899275   -2.782692   -0.631997
     48          1           0      -12.590722    1.906834    1.410920
     49          1           0       13.908403    0.091114   -1.290524
     50          1           0       13.164523   -1.135198   -2.253207
     51          1           0      -13.161691    1.371614   -1.567836
     52          1           0      -12.435981    2.828781   -1.058156
     53          1           0       11.949899   -0.749971    3.440299
     54          1           0       10.371937   -0.425685    3.098789
     55          1           0       11.419864    0.790790    2.394976
     56          1           0       10.665151   -3.045556    0.332956
     57          1           0       10.832921   -3.078583    2.045316
     58          1           0        9.421157   -2.209102    1.392277
     59          1           0      -11.524459    0.132867    2.671292
     60          1           0      -10.812224   -1.481097    2.437948
     61          1           0      -12.567136   -1.120064    3.062394
     62          1           0      -13.387484   -2.685743    1.369595
     63          1           0      -11.889126   -2.790715    0.672235
     64          1           0      -12.963519   -2.287435   -0.541810
     65          1           0        9.173024    0.047711    1.240068
     66          1           0      -10.141763   -2.071658   -0.588953
     67          1           0       10.007497    0.494921   -2.412127
     68          1           0       11.453166    1.487823   -2.588748
     69          1           0       11.519791   -0.173648   -3.358403
     70          1           0      -10.853223    1.616189   -2.799928
     71          1           0       -9.665393    0.514027   -2.211481
     72          1           0       -9.916357    2.133484   -1.493657
     73          1           0       15.117947   -2.584681    0.309616
     74          1           0      -15.083417    2.098393    1.520959
     75          1           0       10.318889    2.355970   -0.433214
     76          1           0       -8.722255    0.518168    0.150237
     77          1           0        8.723707    4.221863   -0.125976
     78          1           0        7.021355    4.019909    0.608816
     79          1           0        8.458632    3.872216    1.527616
     80          1           0       -8.112932   -3.225521    0.119233
     81          1           0       -8.418994   -2.880947   -1.730923
     82          1           0       -6.799026   -3.293756   -1.103701
     83          1           0        7.198532    0.463708   -0.252868
     84          1           0       -6.792707    0.529190   -0.090376
     85          1           0        5.468585    3.267220    0.186068
     86          1           0       -5.224710   -2.318263   -0.672618
     87          1           0        4.867787    0.135519   -0.410641
     88          1           0       -4.066419    0.512198   -0.166540
     89          1           0        3.358318    2.987163    1.461921
     90          1           0        1.706509    3.048840    0.787496
     91          1           0        3.109782    3.407032   -0.245868
     92          1           0       -2.436837   -3.177868   -0.095568
     93          1           0       -3.158691   -2.721931   -1.812799
     94          1           0       -1.438517   -2.479998   -1.437750
     95          1           0        2.606428   -0.489793   -0.686717
     96          1           0       -2.003993    0.924896    0.207162
     97          1           0        0.324951    1.638544    0.177065
     98          1           0        0.121527   -1.333817   -0.816279
 ---------------------------------------------------------------------

 SCF Done:  E(RCAM-B3LYP) =  -1706.96783788     A.U. after   13 cycles

 Excitation energies and oscillator strengths:

 Excited State   1:      Singlet-A      2.9164 eV  425.12 nm  f=3.5015  <S**2>=0.000
     155 ->158        -0.17096
     156 ->157         0.67583
 This state for optimization and/or second-order correction.
 Total Energy, E(TD-HF/TD-DFT) =  -1706.86066111
 Copying the excited state density for this state as the 1-particle RhoCI density.

 The electronic state is 1-A.
 Alpha  occ. eigenvalues --  -19.21738 -19.21627 -10.31694 -10.30385 -10.28101
 Alpha  occ. eigenvalues --  -10.28029 -10.28025 -10.27536 -10.27532 -10.27380
 Alpha  occ. eigenvalues --  -10.27354 -10.27179 -10.27109 -10.26964 -10.26903
 Alpha  occ. eigenvalues --  -10.26853 -10.26745 -10.26679 -10.26610 -10.26526
 Alpha  occ. eigenvalues --  -10.26508 -10.26378 -10.26346 -10.26299 -10.26209
 Alpha  occ. eigenvalues --  -10.26170 -10.25986 -10.25699 -10.25611 -10.25554
 Alpha  occ. eigenvalues --  -10.25553 -10.25260 -10.25218 -10.25121 -10.25100
 Alpha  occ. eigenvalues --  -10.25073 -10.24914 -10.24813 -10.24478 -10.24447
 Alpha  occ. eigenvalues --  -10.24267 -10.24206  -1.10664  -1.10434  -0.93447
 Alpha  occ. eigenvalues --   -0.93090  -0.91880  -0.91540  -0.90418  -0.89492
 Alpha  occ. eigenvalues --   -0.87310  -0.86420  -0.85818  -0.85363  -0.84206
 Alpha  occ. eigenvalues --   -0.83211  -0.81753  -0.80491  -0.79218  -0.77609
 Alpha  occ. eigenvalues --   -0.76748  -0.76610  -0.75914  -0.75716  -0.75689
 Alpha  occ. eigenvalues --   -0.75174  -0.74756  -0.74420  -0.73766  -0.70515
 Alpha  occ. eigenvalues --   -0.68516  -0.67471  -0.65964  -0.64485  -0.64258
 Alpha  occ. eigenvalues --   -0.63841  -0.62125  -0.61684  -0.59973  -0.59106
 Alpha  occ. eigenvalues --   -0.58627  -0.58093  -0.57864  -0.56872  -0.55850
 Alpha  occ. eigenvalues --   -0.55004  -0.54848  -0.54486  -0.53931  -0.53263
 Alpha  occ. eigenvalues --   -0.53018  -0.52215  -0.52015  -0.51689  -0.51474
 Alpha  occ. eigenvalues --   -0.50605  -0.50001  -0.49588  -0.49426  -0.49055
 Alpha  occ. eigenvalues --   -0.48630  -0.48316  -0.48208  -0.48099  -0.47560
 Alpha  occ. eigenvalues --   -0.47445  -0.47339  -0.46885  -0.46461  -0.46193
 Alpha  occ. eigenvalues --   -0.45829  -0.45739  -0.45393  -0.45308  -0.45144
 Alpha  occ. eigenvalues --   -0.44947  -0.44393  -0.44008  -0.43712  -0.43598
 Alpha  occ. eigenvalues --   -0.43432  -0.43064  -0.42619  -0.42408  -0.42306
 Alpha  occ. eigenvalues --   -0.41754  -0.41524  -0.41157  -0.40999  -0.40705
 Alpha  occ. eigenvalues --   -0.40264  -0.39987  -0.39477  -0.39299  -0.38992
 Alpha  occ. eigenvalues --   -0.38729  -0.38445  -0.38190  -0.38059  -0.37844
 Alpha  occ. eigenvalues --   -0.37267  -0.36672  -0.36373  -0.35434  -0.34529
 Alpha  occ. eigenvalues --   -0.33857  -0.33519  -0.33319  -0.32846  -0.32506
 Alpha  occ. eigenvalues --   -0.31875  -0.29752  -0.28314  -0.26062  -0.24329
 Alpha  occ. eigenvalues --   -0.21289
 Alpha virt. eigenvalues --   -0.03880  -0.00204   0.02560   0.05610   0.08470
 Alpha virt. eigenvalues --    0.09238   0.10845   0.11128   0.11628   0.12191
 Alpha virt. eigenvalues --    0.12199   0.12456   0.13099   0.13252   0.13526

 Mulliken charges:
               1
     1  O   -0.545683
     2  O   -0.545932
     3  C    0.009603
     4  C   -0.045664
     5  C   -0.173469
     6  C   -0.190500
     7  C    0.176891
     8  C    0.184587
     9  C    0.051423
    10  C    0.100058
    11  C   -0.247280
    12  C   -0.212700
    13  C    0.069071
    14  C   -0.021174
    15  C   -0.309839
    16  C   -0.303217
    17  C   -0.306010
    18  C   -0.308929
    19  C   -0.140127
    20  C   -0.156176
    21  C   -0.353534
    22  C   -0.361789
    23  C   -0.098015
    24  C   -0.097573
    25  C    0.046757
    26  C    0.101190
    27  C   -0.349345
    28  C   -0.367732
    29  C   -0.108510
    30  C   -0.102586
    31  C   -0.090189
    32  C   -0.104312
    33  C   -0.102884
    34  C   -0.086560
    35  C    0.074597
    36  C    0.108649
    37  C   -0.362379
    38  C   -0.373173
    39  C   -0.129349
    40  C   -0.131699
    41  C   -0.076756
    42  C   -0.074157
    43  H    0.097745
    44  H    0.041375
    45  H    0.075450
    46  H    0.113562
    47  H    0.078142
    48  H    0.084297
    49  H    0.121282
    50  H    0.111305
    51  H    0.131826
    52  H    0.104663
    53  H    0.080822
    54  H    0.118357
    55  H    0.118350
    56  H    0.060104
    57  H    0.117868
    58  H    0.080940
    59  H    0.104487
    60  H    0.104131
    61  H    0.093045
    62  H    0.090011
    63  H    0.115619
    64  H    0.100632
    65  H    0.111502
    66  H    0.080853
    67  H    0.129683
    68  H    0.118947
    69  H    0.049008
    70  H    0.099281
    71  H    0.119911
    72  H    0.119797
    73  H    0.301472
    74  H    0.300627
    75  H    0.093252
    76  H    0.091358
    77  H    0.121577
    78  H    0.094650
    79  H    0.122173
    80  H    0.134836
    81  H    0.115152
    82  H    0.114307
    83  H    0.092428
    84  H    0.030584
    85  H    0.088228
    86  H    0.082816
    87  H    0.097597
    88  H    0.079799
    89  H    0.111889
    90  H    0.106309
    91  H    0.135395
    92  H    0.119438
    93  H    0.116754
    94  H    0.102229
    95  H    0.065178
    96  H    0.075757
    97  H    0.089671
    98  H    0.097940
 Sum of Mulliken charges =  -0.00000

 Dipole moment (field-independent basis, Debye):
    X=              0.1999    Y=             -1.3089    Z=              2.2639  Tot=              2.6227
 Quadrupole moment (field-independent basis, Debye-Ang):
   XX=           -270.3012   YY=           -246.3992   ZZ=           -259.8451
   XY=             11.8725   XZ=              2.9464   YZ=              2.3471

 Normal termination of Gaussian 16 at Wed Jul  3 11:09:42 2019.
