 Gaussian 16, Revision A.03,
 Gaussian 16:  ES64L-G16RevA.03 25-Dec-2016

 -------------------------------------
 # td=(NStates=1) CAM-B3LYP/6-31G(d,p)
 -------------------------------------

 --
 TD
 --
 Symbolic Z-matrix:
 Charge =  0 Multiplicity = 1

                         Standard orientation:
 ---------------------------------------------------------------------
 Center     Atomic      Atomic             Coordinates (Angstroms)
 Number     Number       Type             X           Y           Z
 ---------------------------------------------------------------------
      1          8           0       14.664427   -2.363524   -0.193314
      2          8           0      -14.700436    2.013698    0.889572
      3          6           0       11.460612   -1.032621    1.240547
      4          6           0      -12.244796   -0.869400    0.958976
      5          6           0       12.985785   -1.372740    1.157778
      6          6           0      -13.554353   -0.204760    0.891411
      7          6           0       13.307348   -1.978083   -0.115262
      8          6           0      -13.475756    1.276131    0.799350
      9          6           0       10.967645   -0.316294   -0.032584
     10          6           0      -11.294609   -0.295635   -0.175142
     11          6           0       13.039167   -0.939701   -1.302111
     12          6           0      -12.852343    1.638182   -0.521934
     13          6           0       11.708067   -0.153189   -1.168188
     14          6           0      -11.597258    0.802749   -0.820816
     15          6           0       11.349932   -0.116752    2.444975
     16          6           0       10.507212   -2.292131    1.462182
     17          6           0      -11.537279   -0.611506    2.336539
     18          6           0      -12.340319   -2.347700    0.758074
     19          6           0        9.660498    0.319985    0.084875
     20          6           0      -10.048046   -1.044463   -0.439472
     21          6           0       11.115348    0.525316   -2.439927
     22          6           0      -10.822952    1.372795   -2.000244
     23          6           0        9.322158    1.630914   -0.187983
     24          6           0       -8.746634   -0.582409   -0.398261
     25          6           0        8.005762    2.233478   -0.021671
     26          6           0       -7.550432   -1.327093   -0.674591
     27          6           0        8.106668    3.670526    0.452320
     28          6           0       -7.762686   -2.640598   -1.196261
     29          6           0        6.787241    1.651719   -0.146688
     30          6           0       -6.457154   -0.714039   -0.429444
     31          6           0        5.539229    2.040816    0.050828
     32          6           0       -5.138253   -1.257526   -0.636021
     33          6           0        4.436545    1.214095   -0.096895
     34          6           0       -4.009164   -0.404916   -0.184967
     35          6           0        3.022834    1.641933    0.042187
     36          6           0       -2.671343   -0.836738   -0.310907
     37          6           0        2.769377    3.080360    0.532317
     38          6           0       -2.311669   -2.157632   -0.928190
     39          6           0        2.033564    0.818729   -0.341857
     40          6           0       -1.741593    0.113975   -0.119532
     41          6           0        0.589186    0.922826   -0.115110
     42          6           0       -0.245501   -0.126072   -0.249665
     43          1           0       13.593165   -0.511691    1.390827
     44          1           0       12.962892   -1.914747    2.035867
     45          1           0      -14.203088   -0.635978    1.785154
     46          1           0      -14.143355   -0.499915   -0.094192
     47          1           0       12.616501   -2.744149   -0.248401
     48          1           0      -12.810104    1.582051    1.710225
     49          1           0       14.140864   -0.252580   -1.136092
     50          1           0       13.108972   -1.505478   -2.194452
     51          1           0      -13.758987    1.256468   -1.220001
     52          1           0      -12.638685    2.714792   -0.552358
     53          1           0       11.734785   -0.600409    3.417325
     54          1           0       10.195184    0.420607    2.479465
     55          1           0       11.789602    0.814319    2.413863
     56          1           0       10.785523   -3.011845    0.672574
     57          1           0       10.902866   -2.631495    2.426156
     58          1           0        9.640105   -1.965603    1.848189
     59          1           0      -10.980571    0.534299    2.248061
     60          1           0      -10.827783   -1.269883    2.321974
     61          1           0      -12.195729   -0.715680    3.210523
     62          1           0      -12.741778   -3.072864    1.619941
     63          1           0      -11.170425   -2.741634    0.540501
     64          1           0      -12.883885   -2.775950   -0.078528
     65          1           0        8.941775   -0.304300    0.572884
     66          1           0      -10.203397   -1.992386   -0.746674
     67          1           0       10.221343    0.845484   -2.184194
     68          1           0       11.808177    1.240742   -2.570809
     69          1           0       11.318315   -0.086347   -3.228913
     70          1           0      -11.342061    1.632671   -2.951864
     71          1           0      -10.153715    0.636362   -2.268008
     72          1           0      -10.206961    2.183209   -1.619550
     73          1           0       14.836759   -3.140909    0.324836
     74          1           0      -15.296733    1.734410    1.598458
     75          1           0       10.063111    2.195226   -0.551280
     76          1           0       -8.780623    0.592115   -0.077236
     77          1           0        8.425338    4.297348   -0.564860
     78          1           0        7.059529    4.091827    0.922897
     79          1           0        8.819478    3.859717    1.324266
     80          1           0       -8.017765   -3.516530   -0.329410
     81          1           0       -8.420499   -2.825599   -1.887378
     82          1           0       -6.752852   -2.947368   -1.629681
     83          1           0        6.868906    0.520544   -0.510454
     84          1           0       -6.510080    0.363124   -0.017585
     85          1           0        5.215388    2.937033    0.476655
     86          1           0       -4.999325   -2.191380   -1.016515
     87          1           0        4.650370    0.110891   -0.604483
     88          1           0       -4.232251    0.558658    0.572576
     89          1           0        3.148080    3.094707    1.597842
     90          1           0        1.709193    3.260335    0.664414
     91          1           0        3.078699    3.549943   -0.465727
     92          1           0       -2.619226   -3.281993   -0.315735
     93          1           0       -2.689054   -2.392355   -1.967720
     94          1           0       -1.332165   -2.363280   -0.716470
     95          1           0        2.104492   -0.363502   -0.605388
     96          1           0       -1.883985    1.237842    0.104901
     97          1           0        0.215567    1.870950    0.178076
     98          1           0        0.255949   -1.076402   -0.626357
 ---------------------------------------------------------------------

 SCF Done:  E(RCAM-B3LYP) =  -1706.86339726     A.U. after   15 cycles

 Excitation energies and oscillator strengths:

 Excited State   1:      Singlet-A      2.7239 eV  455.17 nm  f=3.7500  <S**2>=0.000
     155 ->158         0.19928
     156 ->157         0.67211
 This state for optimization and/or second-order correction.
 Total Energy, E(TD-HF/TD-DFT) =  -1706.76329474
 Copying the excited state density for this state as the 1-particle RhoCI density.

 The electronic state is 1-A.
 Alpha  occ. eigenvalues --  -19.21129 -19.20249 -10.29904 -10.29839 -10.28617
 Alpha  occ. eigenvalues --  -10.28246 -10.28080 -10.27989 -10.27807 -10.27631
 Alpha  occ. eigenvalues --  -10.27456 -10.27410 -10.27351 -10.27325 -10.27233
 Alpha  occ. eigenvalues --  -10.27208 -10.27167 -10.27122 -10.26940 -10.26645
 Alpha  occ. eigenvalues --  -10.26643 -10.26246 -10.26183 -10.26159 -10.25899
 Alpha  occ. eigenvalues --  -10.25800 -10.25751 -10.25640 -10.25637 -10.25603
 Alpha  occ. eigenvalues --  -10.25562 -10.25558 -10.25472 -10.25444 -10.25373
 Alpha  occ. eigenvalues --  -10.25125 -10.24780 -10.24610 -10.24534 -10.23525
 Alpha  occ. eigenvalues --  -10.23427 -10.22340  -1.09953  -1.07930  -0.93838
 Alpha  occ. eigenvalues --   -0.93603  -0.92685  -0.92081  -0.91369  -0.90086
 Alpha  occ. eigenvalues --   -0.87730  -0.86822  -0.86556  -0.85394  -0.84949
 Alpha  occ. eigenvalues --   -0.83523  -0.82313  -0.80413  -0.79500  -0.77578
 Alpha  occ. eigenvalues --   -0.77473  -0.77091  -0.76874  -0.75832  -0.75380
 Alpha  occ. eigenvalues --   -0.75208  -0.74619  -0.74537  -0.73896  -0.70626
 Alpha  occ. eigenvalues --   -0.69332  -0.67327  -0.65759  -0.65041  -0.63950
 Alpha  occ. eigenvalues --   -0.63388  -0.62457  -0.62048  -0.60896  -0.60382
 Alpha  occ. eigenvalues --   -0.60036  -0.59790  -0.57693  -0.57292  -0.56267
 Alpha  occ. eigenvalues --   -0.56029  -0.55593  -0.55111  -0.54455  -0.54168
 Alpha  occ. eigenvalues --   -0.53061  -0.52640  -0.52603  -0.52142  -0.51748
 Alpha  occ. eigenvalues --   -0.51267  -0.50793  -0.50016  -0.49470  -0.49389
 Alpha  occ. eigenvalues --   -0.48900  -0.48490  -0.48281  -0.48074  -0.47696
 Alpha  occ. eigenvalues --   -0.47531  -0.47377  -0.47253  -0.46962  -0.46324
 Alpha  occ. eigenvalues --   -0.45495  -0.45458  -0.45339  -0.44724  -0.44532
 Alpha  occ. eigenvalues --   -0.44311  -0.43903  -0.43613  -0.43339  -0.42781
 Alpha  occ. eigenvalues --   -0.42529  -0.42428  -0.42046  -0.41975  -0.41714
 Alpha  occ. eigenvalues --   -0.41655  -0.41213  -0.40895  -0.40363  -0.40274
 Alpha  occ. eigenvalues --   -0.40085  -0.39864  -0.39745  -0.39611  -0.39378
 Alpha  occ. eigenvalues --   -0.39065  -0.38849  -0.38198  -0.37757  -0.37584
 Alpha  occ. eigenvalues --   -0.37486  -0.37002  -0.36406  -0.35990  -0.35425
 Alpha  occ. eigenvalues --   -0.34938  -0.34387  -0.32927  -0.32361  -0.31931
 Alpha  occ. eigenvalues --   -0.31179  -0.29967  -0.28187  -0.26927  -0.23516
 Alpha  occ. eigenvalues --   -0.20901
 Alpha virt. eigenvalues --   -0.04406  -0.01046   0.03324   0.05656   0.07987
 Alpha virt. eigenvalues --    0.09847   0.10644   0.11082   0.12160   0.12482
 Alpha virt. eigenvalues --    0.12669   0.12864   0.12936   0.12962   0.13439

 Mulliken charges:
               1
     1  O   -0.558651
     2  O   -0.577138
     3  C   -0.062739
     4  C    0.023737
     5  C   -0.151929
     6  C   -0.185774
     7  C    0.162180
     8  C    0.189866
     9  C    0.089025
    10  C    0.052670
    11  C   -0.220680
    12  C   -0.203241
    13  C    0.002519
    14  C    0.039492
    15  C   -0.307526
    16  C   -0.298377
    17  C   -0.272438
    18  C   -0.310511
    19  C   -0.132823
    20  C   -0.170289
    21  C   -0.327152
    22  C   -0.360589
    23  C   -0.097253
    24  C   -0.103472
    25  C    0.072365
    26  C    0.164939
    27  C   -0.351390
    28  C   -0.364059
    29  C   -0.106782
    30  C   -0.109497
    31  C   -0.054934
    32  C   -0.113449
    33  C   -0.110809
    34  C   -0.132469
    35  C    0.048272
    36  C    0.118011
    37  C   -0.366254
    38  C   -0.348230
    39  C   -0.123907
    40  C   -0.118880
    41  C   -0.067637
    42  C   -0.103033
    43  H    0.103827
    44  H    0.086340
    45  H    0.063728
    46  H    0.073135
    47  H    0.076102
    48  H    0.061297
    49  H    0.078957
    50  H    0.113858
    51  H    0.099998
    52  H    0.113142
    53  H    0.090821
    54  H    0.065815
    55  H    0.123922
    56  H    0.115785
    57  H    0.092083
    58  H    0.126613
    59  H    0.073507
    60  H    0.121085
    61  H    0.100235
    62  H    0.082071
    63  H    0.071132
    64  H    0.112177
    65  H    0.089868
    66  H    0.089771
    67  H    0.120042
    68  H    0.125631
    69  H    0.113717
    70  H    0.108453
    71  H    0.121379
    72  H    0.112581
    73  H    0.303785
    74  H    0.302782
    75  H    0.088980
    76  H    0.067543
    77  H    0.098871
    78  H    0.091523
    79  H    0.118538
    80  H    0.090146
    81  H    0.137440
    82  H    0.093077
    83  H    0.064574
    84  H    0.085881
    85  H    0.087617
    86  H    0.095809
    87  H    0.070998
    88  H    0.087936
    89  H    0.136903
    90  H    0.112615
    91  H    0.147673
    92  H    0.054989
    93  H    0.133348
    94  H    0.127151
    95  H    0.061947
    96  H    0.097318
    97  H    0.073621
    98  H    0.090701
 Sum of Mulliken charges =  -0.00000

 Dipole moment (field-independent basis, Debye):
    X=              2.1674    Y=             -1.9273    Z=              1.5756  Tot=              3.3007
 Quadrupole moment (field-independent basis, Debye-Ang):
   XX=           -287.5335   YY=           -246.0818   ZZ=           -257.8755
   XY=              9.7016   XZ=              4.2504   YZ=              3.6114

 Normal termination of Gaussian 16 at Sun Jun 30 03:46:16 2019.
