 Gaussian 16, Revision A.03,
 Gaussian 16:  ES64L-G16RevA.03 25-Dec-2016

 -------------------------------------
 # td=(NStates=1) CAM-B3LYP/6-31G(d,p)
 -------------------------------------

 --
 TD
 --
 Symbolic Z-matrix:
 Charge =  0 Multiplicity = 1

                         Standard orientation:
 ---------------------------------------------------------------------
 Center     Atomic      Atomic             Coordinates (Angstroms)
 Number     Number       Type             X           Y           Z
 ---------------------------------------------------------------------
      1          8           0       14.640659   -2.246601   -0.517954
      2          8           0      -14.724891    1.949490    0.857308
      3          6           0       11.456929   -1.144736    1.149273
      4          6           0      -12.282340   -1.033245    0.713174
      5          6           0       12.964608   -1.500975    1.151056
      6          6           0      -13.720374   -0.289841    0.860307
      7          6           0       13.389029   -2.025299   -0.296774
      8          6           0      -13.501617    1.227529    0.840909
      9          6           0       10.925141   -0.274879    0.026906
     10          6           0      -11.325763   -0.287200   -0.246929
     11          6           0       12.994920   -0.895776   -1.342845
     12          6           0      -12.779213    1.681249   -0.346139
     13          6           0       11.557440   -0.208512   -1.078240
     14          6           0      -11.491610    0.919318   -0.807494
     15          6           0       11.242344   -0.488308    2.621136
     16          6           0       10.623834   -2.476502    1.227971
     17          6           0      -11.669120   -0.995229    2.120932
     18          6           0      -12.659534   -2.446261    0.272655
     19          6           0        9.634873    0.392011    0.304739
     20          6           0      -10.183772   -1.034055   -0.411296
     21          6           0       11.136939    0.472830   -2.310679
     22          6           0      -10.592075    1.551061   -1.864658
     23          6           0        9.333291    1.625077    0.021936
     24          6           0       -8.865063   -0.564195   -0.294658
     25          6           0        8.078961    2.286488    0.093456
     26          6           0       -7.680124   -1.275792   -0.487649
     27          6           0        8.165857    3.767532    0.554996
     28          6           0       -7.723111   -2.713072   -0.868381
     29          6           0        6.961188    1.601726   -0.095510
     30          6           0       -6.475093   -0.613095   -0.242354
     31          6           0        5.553106    2.103889    0.087242
     32          6           0       -5.069178   -1.131036   -0.328925
     33          6           0        4.492115    1.313795   -0.049758
     34          6           0       -3.966038   -0.287523   -0.329884
     35          6           0        3.088397    1.738930    0.076837
     36          6           0       -2.608645   -0.648923   -0.484429
     37          6           0        2.789015    3.140502    0.533586
     38          6           0       -2.261838   -2.151942   -0.836407
     39          6           0        2.045720    0.915334   -0.214543
     40          6           0       -1.575892    0.149686   -0.253072
     41          6           0        0.605388    1.054133   -0.143188
     42          6           0       -0.194884    0.043039   -0.419297
     43          1           0       13.404463   -0.603883    1.262721
     44          1           0       13.172958   -2.242516    1.734703
     45          1           0      -14.200930   -0.570974    1.745029
     46          1           0      -14.122073   -0.714000    0.123248
     47          1           0       12.929070   -2.962188   -0.445096
     48          1           0      -12.936695    1.594324    1.762284
     49          1           0       13.658266   -0.243104   -1.218571
     50          1           0       12.992022   -1.408630   -2.450237
     51          1           0      -13.232379    1.736923   -1.453369
     52          1           0      -12.478896    2.724172   -0.307135
     53          1           0       11.527126   -1.291156    3.302705
     54          1           0       10.117462   -0.525773    2.909170
     55          1           0       11.743591    0.489454    2.771443
     56          1           0       11.132782   -3.104563    0.522558
     57          1           0       10.816802   -2.878563    2.233355
     58          1           0        9.549184   -2.563072    1.207000
     59          1           0      -11.574479    0.030401    2.414059
     60          1           0      -10.699999   -1.579580    2.144199
     61          1           0      -12.224858   -1.560513    2.840845
     62          1           0      -13.526916   -2.636946    0.614399
     63          1           0      -11.831464   -3.142805    0.370421
     64          1           0      -12.888513   -2.573198   -0.738315
     65          1           0        8.840249   -0.204054    0.696545
     66          1           0      -10.361916   -2.040744   -0.840334
     67          1           0       10.028940    0.766742   -2.262294
     68          1           0       11.768184    1.383863   -2.455995
     69          1           0       11.140855   -0.163984   -3.262575
     70          1           0      -11.404860    2.176830   -2.462494
     71          1           0      -10.055120    0.802229   -2.447358
     72          1           0       -9.921488    2.190871   -1.410209
     73          1           0       14.866607   -3.128719   -0.066662
     74          1           0      -15.274965    1.337064    1.528486
     75          1           0       10.359248    2.218224   -0.316584
     76          1           0       -8.670006    0.381109    0.127174
     77          1           0        8.548834    4.459964   -0.310494
     78          1           0        7.245514    4.110579    0.846235
     79          1           0        8.819854    3.803570    1.490880
     80          1           0       -8.300953   -3.442218   -0.204904
     81          1           0       -8.195127   -2.746771   -1.851844
     82          1           0       -6.799135   -3.030272   -0.879865
     83          1           0        7.123318    0.569319   -0.223149
     84          1           0       -6.551686    0.326305   -0.059553
     85          1           0        5.536871    3.153182    0.248741
     86          1           0       -4.914891   -2.206210   -0.651245
     87          1           0        4.743345    0.306174   -0.333876
     88          1           0       -4.174885    0.776424   -0.051520
     89          1           0        3.277771    3.215205    1.546807
     90          1           0        1.946137    3.651122    0.606050
     91          1           0        3.220800    3.829567   -0.185900
     92          1           0       -2.976105   -2.802707   -0.247862
     93          1           0       -2.635116   -2.140049   -1.989386
     94          1           0       -1.204624   -2.424834   -1.133141
     95          1           0        2.417629   -0.024800   -0.601902
     96          1           0       -1.861734    1.170034    0.299238
     97          1           0        0.050215    2.058972    0.142836
     98          1           0        0.232701   -0.915317   -0.768114
 ---------------------------------------------------------------------

 SCF Done:  E(RCAM-B3LYP) =  -1706.95829413     A.U. after   14 cycles

 Excitation energies and oscillator strengths:

 Excited State   1:      Singlet-A      2.7994 eV  442.90 nm  f=3.6685  <S**2>=0.000
     155 ->158         0.17186
     156 ->157         0.68093
 This state for optimization and/or second-order correction.
 Total Energy, E(TD-HF/TD-DFT) =  -1706.85541860
 Copying the excited state density for this state as the 1-particle RhoCI density.

 The electronic state is 1-A.
 Alpha  occ. eigenvalues --  -19.22017 -19.21458 -10.30857 -10.29322 -10.27587
 Alpha  occ. eigenvalues --  -10.27509 -10.27466 -10.27420 -10.27273 -10.27050
 Alpha  occ. eigenvalues --  -10.27025 -10.26833 -10.26695 -10.26576 -10.26517
 Alpha  occ. eigenvalues --  -10.26237 -10.26108 -10.26092 -10.25959 -10.25807
 Alpha  occ. eigenvalues --  -10.25705 -10.25699 -10.25666 -10.25652 -10.25494
 Alpha  occ. eigenvalues --  -10.25411 -10.25234 -10.25194 -10.25188 -10.24862
 Alpha  occ. eigenvalues --  -10.24860 -10.24728 -10.24695 -10.24568 -10.24227
 Alpha  occ. eigenvalues --  -10.24223 -10.24081 -10.24003 -10.23842 -10.23655
 Alpha  occ. eigenvalues --  -10.22949 -10.22551  -1.14002  -1.08352  -0.93757
 Alpha  occ. eigenvalues --   -0.93245  -0.92127  -0.91405  -0.90856  -0.90000
 Alpha  occ. eigenvalues --   -0.87695  -0.87248  -0.86455  -0.85109  -0.84396
 Alpha  occ. eigenvalues --   -0.82860  -0.81835  -0.80115  -0.79705  -0.78239
 Alpha  occ. eigenvalues --   -0.78061  -0.77316  -0.76718  -0.76476  -0.75807
 Alpha  occ. eigenvalues --   -0.75677  -0.75169  -0.74646  -0.74184  -0.70716
 Alpha  occ. eigenvalues --   -0.69047  -0.67585  -0.66398  -0.65309  -0.64767
 Alpha  occ. eigenvalues --   -0.64065  -0.63044  -0.61599  -0.61203  -0.60760
 Alpha  occ. eigenvalues --   -0.60234  -0.59068  -0.57826  -0.57236  -0.56338
 Alpha  occ. eigenvalues --   -0.55428  -0.55244  -0.55075  -0.54426  -0.54239
 Alpha  occ. eigenvalues --   -0.53586  -0.52772  -0.52295  -0.51423  -0.51153
 Alpha  occ. eigenvalues --   -0.50542  -0.50405  -0.50030  -0.49843  -0.49601
 Alpha  occ. eigenvalues --   -0.49485  -0.49142  -0.48835  -0.48738  -0.48355
 Alpha  occ. eigenvalues --   -0.48226  -0.48053  -0.47688  -0.47371  -0.46919
 Alpha  occ. eigenvalues --   -0.46425  -0.46330  -0.45931  -0.45407  -0.45293
 Alpha  occ. eigenvalues --   -0.45200  -0.44872  -0.44755  -0.44019  -0.43965
 Alpha  occ. eigenvalues --   -0.43223  -0.43149  -0.42788  -0.42486  -0.42125
 Alpha  occ. eigenvalues --   -0.41743  -0.41676  -0.41220  -0.40999  -0.40528
 Alpha  occ. eigenvalues --   -0.40335  -0.39833  -0.39706  -0.39394  -0.39265
 Alpha  occ. eigenvalues --   -0.39127  -0.38961  -0.38604  -0.38182  -0.37828
 Alpha  occ. eigenvalues --   -0.37672  -0.36947  -0.36751  -0.36484  -0.35476
 Alpha  occ. eigenvalues --   -0.34640  -0.34488  -0.33602  -0.31802  -0.31723
 Alpha  occ. eigenvalues --   -0.30281  -0.29458  -0.28378  -0.26626  -0.24118
 Alpha  occ. eigenvalues --   -0.20848
 Alpha virt. eigenvalues --   -0.04094  -0.00037   0.03400   0.06867   0.09300
 Alpha virt. eigenvalues --    0.10360   0.10436   0.10777   0.12151   0.12403
 Alpha virt. eigenvalues --    0.13225   0.13552   0.13710   0.13850   0.14067

 Mulliken charges:
               1
     1  O   -0.519472
     2  O   -0.561386
     3  C   -0.042298
     4  C   -0.039278
     5  C   -0.157694
     6  C   -0.201278
     7  C    0.155373
     8  C    0.179075
     9  C    0.092057
    10  C    0.071269
    11  C   -0.200701
    12  C   -0.213608
    13  C    0.027606
    14  C    0.030738
    15  C   -0.306377
    16  C   -0.315495
    17  C   -0.290103
    18  C   -0.323382
    19  C   -0.095733
    20  C   -0.157788
    21  C   -0.365873
    22  C   -0.340317
    23  C   -0.104022
    24  C   -0.099835
    25  C    0.077020
    26  C    0.116804
    27  C   -0.353894
    28  C   -0.352973
    29  C   -0.118275
    30  C   -0.117278
    31  C   -0.075469
    32  C   -0.111055
    33  C   -0.113289
    34  C   -0.108513
    35  C    0.101228
    36  C    0.116708
    37  C   -0.365155
    38  C   -0.370926
    39  C   -0.149261
    40  C   -0.147048
    41  C   -0.077485
    42  C   -0.031552
    43  H    0.103294
    44  H    0.076473
    45  H    0.085988
    46  H    0.106466
    47  H    0.055517
    48  H    0.081581
    49  H    0.127802
    50  H    0.081540
    51  H    0.095986
    52  H    0.112323
    53  H    0.096734
    54  H    0.084042
    55  H    0.103486
    56  H    0.101507
    57  H    0.088469
    58  H    0.108448
    59  H    0.107111
    60  H    0.096878
    61  H    0.095559
    62  H    0.110739
    63  H    0.106045
    64  H    0.109100
    65  H    0.082769
    66  H    0.085569
    67  H    0.109220
    68  H    0.111002
    69  H    0.099515
    70  H    0.083824
    71  H    0.129295
    72  H    0.133353
    73  H    0.306913
    74  H    0.300218
    75  H    0.068810
    76  H    0.077185
    77  H    0.109923
    78  H    0.117754
    79  H    0.118137
    80  H    0.106970
    81  H    0.119317
    82  H    0.108836
    83  H    0.073463
    84  H    0.059477
    85  H    0.084854
    86  H    0.084391
    87  H    0.088379
    88  H    0.086163
    89  H    0.110112
    90  H    0.116502
    91  H    0.113662
    92  H    0.126854
    93  H    0.094842
    94  H    0.119423
    95  H    0.070145
    96  H    0.057935
    97  H    0.086204
    98  H    0.082828
 Sum of Mulliken charges =  -0.00000

 Dipole moment (field-independent basis, Debye):
    X=              0.3711    Y=             -2.5713    Z=              1.1781  Tot=              2.8526
 Quadrupole moment (field-independent basis, Debye-Ang):
   XX=           -256.3129   YY=           -242.0710   ZZ=           -261.8684
   XY=              9.2738   XZ=              2.6521   YZ=              1.2138

 Normal termination of Gaussian 16 at Wed Jul 10 17:05:04 2019.
