 Gaussian 16, Revision A.03,
 Gaussian 16:  ES64L-G16RevA.03 25-Dec-2016

 -------------------------------------
 # td=(NStates=1) CAM-B3LYP/6-31G(d,p)
 -------------------------------------

 --
 TD
 --
 Symbolic Z-matrix:
 Charge =  0 Multiplicity = 1

                         Standard orientation:
 ---------------------------------------------------------------------
 Center     Atomic      Atomic             Coordinates (Angstroms)
 Number     Number       Type             X           Y           Z
 ---------------------------------------------------------------------
      1          8           0       14.815167   -2.209217   -0.436312
      2          8           0      -14.901927    1.962302    0.674941
      3          6           0       11.519415   -1.200647    1.054097
      4          6           0      -12.373108   -0.874551    0.783275
      5          6           0       13.030462   -1.390594    1.023973
      6          6           0      -13.723133   -0.216015    0.633079
      7          6           0       13.461816   -1.845655   -0.428101
      8          6           0      -13.559847    1.273412    0.641208
      9          6           0       11.057960   -0.233264   -0.059339
     10          6           0      -11.353106   -0.213367   -0.249885
     11          6           0       13.188561   -0.757520   -1.326823
     12          6           0      -12.878047    1.661809   -0.658771
     13          6           0       11.745208   -0.052071   -1.123644
     14          6           0      -11.573809    0.897383   -0.934497
     15          6           0       11.316471   -0.597637    2.523797
     16          6           0       10.755813   -2.548632    0.970763
     17          6           0      -11.783438   -0.662727    2.283028
     18          6           0      -12.503695   -2.519992    0.553470
     19          6           0        9.679514    0.470435    0.094623
     20          6           0      -10.136153   -0.995288   -0.393717
     21          6           0       11.461163    1.003495   -2.358460
     22          6           0      -10.761065    1.467339   -2.039107
     23          6           0        9.333345    1.697331   -0.078618
     24          6           0       -8.914268   -0.530857   -0.140033
     25          6           0        8.030060    2.260428    0.177479
     26          6           0       -7.637489   -1.202162   -0.461715
     27          6           0        8.068179    3.693474    0.784817
     28          6           0       -7.931020   -2.660773   -0.836237
     29          6           0        6.934404    1.546554   -0.001368
     30          6           0       -6.519494   -0.585026   -0.294357
     31          6           0        5.546885    1.924023    0.303386
     32          6           0       -5.116861   -1.092540   -0.387011
     33          6           0        4.550515    1.113573    0.153765
     34          6           0       -4.018145   -0.311999   -0.357462
     35          6           0        3.148718    1.547494    0.172442
     36          6           0       -2.654571   -0.867764   -0.446122
     37          6           0        2.797338    2.914010    0.701175
     38          6           0       -2.477178   -2.259191   -0.832884
     39          6           0        2.109855    0.618384   -0.133480
     40          6           0       -1.743710    0.053278   -0.135264
     41          6           0        0.673408    0.746081   -0.038316
     42          6           0       -0.300625   -0.214844   -0.270507
     43          1           0       13.499283   -0.389608    1.105406
     44          1           0       13.324136   -2.426347    1.614490
     45          1           0      -14.232018   -0.557065    1.639620
     46          1           0      -14.114016   -0.629043   -0.240935
     47          1           0       12.802887   -2.826524   -0.519483
     48          1           0      -12.948935    1.716217    1.649979
     49          1           0       13.999008    0.175937   -0.999190
     50          1           0       13.276098   -0.982709   -2.318856
     51          1           0      -13.533933    1.632720   -1.545270
     52          1           0      -12.678205    2.849181   -0.567189
     53          1           0       11.582273   -1.209492    3.258045
     54          1           0       10.124935   -0.153416    2.680940
     55          1           0       12.130262    0.270001    2.588891
     56          1           0       11.241121   -3.053991    0.047639
     57          1           0       11.066176   -3.107644    1.706684
     58          1           0        9.577363   -2.442998    1.082811
     59          1           0      -11.835180    0.396226    2.674915
     60          1           0      -10.760377   -1.121366    2.398458
     61          1           0      -12.281353   -1.324536    3.015461
     62          1           0      -13.245227   -3.094938    1.529085
     63          1           0      -11.438322   -2.846470    0.573502
     64          1           0      -12.977316   -2.530544   -0.417764
     65          1           0        8.975522   -0.127398    0.547693
     66          1           0      -10.384014   -2.021155   -0.918436
     67          1           0       10.201040    1.292917   -2.539488
     68          1           0       12.165936    1.855089   -2.232514
     69          1           0       11.867229    0.486843   -3.380983
     70          1           0      -11.369697    1.531693   -3.095730
     71          1           0       -9.546632    0.971856   -2.089790
     72          1           0      -10.526314    2.594629   -1.810087
     73          1           0       14.889670   -2.889892    0.083053
     74          1           0      -15.255264    2.013218    1.711515
     75          1           0       10.064984    2.407383   -0.395987
     76          1           0       -8.886143    0.463943    0.222335
     77          1           0        9.244343    4.067056    0.483882
     78          1           0        7.072899    4.154710    0.257706
     79          1           0        7.959175    3.594209    2.069507
     80          1           0       -8.698929   -3.195269   -0.200638
     81          1           0       -8.334257   -2.831010   -2.037087
     82          1           0       -6.705858   -2.916356   -0.917971
     83          1           0        7.162458    0.653134   -0.475340
     84          1           0       -6.619991    0.418352    0.014353
     85          1           0        5.304275    2.925867    0.858744
     86          1           0       -5.311545   -2.099223   -0.662067
     87          1           0        4.649753    0.079929   -0.320420
     88          1           0       -4.091371    0.713751   -0.040214
     89          1           0        3.006472    2.611767    1.894081
     90          1           0        1.702041    3.469073    0.365668
     91          1           0        3.417576    3.770478    0.131378
     92          1           0       -3.072176   -2.814369   -0.125428
     93          1           0       -3.036184   -2.599754   -1.781495
     94          1           0       -1.290817   -2.729924   -1.033601
     95          1           0        2.469997   -0.289601   -0.509645
     96          1           0       -2.014580    1.079145   -0.020970
     97          1           0        0.220781    1.760167    0.297115
     98          1           0        0.183099   -1.101884   -0.427382
 ---------------------------------------------------------------------

 SCF Done:  E(RCAM-B3LYP) =  -1706.76895742     A.U. after   14 cycles

 Excitation energies and oscillator strengths:

 Excited State   1:      Singlet-A      3.0210 eV  410.41 nm  f=3.4198  <S**2>=0.000
     155 ->158        -0.15411
     156 ->157         0.68500
 This state for optimization and/or second-order correction.
 Total Energy, E(TD-HF/TD-DFT) =  -1706.65793875
 Copying the excited state density for this state as the 1-particle RhoCI density.

 The electronic state is 1-A.
 Alpha  occ. eigenvalues --  -19.21189 -19.20647 -10.32080 -10.31006 -10.30090
 Alpha  occ. eigenvalues --  -10.29639 -10.29225 -10.29018 -10.28601 -10.28503
 Alpha  occ. eigenvalues --  -10.28315 -10.28116 -10.28057 -10.27798 -10.27472
 Alpha  occ. eigenvalues --  -10.27225 -10.26897 -10.26870 -10.26809 -10.26786
 Alpha  occ. eigenvalues --  -10.26732 -10.26707 -10.26678 -10.26410 -10.26380
 Alpha  occ. eigenvalues --  -10.26376 -10.26361 -10.26264 -10.26237 -10.26219
 Alpha  occ. eigenvalues --  -10.26095 -10.26038 -10.25792 -10.25777 -10.25360
 Alpha  occ. eigenvalues --  -10.25276 -10.25269 -10.25241 -10.25169 -10.24890
 Alpha  occ. eigenvalues --  -10.24782 -10.24737  -1.12863  -1.04233  -0.93751
 Alpha  occ. eigenvalues --   -0.93368  -0.92517  -0.92039  -0.90960  -0.90254
 Alpha  occ. eigenvalues --   -0.87173  -0.86322  -0.85942  -0.85374  -0.84786
 Alpha  occ. eigenvalues --   -0.83035  -0.81769  -0.79824  -0.79015  -0.77934
 Alpha  occ. eigenvalues --   -0.76621  -0.75872  -0.75321  -0.74974  -0.74813
 Alpha  occ. eigenvalues --   -0.74564  -0.74284  -0.74033  -0.73954  -0.69904
 Alpha  occ. eigenvalues --   -0.68349  -0.66870  -0.65519  -0.65017  -0.63847
 Alpha  occ. eigenvalues --   -0.63435  -0.61798  -0.61440  -0.61081  -0.59776
 Alpha  occ. eigenvalues --   -0.58971  -0.58715  -0.57584  -0.56849  -0.56182
 Alpha  occ. eigenvalues --   -0.55440  -0.54856  -0.54285  -0.54115  -0.53324
 Alpha  occ. eigenvalues --   -0.52721  -0.52162  -0.51684  -0.51155  -0.50911
 Alpha  occ. eigenvalues --   -0.50102  -0.49599  -0.49234  -0.49114  -0.48854
 Alpha  occ. eigenvalues --   -0.48690  -0.48261  -0.47959  -0.47649  -0.47435
 Alpha  occ. eigenvalues --   -0.47124  -0.46778  -0.46469  -0.46197  -0.45930
 Alpha  occ. eigenvalues --   -0.45709  -0.45377  -0.45106  -0.44572  -0.44483
 Alpha  occ. eigenvalues --   -0.44406  -0.44334  -0.44007  -0.43191  -0.42823
 Alpha  occ. eigenvalues --   -0.42623  -0.42575  -0.42318  -0.42157  -0.41239
 Alpha  occ. eigenvalues --   -0.41143  -0.41025  -0.40519  -0.40445  -0.40253
 Alpha  occ. eigenvalues --   -0.39809  -0.39499  -0.39083  -0.38976  -0.38670
 Alpha  occ. eigenvalues --   -0.38531  -0.38455  -0.38200  -0.37894  -0.37578
 Alpha  occ. eigenvalues --   -0.37414  -0.37194  -0.36344  -0.36131  -0.35955
 Alpha  occ. eigenvalues --   -0.34853  -0.34494  -0.34086  -0.32129  -0.31516
 Alpha  occ. eigenvalues --   -0.30662  -0.30431  -0.28977  -0.27491  -0.25451
 Alpha  occ. eigenvalues --   -0.21522
 Alpha virt. eigenvalues --   -0.03603   0.00426   0.03458   0.06284   0.07765
 Alpha virt. eigenvalues --    0.09010   0.09296   0.10221   0.10489   0.10581
 Alpha virt. eigenvalues --    0.11137   0.11448   0.11869   0.12007   0.12460

 Mulliken charges:
               1
     1  O   -0.519694
     2  O   -0.584593
     3  C   -0.023296
     4  C   -0.022377
     5  C   -0.193295
     6  C   -0.146620
     7  C    0.168689
     8  C    0.171350
     9  C    0.076887
    10  C    0.021119
    11  C   -0.194049
    12  C   -0.224658
    13  C    0.021111
    14  C    0.109084
    15  C   -0.275275
    16  C   -0.292920
    17  C   -0.313173
    18  C   -0.293411
    19  C   -0.106629
    20  C   -0.139305
    21  C   -0.337872
    22  C   -0.351478
    23  C   -0.096876
    24  C   -0.103341
    25  C    0.077165
    26  C    0.128456
    27  C   -0.324340
    28  C   -0.338634
    29  C   -0.107210
    30  C   -0.131332
    31  C   -0.096625
    32  C   -0.083290
    33  C   -0.093917
    34  C   -0.115223
    35  C    0.092206
    36  C    0.171615
    37  C   -0.353142
    38  C   -0.378455
    39  C   -0.131843
    40  C   -0.149355
    41  C   -0.086729
    42  C   -0.074200
    43  H    0.112660
    44  H    0.060740
    45  H    0.074748
    46  H    0.107401
    47  H    0.053236
    48  H    0.065190
    49  H    0.084458
    50  H    0.114372
    51  H    0.122744
    52  H    0.088243
    53  H    0.116706
    54  H    0.067997
    55  H    0.080806
    56  H    0.092386
    57  H    0.113962
    58  H    0.099221
    59  H    0.096080
    60  H    0.103491
    61  H    0.095567
    62  H    0.067920
    63  H    0.113342
    64  H    0.114394
    65  H    0.078095
    66  H    0.092539
    67  H    0.101297
    68  H    0.127711
    69  H    0.087427
    70  H    0.102285
    71  H    0.092454
    72  H    0.103543
    73  H    0.284473
    74  H    0.302137
    75  H    0.082766
    76  H    0.081212
    77  H    0.090732
    78  H    0.112360
    79  H    0.100464
    80  H    0.133289
    81  H    0.091496
    82  H    0.066940
    83  H    0.078783
    84  H    0.071709
    85  H    0.094326
    86  H    0.069230
    87  H    0.084079
    88  H    0.094136
    89  H    0.122430
    90  H    0.096637
    91  H    0.106554
    92  H    0.135308
    93  H    0.122067
    94  H    0.093704
    95  H    0.070345
    96  H    0.092917
    97  H    0.063092
    98  H    0.073273
 Sum of Mulliken charges =  -0.00000

 Dipole moment (field-independent basis, Debye):
    X=              1.0253    Y=             -1.2604    Z=              1.6243  Tot=              2.2974
 Quadrupole moment (field-independent basis, Debye-Ang):
   XX=           -291.6082   YY=           -249.5274   ZZ=           -260.6381
   XY=              1.7285   XZ=             -3.3473   YZ=              0.9858

 Normal termination of Gaussian 16 at Fri Jul  5 08:40:52 2019.
