 Gaussian 16, Revision A.03,
 Gaussian 16:  ES64L-G16RevA.03 25-Dec-2016

 -------------------------------------
 # td=(NStates=1) CAM-B3LYP/6-31G(d,p)
 -------------------------------------

 --
 TD
 --
 Symbolic Z-matrix:
 Charge =  0 Multiplicity = 1

                         Standard orientation:
 ---------------------------------------------------------------------
 Center     Atomic      Atomic             Coordinates (Angstroms)
 Number     Number       Type             X           Y           Z
 ---------------------------------------------------------------------
      1          8           0       14.739074   -2.325182   -0.485786
      2          8           0      -14.776605    1.845897    0.903368
      3          6           0       11.484160   -1.077149    1.172669
      4          6           0      -12.249283   -0.996090    0.811754
      5          6           0       12.981172   -1.445434    1.070009
      6          6           0      -13.663332   -0.326748    0.790938
      7          6           0       13.317697   -1.990238   -0.306683
      8          6           0      -13.517246    1.218870    0.829058
      9          6           0       10.916181   -0.297132   -0.036778
     10          6           0      -11.252179   -0.332777   -0.171228
     11          6           0       13.042270   -0.875416   -1.356777
     12          6           0      -12.837234    1.652741   -0.446271
     13          6           0       11.689019   -0.129030   -1.106855
     14          6           0      -11.553493    0.876644   -0.663271
     15          6           0       11.386007   -0.336373    2.552628
     16          6           0       10.755305   -2.376583    1.556800
     17          6           0      -11.769316   -0.955907    2.218979
     18          6           0      -12.482928   -2.475069    0.402613
     19          6           0        9.534940    0.240811    0.250081
     20          6           0      -10.006618   -1.066885   -0.380009
     21          6           0       11.091866    0.456331   -2.329561
     22          6           0      -10.755116    1.547256   -1.733805
     23          6           0        9.314366    1.595492    0.184755
     24          6           0       -8.739740   -0.505455   -0.423420
     25          6           0        8.021127    2.317010    0.235625
     26          6           0       -7.599462   -1.215891   -0.574186
     27          6           0        8.038991    3.739181    0.523442
     28          6           0       -7.798474   -2.668300   -0.963610
     29          6           0        6.870386    1.639278   -0.004391
     30          6           0       -6.412496   -0.505663   -0.502989
     31          6           0        5.501875    2.073728    0.069035
     32          6           0       -5.115334   -1.052423   -0.722202
     33          6           0        4.448448    1.272265   -0.130137
     34          6           0       -3.995449   -0.285469   -0.328749
     35          6           0        3.029908    1.768610   -0.054332
     36          6           0       -2.585616   -0.750220   -0.395846
     37          6           0        2.750818    3.095871    0.410020
     38          6           0       -2.374941   -2.183624   -0.839804
     39          6           0        2.055837    0.746666   -0.312342
     40          6           0       -1.609873    0.180849   -0.199664
     41          6           0        0.646413    1.062326   -0.107874
     42          6           0       -0.188769    0.035775   -0.327621
     43          1           0       13.559409   -0.351203    1.151010
     44          1           0       13.562591   -2.122566    1.791798
     45          1           0      -14.020427   -0.688370    1.764546
     46          1           0      -14.412506   -0.539257   -0.111851
     47          1           0       12.695360   -2.920222   -0.678852
     48          1           0      -12.923163    1.498059    1.700246
     49          1           0       13.868901   -0.173863   -1.615226
     50          1           0       12.953117   -1.533390   -2.306093
     51          1           0      -13.483298    1.607794   -1.178843
     52          1           0      -12.698940    2.687237   -0.381974
     53          1           0       11.851160   -0.925608    3.399319
     54          1           0       10.291581   -0.334122    2.828432
     55          1           0       12.018531    0.618397    2.641902
     56          1           0       10.629958   -3.161386    0.796674
     57          1           0       11.198381   -2.882741    2.432534
     58          1           0        9.716221   -2.114506    1.800787
     59          1           0      -11.691775    0.167422    2.566007
     60          1           0      -10.969146   -1.639967    2.199170
     61          1           0      -12.259457   -1.652496    3.063616
     62          1           0      -13.339309   -2.877338    1.005817
     63          1           0      -11.346473   -2.806976    0.689466
     64          1           0      -12.760438   -2.465517   -0.542345
     65          1           0        8.868753   -0.596799    0.389502
     66          1           0      -10.269710   -2.129516   -0.484344
     67          1           0       10.165043    0.738853   -2.181139
     68          1           0       11.649162    1.232129   -2.637177
     69          1           0       11.260434   -0.324393   -3.346352
     70          1           0      -11.296929    2.133026   -2.486342
     71          1           0      -10.038024    0.660427   -2.213814
     72          1           0      -10.053131    2.336063   -1.211165
     73          1           0       14.866540   -3.155216    0.204680
     74          1           0      -15.246494    1.497441    1.662957
     75          1           0       10.151770    2.360341   -0.231246
     76          1           0       -8.753012    0.688701   -0.507021
     77          1           0        8.521667    4.267357   -0.197924
     78          1           0        6.913366    4.141096    0.633952
     79          1           0        8.693250    3.833595    1.478637
     80          1           0       -8.104889   -3.240133   -0.061626
     81          1           0       -8.355351   -2.757222   -1.898005
     82          1           0       -6.781739   -3.295640   -1.362695
     83          1           0        6.874047    0.496863   -0.200725
     84          1           0       -6.446065    0.523610   -0.218752
     85          1           0        5.323299    3.160609    0.228844
     86          1           0       -4.797119   -1.997889   -1.040509
     87          1           0        4.304613    0.303729   -0.468886
     88          1           0       -4.059871    0.714294    0.187721
     89          1           0        3.069762    3.292185    1.395642
     90          1           0        1.701406    3.356200    0.548007
     91          1           0        3.169761    3.915609   -0.299391
     92          1           0       -3.038961   -3.034299   -0.595416
     93          1           0       -2.514816   -2.249260   -2.019977
     94          1           0       -1.192421   -2.298817   -0.496751
     95          1           0        2.488509   -0.296183   -0.457002
     96          1           0       -2.042214    1.242753    0.081302
     97          1           0        0.470939    1.810595    0.177731
     98          1           0        0.139082   -0.916174   -0.689511
 ---------------------------------------------------------------------

 SCF Done:  E(RCAM-B3LYP) =  -1706.88793553     A.U. after   14 cycles

 Excitation energies and oscillator strengths:

 Excited State   1:      Singlet-A      2.6100 eV  475.04 nm  f=3.6943  <S**2>=0.000
     155 ->158        -0.17928
     156 ->157         0.67805
 This state for optimization and/or second-order correction.
 Total Energy, E(TD-HF/TD-DFT) =  -1706.79202162
 Copying the excited state density for this state as the 1-particle RhoCI density.

 The electronic state is 1-A.
 Alpha  occ. eigenvalues --  -19.21808 -19.20357 -10.30968 -10.29243 -10.28345
 Alpha  occ. eigenvalues --  -10.28305 -10.27768 -10.27755 -10.27650 -10.27451
 Alpha  occ. eigenvalues --  -10.27400 -10.27303 -10.27069 -10.27062 -10.26985
 Alpha  occ. eigenvalues --  -10.26644 -10.26550 -10.26491 -10.26457 -10.26436
 Alpha  occ. eigenvalues --  -10.26427 -10.26374 -10.26351 -10.26328 -10.26285
 Alpha  occ. eigenvalues --  -10.26214 -10.26203 -10.26189 -10.26123 -10.25943
 Alpha  occ. eigenvalues --  -10.25891 -10.25864 -10.25646 -10.25331 -10.25301
 Alpha  occ. eigenvalues --  -10.25220 -10.25049 -10.24760 -10.24749 -10.24640
 Alpha  occ. eigenvalues --  -10.23844 -10.22948  -1.09266  -1.05964  -0.93662
 Alpha  occ. eigenvalues --   -0.93173  -0.92500  -0.91711  -0.91137  -0.90077
 Alpha  occ. eigenvalues --   -0.87835  -0.87404  -0.86974  -0.85239  -0.84428
 Alpha  occ. eigenvalues --   -0.83242  -0.82460  -0.80326  -0.78868  -0.78116
 Alpha  occ. eigenvalues --   -0.76892  -0.76172  -0.76071  -0.75946  -0.75365
 Alpha  occ. eigenvalues --   -0.75053  -0.74803  -0.74151  -0.73643  -0.71197
 Alpha  occ. eigenvalues --   -0.68871  -0.67947  -0.65756  -0.65154  -0.64150
 Alpha  occ. eigenvalues --   -0.63808  -0.63005  -0.62273  -0.60788  -0.60042
 Alpha  occ. eigenvalues --   -0.59138  -0.58511  -0.57756  -0.56540  -0.56396
 Alpha  occ. eigenvalues --   -0.55815  -0.55004  -0.54801  -0.53762  -0.53490
 Alpha  occ. eigenvalues --   -0.53361  -0.52549  -0.52425  -0.51936  -0.51230
 Alpha  occ. eigenvalues --   -0.50578  -0.50497  -0.50123  -0.49828  -0.49530
 Alpha  occ. eigenvalues --   -0.49292  -0.49245  -0.48887  -0.48111  -0.47904
 Alpha  occ. eigenvalues --   -0.47640  -0.47375  -0.47189  -0.46889  -0.46492
 Alpha  occ. eigenvalues --   -0.46295  -0.45970  -0.45363  -0.45040  -0.44668
 Alpha  occ. eigenvalues --   -0.44274  -0.44038  -0.43887  -0.43509  -0.43218
 Alpha  occ. eigenvalues --   -0.43047  -0.42960  -0.42625  -0.42226  -0.42005
 Alpha  occ. eigenvalues --   -0.41603  -0.41480  -0.41374  -0.40280  -0.40238
 Alpha  occ. eigenvalues --   -0.40092  -0.40025  -0.39922  -0.39790  -0.39301
 Alpha  occ. eigenvalues --   -0.39227  -0.38882  -0.38563  -0.37876  -0.37318
 Alpha  occ. eigenvalues --   -0.37149  -0.36263  -0.36145  -0.35583  -0.35204
 Alpha  occ. eigenvalues --   -0.34880  -0.34284  -0.33697  -0.32154  -0.31767
 Alpha  occ. eigenvalues --   -0.30821  -0.29757  -0.28736  -0.26889  -0.23549
 Alpha  occ. eigenvalues --   -0.20472
 Alpha virt. eigenvalues --   -0.04609  -0.00932   0.02423   0.05958   0.07666
 Alpha virt. eigenvalues --    0.08714   0.09983   0.10384   0.11437   0.12168
 Alpha virt. eigenvalues --    0.12238   0.12602   0.12993   0.13092   0.13620

 Mulliken charges:
               1
     1  O   -0.564923
     2  O   -0.568121
     3  C   -0.017816
     4  C   -0.061487
     5  C   -0.169381
     6  C   -0.190213
     7  C    0.163894
     8  C    0.163325
     9  C    0.051701
    10  C    0.100925
    11  C   -0.219116
    12  C   -0.203724
    13  C    0.041663
    14  C    0.039972
    15  C   -0.288518
    16  C   -0.306592
    17  C   -0.280508
    18  C   -0.280827
    19  C   -0.119390
    20  C   -0.168332
    21  C   -0.330999
    22  C   -0.369900
    23  C   -0.098098
    24  C   -0.103391
    25  C    0.085353
    26  C    0.126888
    27  C   -0.362367
    28  C   -0.362382
    29  C   -0.098561
    30  C   -0.126855
    31  C   -0.104259
    32  C   -0.075351
    33  C   -0.075608
    34  C   -0.120737
    35  C    0.101724
    36  C    0.112427
    37  C   -0.397388
    38  C   -0.369301
    39  C   -0.164870
    40  C   -0.130675
    41  C    0.078205
    42  C   -0.090591
    43  H    0.075637
    44  H    0.073355
    45  H    0.080645
    46  H    0.080462
    47  H    0.075382
    48  H    0.069966
    49  H    0.121162
    50  H    0.100143
    51  H    0.127401
    52  H    0.109931
    53  H    0.093529
    54  H    0.096403
    55  H    0.093005
    56  H    0.095353
    57  H    0.107438
    58  H    0.091263
    59  H    0.101542
    60  H    0.107505
    61  H    0.076882
    62  H    0.097718
    63  H    0.074101
    64  H    0.118294
    65  H    0.117148
    66  H    0.102263
    67  H    0.119045
    68  H    0.119830
    69  H    0.064831
    70  H    0.110760
    71  H    0.099534
    72  H    0.096794
    73  H    0.296058
    74  H    0.301941
    75  H    0.085681
    76  H    0.092548
    77  H    0.134108
    78  H    0.096616
    79  H    0.113874
    80  H    0.130882
    81  H    0.136601
    82  H    0.067791
    83  H    0.070932
    84  H    0.091511
    85  H    0.080754
    86  H    0.077685
    87  H    0.074060
    88  H    0.076538
    89  H    0.139217
    90  H    0.112304
    91  H    0.112645
    92  H    0.131009
    93  H    0.113230
    94  H    0.089127
    95  H    0.089694
    96  H    0.075238
    97  H   -0.020421
    98  H    0.087259
 Sum of Mulliken charges =  -0.00000

 Dipole moment (field-independent basis, Debye):
    X=             -0.1274    Y=             -1.0285    Z=              1.5976  Tot=              1.9043
 Quadrupole moment (field-independent basis, Debye-Ang):
   XX=           -308.9174   YY=           -243.1367   ZZ=           -261.9262
   XY=             11.7361   XZ=              2.9814   YZ=             -0.4526

 Normal termination of Gaussian 16 at Sat Jul  6 09:17:07 2019.
