 Gaussian 16, Revision A.03,
 Gaussian 16:  ES64L-G16RevA.03 25-Dec-2016

 -------------------------------------
 # td=(NStates=1) CAM-B3LYP/6-31G(d,p)
 -------------------------------------

 --
 TD
 --
 Symbolic Z-matrix:
 Charge =  0 Multiplicity = 1

                         Standard orientation:
 ---------------------------------------------------------------------
 Center     Atomic      Atomic             Coordinates (Angstroms)
 Number     Number       Type             X           Y           Z
 ---------------------------------------------------------------------
      1          8           0       14.620855   -2.317979   -0.297648
      2          8           0      -14.562648    2.165424    0.832794
      3          6           0       11.470158   -1.051381    1.344510
      4          6           0      -12.320923   -0.959966    0.828657
      5          6           0       12.980541   -1.357891    1.165814
      6          6           0      -13.599958   -0.134568    0.741984
      7          6           0       13.298587   -1.988155   -0.251041
      8          6           0      -13.419795    1.397483    0.839691
      9          6           0       10.987728   -0.263106    0.067958
     10          6           0      -11.372539   -0.246693   -0.150512
     11          6           0       13.009174   -0.899824   -1.347024
     12          6           0      -12.702028    1.775716   -0.536588
     13          6           0       11.635374   -0.288950   -1.156489
     14          6           0      -11.527342    0.865265   -0.782858
     15          6           0       11.311856   -0.058799    2.524261
     16          6           0       10.619090   -2.278491    1.481853
     17          6           0      -11.788066   -0.916537    2.268076
     18          6           0      -12.656375   -2.311000    0.511402
     19          6           0        9.592454    0.334044    0.094182
     20          6           0      -10.152604   -1.194352   -0.385388
     21          6           0       11.307706    0.459826   -2.426071
     22          6           0      -10.657249    1.548774   -1.857987
     23          6           0        9.341565    1.628466   -0.241812
     24          6           0       -8.912665   -0.669069   -0.376496
     25          6           0        7.993682    2.334020   -0.098392
     26          6           0       -7.606139   -1.423219   -0.518656
     27          6           0        8.005847    3.833468    0.379411
     28          6           0       -7.764274   -2.819307   -0.814646
     29          6           0        6.858659    1.618996   -0.179678
     30          6           0       -6.427191   -0.707454   -0.402848
     31          6           0        5.539616    1.862799    0.150909
     32          6           0       -5.094036   -1.142954   -0.629651
     33          6           0        4.413372    1.164517   -0.095395
     34          6           0       -3.973363   -0.465390   -0.402876
     35          6           0        3.025549    1.545865    0.076289
     36          6           0       -2.607353   -0.740391   -0.439793
     37          6           0        2.772896    2.912372    0.731723
     38          6           0       -2.369902   -2.155986   -0.882835
     39          6           0        2.020884    0.622647   -0.228488
     40          6           0       -1.628122    0.154003   -0.136034
     41          6           0        0.702761    0.928016   -0.098043
     42          6           0       -0.241142   -0.071233   -0.344353
     43          1           0       13.621298   -0.457247    1.202423
     44          1           0       13.361405   -2.076901    2.024878
     45          1           0      -14.010432   -0.444405    1.648381
     46          1           0      -14.182247   -0.434474   -0.216603
     47          1           0       12.727551   -2.906491   -0.531322
     48          1           0      -12.729902    1.775216    1.749006
     49          1           0       13.870550   -0.241837   -1.323884
     50          1           0       13.191138   -1.385578   -2.322908
     51          1           0      -13.339479    1.553757   -1.435520
     52          1           0      -12.250769    2.887023   -0.600391
     53          1           0       11.846408   -0.521212    3.532286
     54          1           0       10.267793    0.313750    2.677942
     55          1           0       11.902141    0.797934    2.375368
     56          1           0       10.378909   -2.701861    0.414250
     57          1           0       11.129055   -3.087209    1.992447
     58          1           0        9.610031   -2.105158    1.823399
     59          1           0      -11.530309    0.132440    2.631493
     60          1           0      -10.952037   -1.642734    2.157914
     61          1           0      -12.441828   -1.487385    2.937343
     62          1           0      -13.332461   -2.676175    1.177896
     63          1           0      -11.639888   -2.949576    0.899487
     64          1           0      -12.724960   -2.482383   -0.534939
     65          1           0        8.832565   -0.196748    0.457734
     66          1           0      -10.301448   -2.189988   -0.764741
     67          1           0       10.337661    0.698800   -2.301544
     68          1           0       11.895052    1.406801   -2.152892
     69          1           0       11.483824   -0.003137   -3.430456
     70          1           0      -11.337273    1.988608   -2.654036
     71          1           0       -9.878075    0.985808   -2.424278
     72          1           0       -9.999593    2.487248   -1.609712
     73          1           0       14.824620   -2.815547    0.627329
     74          1           0      -14.921510    2.076865    1.689957
     75          1           0       10.031347    2.207221   -0.426975
     76          1           0       -8.940302    0.409141   -0.380031
     77          1           0        8.803226    4.429901    0.051456
     78          1           0        7.027554    4.186442    0.019621
     79          1           0        8.247487    3.886167    1.589285
     80          1           0       -7.987291   -3.297278   -0.011009
     81          1           0       -8.350431   -3.165913   -1.723864
     82          1           0       -6.777762   -3.388247   -0.928697
     83          1           0        7.111898    0.525701   -0.389909
     84          1           0       -6.579390    0.404476   -0.156260
     85          1           0        5.125382    2.912549    0.476182
     86          1           0       -5.048021   -2.412353   -0.780245
     87          1           0        4.589854    0.252027   -0.537272
     88          1           0       -3.929897    0.597274   -0.272050
     89          1           0        3.091470    3.176159    1.684565
     90          1           0        1.794707    3.185937    0.919552
     91          1           0        3.269057    3.589305    0.244926
     92          1           0       -3.071135   -2.848898   -0.427990
     93          1           0       -2.638852   -2.250905   -2.038852
     94          1           0       -1.424206   -2.420391   -0.738680
     95          1           0        2.519378   -0.331576   -0.658856
     96          1           0       -2.060330    1.300806   -0.002238
     97          1           0        0.418408    1.846171    0.543892
     98          1           0        0.205790   -0.920851   -0.590614
 ---------------------------------------------------------------------

 SCF Done:  E(RCAM-B3LYP) =  -1706.93426245     A.U. after   15 cycles

 Excitation energies and oscillator strengths:

 Excited State   1:      Singlet-A      2.4844 eV  499.06 nm  f=3.7099  <S**2>=0.000
     155 ->158        -0.14640
     156 ->157         0.69089
 This state for optimization and/or second-order correction.
 Total Energy, E(TD-HF/TD-DFT) =  -1706.84296387
 Copying the excited state density for this state as the 1-particle RhoCI density.

 The electronic state is 1-A.
 Alpha  occ. eigenvalues --  -19.21431 -19.21269 -10.31716 -10.29992 -10.28041
 Alpha  occ. eigenvalues --  -10.27824 -10.27686 -10.27650 -10.27521 -10.27516
 Alpha  occ. eigenvalues --  -10.27029 -10.26760 -10.26718 -10.26644 -10.26639
 Alpha  occ. eigenvalues --  -10.26622 -10.26528 -10.26448 -10.26322 -10.26246
 Alpha  occ. eigenvalues --  -10.26115 -10.26000 -10.25967 -10.25924 -10.25776
 Alpha  occ. eigenvalues --  -10.25627 -10.25470 -10.25278 -10.25252 -10.25223
 Alpha  occ. eigenvalues --  -10.25171 -10.25073 -10.25030 -10.24976 -10.24838
 Alpha  occ. eigenvalues --  -10.24816 -10.24691 -10.24608 -10.24600 -10.24514
 Alpha  occ. eigenvalues --  -10.24448 -10.23273  -1.11747  -1.09590  -0.94465
 Alpha  occ. eigenvalues --   -0.92746  -0.92619  -0.91721  -0.90447  -0.89854
 Alpha  occ. eigenvalues --   -0.88092  -0.87618  -0.86870  -0.85150  -0.84172
 Alpha  occ. eigenvalues --   -0.82788  -0.81811  -0.79874  -0.79608  -0.79489
 Alpha  occ. eigenvalues --   -0.77059  -0.76992  -0.76444  -0.76293  -0.75964
 Alpha  occ. eigenvalues --   -0.75538  -0.74828  -0.74404  -0.74295  -0.70932
 Alpha  occ. eigenvalues --   -0.68690  -0.67577  -0.66084  -0.65275  -0.64628
 Alpha  occ. eigenvalues --   -0.63283  -0.62931  -0.62136  -0.60690  -0.59857
 Alpha  occ. eigenvalues --   -0.58954  -0.58192  -0.58079  -0.57722  -0.56065
 Alpha  occ. eigenvalues --   -0.55945  -0.55368  -0.54792  -0.54507  -0.53655
 Alpha  occ. eigenvalues --   -0.52981  -0.52438  -0.52365  -0.52202  -0.51865
 Alpha  occ. eigenvalues --   -0.50795  -0.50532  -0.50284  -0.49791  -0.49724
 Alpha  occ. eigenvalues --   -0.49150  -0.49072  -0.48668  -0.48589  -0.48200
 Alpha  occ. eigenvalues --   -0.47780  -0.47246  -0.47073  -0.46718  -0.46543
 Alpha  occ. eigenvalues --   -0.46175  -0.45794  -0.45665  -0.45303  -0.45156
 Alpha  occ. eigenvalues --   -0.44948  -0.44612  -0.44397  -0.44352  -0.43630
 Alpha  occ. eigenvalues --   -0.43418  -0.42542  -0.42126  -0.41859  -0.41726
 Alpha  occ. eigenvalues --   -0.41678  -0.41522  -0.41174  -0.41049  -0.40769
 Alpha  occ. eigenvalues --   -0.40617  -0.40253  -0.39765  -0.39699  -0.39683
 Alpha  occ. eigenvalues --   -0.39430  -0.38937  -0.38723  -0.38424  -0.38330
 Alpha  occ. eigenvalues --   -0.37048  -0.36587  -0.36231  -0.35808  -0.35049
 Alpha  occ. eigenvalues --   -0.34303  -0.33398  -0.32823  -0.32563  -0.31985
 Alpha  occ. eigenvalues --   -0.31243  -0.29943  -0.28578  -0.26697  -0.24379
 Alpha  occ. eigenvalues --   -0.20069
 Alpha virt. eigenvalues --   -0.05170  -0.00103   0.03312   0.06350   0.08145
 Alpha virt. eigenvalues --    0.09228   0.10260   0.10696   0.10992   0.12117
 Alpha virt. eigenvalues --    0.12304   0.12751   0.13381   0.13472   0.13581

 Mulliken charges:
               1
     1  O   -0.558691
     2  O   -0.524752
     3  C    0.024388
     4  C   -0.021227
     5  C   -0.212823
     6  C   -0.177948
     7  C    0.184929
     8  C    0.162285
     9  C    0.014862
    10  C    0.033922
    11  C   -0.224075
    12  C   -0.222134
    13  C    0.033256
    14  C    0.081126
    15  C   -0.296819
    16  C   -0.307708
    17  C   -0.298714
    18  C   -0.279359
    19  C   -0.105242
    20  C   -0.142956
    21  C   -0.343164
    22  C   -0.373768
    23  C   -0.056688
    24  C   -0.098432
    25  C    0.051404
    26  C    0.111093
    27  C   -0.348722
    28  C   -0.385338
    29  C   -0.118650
    30  C   -0.122033
    31  C   -0.073061
    32  C   -0.094059
    33  C   -0.107966
    34  C   -0.080584
    35  C    0.098065
    36  C    0.129501
    37  C   -0.386046
    38  C   -0.357242
    39  C   -0.113798
    40  C   -0.150634
    41  C   -0.093572
    42  C   -0.071780
    43  H    0.110539
    44  H    0.055839
    45  H    0.073766
    46  H    0.094579
    47  H    0.070929
    48  H    0.058470
    49  H    0.118672
    50  H    0.103434
    51  H    0.118283
    52  H    0.092470
    53  H    0.066850
    54  H    0.106015
    55  H    0.114238
    56  H    0.096351
    57  H    0.105699
    58  H    0.112359
    59  H    0.104871
    60  H    0.108477
    61  H    0.097829
    62  H    0.114725
    63  H    0.054616
    64  H    0.115624
    65  H    0.084163
    66  H    0.096247
    67  H    0.123980
    68  H    0.118524
    69  H    0.112685
    70  H    0.104248
    71  H    0.117081
    72  H    0.104066
    73  H    0.304462
    74  H    0.298210
    75  H    0.052070
    76  H    0.086048
    77  H    0.120591
    78  H    0.122528
    79  H    0.098857
    80  H    0.145536
    81  H    0.121717
    82  H    0.088694
    83  H    0.072094
    84  H    0.081611
    85  H    0.050995
    86  H    0.057932
    87  H    0.062079
    88  H    0.061612
    89  H    0.127699
    90  H    0.106016
    91  H    0.132998
    92  H    0.117396
    93  H    0.105054
    94  H    0.105105
    95  H    0.089069
    96  H    0.076156
    97  H    0.095770
    98  H    0.087222
 Sum of Mulliken charges =  -0.00000

 Dipole moment (field-independent basis, Debye):
    X=             -0.5906    Y=             -0.9891    Z=              2.1261  Tot=              2.4181
 Quadrupole moment (field-independent basis, Debye-Ang):
   XX=           -264.0471   YY=           -245.9184   ZZ=           -258.1857
   XY=             18.2421   XZ=              0.2815   YZ=              2.2846

 Normal termination of Gaussian 16 at Sun Jul  7 23:18:01 2019.
