 Gaussian 16, Revision A.03,
 Gaussian 16:  ES64L-G16RevA.03 25-Dec-2016

 -------------------------------------
 # td=(NStates=1) CAM-B3LYP/6-31G(d,p)
 -------------------------------------

 --
 TD
 --
 Symbolic Z-matrix:
 Charge =  0 Multiplicity = 1

                         Standard orientation:
 ---------------------------------------------------------------------
 Center     Atomic      Atomic             Coordinates (Angstroms)
 Number     Number       Type             X           Y           Z
 ---------------------------------------------------------------------
      1          8           0       14.894683   -1.948758   -0.467086
      2          8           0      -14.869089    2.032900    0.595573
      3          6           0       11.538543   -1.085809    1.234161
      4          6           0      -12.414359   -0.980011    0.656234
      5          6           0       12.962135   -1.339815    0.985687
      6          6           0      -13.744631   -0.103621    0.656350
      7          6           0       13.447851   -1.845284   -0.379693
      8          6           0      -13.603356    1.438940    0.657101
      9          6           0       11.029175   -0.356928   -0.007339
     10          6           0      -11.388020   -0.240693   -0.159932
     11          6           0       12.992006   -0.785442   -1.440514
     12          6           0      -12.781698    1.821407   -0.594034
     13          6           0       11.635848   -0.236629   -1.245614
     14          6           0      -11.492330    0.974751   -0.706184
     15          6           0       11.393739   -0.232949    2.424014
     16          6           0       10.708237   -2.396405    1.388135
     17          6           0      -11.934777   -1.060810    2.206036
     18          6           0      -12.703538   -2.419999    0.142737
     19          6           0        9.669233    0.299498    0.273784
     20          6           0      -10.146499   -1.023955   -0.364317
     21          6           0       11.027603    0.457124   -2.429278
     22          6           0      -10.556724    1.517877   -1.729899
     23          6           0        9.384385    1.572187   -0.104454
     24          6           0       -8.890587   -0.515998   -0.257445
     25          6           0        8.065973    2.207941    0.081855
     26          6           0       -7.627992   -1.234246   -0.418059
     27          6           0        8.109570    3.659084    0.283007
     28          6           0       -7.657408   -2.759338   -0.739933
     29          6           0        6.944824    1.477260    0.028691
     30          6           0       -6.452247   -0.611761   -0.153092
     31          6           0        5.601404    1.888582    0.340646
     32          6           0       -5.158128   -1.093752   -0.515035
     33          6           0        4.512958    1.166118    0.158053
     34          6           0       -3.958643   -0.349169   -0.284211
     35          6           0        3.122481    1.539177    0.276833
     36          6           0       -2.622028   -0.806830   -0.391953
     37          6           0        2.786655    2.957955    0.620985
     38          6           0       -2.515482   -2.227887   -0.700417
     39          6           0        2.144525    0.599960   -0.066620
     40          6           0       -1.643080    0.130335   -0.233510
     41          6           0        0.697587    0.882356    0.107345
     42          6           0       -0.232674   -0.102280   -0.314150
     43          1           0       13.679311   -0.567079    1.257553
     44          1           0       13.493815   -2.175637    1.676573
     45          1           0      -14.507109   -0.482369    1.402933
     46          1           0      -14.354265   -0.265069   -0.255087
     47          1           0       13.190246   -2.931758   -0.649104
     48          1           0      -12.953260    1.644696    1.605144
     49          1           0       13.898823    0.058085   -1.333532
     50          1           0       13.086593   -1.163082   -2.454218
     51          1           0      -13.324682    1.403413   -1.420290
     52          1           0      -12.635402    2.885190   -0.685351
     53          1           0       11.781045   -0.577870    3.343315
     54          1           0       10.320785    0.186618    2.508425
     55          1           0       11.925056    0.818747    2.507986
     56          1           0       10.887778   -2.845866    0.364674
     57          1           0       11.073672   -3.029123    2.107919
     58          1           0        9.625572   -2.278214    1.609742
     59          1           0      -11.964559   -0.159965    2.694262
     60          1           0      -10.968464   -1.421069    1.973635
     61          1           0      -12.451534   -1.753348    2.771261
     62          1           0      -13.611355   -2.685208    0.647744
     63          1           0      -11.941443   -3.319961    0.366603
     64          1           0      -12.662757   -2.305957   -0.867413
     65          1           0        8.941545   -0.215128    0.736267
     66          1           0      -10.443883   -2.045845   -0.777256
     67          1           0       10.095604    0.755110   -2.342542
     68          1           0       11.514665    1.448207   -2.605120
     69          1           0       11.236445   -0.205170   -3.320951
     70          1           0      -11.154925    2.261894   -2.373546
     71          1           0      -10.041774    0.777847   -2.165693
     72          1           0       -9.944204    2.262546   -1.171430
     73          1           0       15.091509   -2.920557   -0.057598
     74          1           0      -15.234040    1.801257    1.464778
     75          1           0       10.161588    2.347750   -0.581171
     76          1           0       -8.919784    0.435602    0.195130
     77          1           0        8.719995    4.061998   -0.565311
     78          1           0        7.107896    4.318477    0.168036
     79          1           0        8.723041    3.910646    1.206745
     80          1           0       -8.230910   -3.295475   -0.099371
     81          1           0       -8.155393   -2.904151   -1.764051
     82          1           0       -6.564494   -3.322231   -0.827545
     83          1           0        7.046562    0.484078   -0.292992
     84          1           0       -6.395796    0.372719    0.117832
     85          1           0        5.447990    2.927807    0.745879
     86          1           0       -4.992740   -2.115201   -0.748044
     87          1           0        4.851690    0.083057    0.121987
     88          1           0       -4.250726    0.720914    0.049316
     89          1           0        3.161888    3.218300    1.719024
     90          1           0        1.937781    3.290771    0.559862
     91          1           0        3.323291    3.561781   -0.139585
     92          1           0       -2.725601   -2.831979    0.243908
     93          1           0       -3.040655   -2.686068   -1.612985
     94          1           0       -1.263283   -2.468908   -0.940923
     95          1           0        2.366756   -0.332179   -0.541407
     96          1           0       -2.160742    1.140161   -0.158695
     97          1           0        0.404297    1.795752    0.592541
     98          1           0        0.090591   -1.027727   -0.751588
 ---------------------------------------------------------------------

 SCF Done:  E(RCAM-B3LYP) =  -1707.02858139     A.U. after   14 cycles

 Excitation energies and oscillator strengths:

 Excited State   1:      Singlet-A      2.5678 eV  482.84 nm  f=3.6614  <S**2>=0.000
     155 ->158        -0.16281
     156 ->157         0.68459
 This state for optimization and/or second-order correction.
 Total Energy, E(TD-HF/TD-DFT) =  -1706.93421558
 Copying the excited state density for this state as the 1-particle RhoCI density.

 The electronic state is 1-A.
 Alpha  occ. eigenvalues --  -19.22130 -19.22021 -10.31371 -10.31130 -10.28117
 Alpha  occ. eigenvalues --  -10.27829 -10.27806 -10.27507 -10.27426 -10.27279
 Alpha  occ. eigenvalues --  -10.26988 -10.26978 -10.26922 -10.26853 -10.26824
 Alpha  occ. eigenvalues --  -10.26624 -10.26623 -10.26562 -10.26495 -10.26474
 Alpha  occ. eigenvalues --  -10.26446 -10.26249 -10.26181 -10.26054 -10.25774
 Alpha  occ. eigenvalues --  -10.25748 -10.25663 -10.25628 -10.25561 -10.25440
 Alpha  occ. eigenvalues --  -10.25106 -10.25034 -10.25016 -10.24987 -10.24972
 Alpha  occ. eigenvalues --  -10.24902 -10.24822 -10.24772 -10.24747 -10.24418
 Alpha  occ. eigenvalues --  -10.24400 -10.22454  -1.10866  -1.07238  -0.94022
 Alpha  occ. eigenvalues --   -0.93199  -0.91997  -0.91698  -0.90288  -0.89740
 Alpha  occ. eigenvalues --   -0.87585  -0.86715  -0.86478  -0.85195  -0.84230
 Alpha  occ. eigenvalues --   -0.82875  -0.81725  -0.80097  -0.79398  -0.78251
 Alpha  occ. eigenvalues --   -0.76778  -0.76724  -0.76694  -0.76028  -0.76010
 Alpha  occ. eigenvalues --   -0.75345  -0.75052  -0.74907  -0.73794  -0.70304
 Alpha  occ. eigenvalues --   -0.68347  -0.67048  -0.65101  -0.64868  -0.64536
 Alpha  occ. eigenvalues --   -0.64077  -0.62760  -0.61874  -0.60758  -0.60502
 Alpha  occ. eigenvalues --   -0.59188  -0.58616  -0.58150  -0.57895  -0.55792
 Alpha  occ. eigenvalues --   -0.55108  -0.54788  -0.54684  -0.54060  -0.53967
 Alpha  occ. eigenvalues --   -0.53188  -0.52965  -0.51999  -0.51742  -0.51306
 Alpha  occ. eigenvalues --   -0.50767  -0.50624  -0.49896  -0.49548  -0.49491
 Alpha  occ. eigenvalues --   -0.48868  -0.48525  -0.48464  -0.48418  -0.48194
 Alpha  occ. eigenvalues --   -0.48130  -0.47692  -0.47616  -0.47281  -0.46774
 Alpha  occ. eigenvalues --   -0.45765  -0.45705  -0.45196  -0.45119  -0.44917
 Alpha  occ. eigenvalues --   -0.44138  -0.43999  -0.43779  -0.43491  -0.43332
 Alpha  occ. eigenvalues --   -0.43191  -0.42955  -0.42769  -0.42439  -0.42290
 Alpha  occ. eigenvalues --   -0.41980  -0.41962  -0.41577  -0.41291  -0.41086
 Alpha  occ. eigenvalues --   -0.40520  -0.40163  -0.40100  -0.39697  -0.39453
 Alpha  occ. eigenvalues --   -0.39397  -0.38776  -0.38487  -0.38308  -0.37914
 Alpha  occ. eigenvalues --   -0.37718  -0.37242  -0.36742  -0.35659  -0.35194
 Alpha  occ. eigenvalues --   -0.34831  -0.34453  -0.33598  -0.32241  -0.32145
 Alpha  occ. eigenvalues --   -0.31928  -0.29408  -0.27776  -0.26437  -0.23800
 Alpha  occ. eigenvalues --   -0.20183
 Alpha virt. eigenvalues --   -0.04588  -0.00310   0.02856   0.05820   0.07939
 Alpha virt. eigenvalues --    0.09116   0.09700   0.11115   0.12010   0.12280
 Alpha virt. eigenvalues --    0.12572   0.12939   0.13304   0.13384   0.13569

 Mulliken charges:
               1
     1  O   -0.564528
     2  O   -0.535400
     3  C    0.018691
     4  C   -0.010171
     5  C   -0.181396
     6  C   -0.211052
     7  C    0.146006
     8  C    0.153855
     9  C    0.035676
    10  C    0.033202
    11  C   -0.215680
    12  C   -0.218582
    13  C    0.067229
    14  C    0.035329
    15  C   -0.310456
    16  C   -0.295352
    17  C   -0.298111
    18  C   -0.310050
    19  C   -0.121571
    20  C   -0.142286
    21  C   -0.344692
    22  C   -0.346245
    23  C   -0.109447
    24  C   -0.100972
    25  C    0.104464
    26  C    0.102786
    27  C   -0.376557
    28  C   -0.359776
    29  C   -0.120451
    30  C   -0.111131
    31  C   -0.080438
    32  C   -0.084380
    33  C   -0.113049
    34  C   -0.142358
    35  C    0.084813
    36  C    0.159742
    37  C   -0.337929
    38  C   -0.376937
    39  C   -0.119850
    40  C   -0.122290
    41  C   -0.082374
    42  C   -0.106759
    43  H    0.123314
    44  H    0.041951
    45  H    0.063698
    46  H    0.092937
    47  H    0.070505
    48  H    0.063991
    49  H    0.101411
    50  H    0.099721
    51  H    0.130463
    52  H    0.107159
    53  H    0.109152
    54  H    0.098027
    55  H    0.086023
    56  H    0.100239
    57  H    0.113021
    58  H    0.104536
    59  H    0.100860
    60  H    0.110352
    61  H    0.098408
    62  H    0.112916
    63  H    0.084416
    64  H    0.120646
    65  H    0.095366
    66  H    0.083786
    67  H    0.129744
    68  H    0.109692
    69  H    0.099573
    70  H    0.097572
    71  H    0.131877
    72  H    0.113111
    73  H    0.306828
    74  H    0.310462
    75  H    0.079271
    76  H    0.094130
    77  H    0.113563
    78  H    0.102775
    79  H    0.121024
    80  H    0.135340
    81  H    0.106792
    82  H    0.089852
    83  H    0.073361
    84  H    0.073430
    85  H    0.074402
    86  H    0.069602
    87  H    0.077190
    88  H    0.069080
    89  H    0.100813
    90  H    0.109137
    91  H    0.120664
    92  H    0.132145
    93  H    0.130654
    94  H    0.057985
    95  H    0.087982
    96  H    0.089419
    97  H    0.094215
    98  H    0.093897
 Sum of Mulliken charges =  -0.00000

 Dipole moment (field-independent basis, Debye):
    X=              0.2387    Y=             -1.3130    Z=              1.3563  Tot=              1.9028
 Quadrupole moment (field-independent basis, Debye-Ang):
   XX=           -278.2880   YY=           -241.0897   ZZ=           -260.2904
   XY=              0.4776   XZ=             -6.6112   YZ=              2.9219

 Normal termination of Gaussian 16 at Wed Jul 10 12:40:39 2019.
