 Gaussian 16, Revision A.03,
 Gaussian 16:  ES64L-G16RevA.03 25-Dec-2016

 -------------------------------------
 # td=(NStates=1) CAM-B3LYP/6-31G(d,p)
 -------------------------------------

 --
 TD
 --
 Symbolic Z-matrix:
 Charge =  0 Multiplicity = 1

                         Standard orientation:
 ---------------------------------------------------------------------
 Center     Atomic      Atomic             Coordinates (Angstroms)
 Number     Number       Type             X           Y           Z
 ---------------------------------------------------------------------
      1          8           0       14.747216   -2.117890   -0.342978
      2          8           0      -14.674063    2.196947    0.509226
      3          6           0       11.550772   -0.836923    1.237272
      4          6           0      -12.387811   -0.797703    0.888753
      5          6           0       13.020696   -1.154607    1.105851
      6          6           0      -13.688072   -0.012714    0.790528
      7          6           0       13.304004   -1.897640   -0.149699
      8          6           0      -13.432875    1.402530    0.559291
      9          6           0       11.012199   -0.349724   -0.092400
     10          6           0      -11.297809   -0.307217   -0.128447
     11          6           0       12.894936   -1.022269   -1.449590
     12          6           0      -12.750162    1.728590   -0.681487
     13          6           0       11.594300   -0.417006   -1.304078
     14          6           0      -11.573077    0.816680   -0.887093
     15          6           0       11.345315    0.172882    2.470591
     16          6           0       10.898784   -2.137717    1.709162
     17          6           0      -11.658363   -0.645938    2.358216
     18          6           0      -12.710395   -2.339891    0.738197
     19          6           0        9.699678    0.381006    0.045210
     20          6           0      -10.007334   -1.058735   -0.357557
     21          6           0       11.093361    0.092030   -2.634430
     22          6           0      -10.659339    1.228943   -2.025713
     23          6           0        9.342571    1.594065   -0.265020
     24          6           0       -8.835049   -0.631078   -0.221982
     25          6           0        8.020121    2.239060   -0.062876
     26          6           0       -7.611098   -1.386894   -0.474017
     27          6           0        8.056867    3.659307    0.428985
     28          6           0       -7.705372   -2.822156   -0.711855
     29          6           0        6.856213    1.531713   -0.169054
     30          6           0       -6.402477   -0.760996   -0.453610
     31          6           0        5.537142    1.966042    0.061318
     32          6           0       -5.041007   -1.204247   -0.583314
     33          6           0        4.423331    1.179448   -0.077450
     34          6           0       -4.008267   -0.416477   -0.378293
     35          6           0        3.088379    1.554040    0.138408
     36          6           0       -2.640562   -0.830600   -0.348844
     37          6           0        2.797813    3.014722    0.494559
     38          6           0       -2.477560   -2.299606   -0.823160
     39          6           0        2.004894    0.661761    0.068354
     40          6           0       -1.649156    0.164437   -0.177985
     41          6           0        0.588546    0.798178    0.262848
     42          6           0       -0.281854   -0.126706   -0.041575
     43          1           0       13.670136   -0.327552    0.898746
     44          1           0       13.555969   -1.472814    2.112869
     45          1           0      -14.388105   -0.316506    1.613672
     46          1           0      -14.150547   -0.600158    0.009079
     47          1           0       12.768333   -2.864804   -0.162122
     48          1           0      -12.905653    1.688330    1.433657
     49          1           0       13.549149   -0.063156   -1.454720
     50          1           0       12.782063   -1.812697   -2.277871
     51          1           0      -13.243272    1.543739   -1.638270
     52          1           0      -12.309563    2.697002   -0.872111
     53          1           0       11.606399   -0.294866    3.533157
     54          1           0       10.322836    0.539339    2.569977
     55          1           0       11.750424    1.120017    2.335423
     56          1           0       11.098296   -3.129922    1.005899
     57          1           0       11.388363   -2.486975    2.734904
     58          1           0        9.881247   -2.080023    1.891098
     59          1           0      -11.345727    0.302441    2.530484
     60          1           0      -10.949246   -1.430395    2.262342
     61          1           0      -12.294198   -1.104969    3.086847
     62          1           0      -13.594084   -2.642265    1.229395
     63          1           0      -11.750428   -2.749326    0.935380
     64          1           0      -13.064744   -2.438579   -0.287744
     65          1           0        8.923479   -0.351447    0.332622
     66          1           0      -10.049985   -2.115392   -0.356947
     67          1           0       10.039215    0.392684   -2.417764
     68          1           0       11.710282    0.932982   -2.815897
     69          1           0       11.015845   -0.598431   -3.439188
     70          1           0      -11.292748    1.423664   -2.932973
     71          1           0       -9.698625    0.642882   -2.166268
     72          1           0      -10.342360    2.308213   -1.975574
     73          1           0       15.094196   -2.738812    0.211513
     74          1           0      -15.244461    2.025842    1.345876
     75          1           0       10.061415    2.282983   -0.778618
     76          1           0       -8.641860    0.360652   -0.092468
     77          1           0        8.343080    4.384277   -0.256145
     78          1           0        7.124445    3.880421    0.792723
     79          1           0        8.645773    3.576206    1.305222
     80          1           0       -7.866985   -3.381705    0.147891
     81          1           0       -8.434515   -2.926147   -1.482927
     82          1           0       -6.659528   -3.387731   -1.187280
     83          1           0        6.987682    0.429918   -0.600525
     84          1           0       -6.675969    0.348158   -0.096575
     85          1           0        5.380218    2.935836    0.237992
     86          1           0       -4.986069   -2.251698   -0.741043
     87          1           0        4.602332    0.140190   -0.304235
     88          1           0       -4.211796    0.570908    0.140586
     89          1           0        2.914986    3.183556    1.653159
     90          1           0        1.799566    3.438356    0.263752
     91          1           0        3.488979    3.812792   -0.177176
     92          1           0       -3.122380   -2.820234   -0.061382
     93          1           0       -2.742299   -2.312884   -1.975416
     94          1           0       -1.379711   -2.722601   -0.654229
     95          1           0        2.426971   -0.169519   -0.184842
     96          1           0       -2.213640    1.052151    0.008991
     97          1           0        0.088871    1.672784    0.445182
     98          1           0        0.078995   -1.098715   -0.156202
 ---------------------------------------------------------------------

 SCF Done:  E(RCAM-B3LYP) =  -1706.99944527     A.U. after   14 cycles

 Excitation energies and oscillator strengths:

 Excited State   1:      Singlet-A      2.6747 eV  463.55 nm  f=3.6274  <S**2>=0.000
     155 ->158        -0.14706
     156 ->157         0.68900
 This state for optimization and/or second-order correction.
 Total Energy, E(TD-HF/TD-DFT) =  -1706.90115249
 Copying the excited state density for this state as the 1-particle RhoCI density.

 The electronic state is 1-A.
 Alpha  occ. eigenvalues --  -19.20429 -19.19659 -10.30640 -10.29996 -10.28194
 Alpha  occ. eigenvalues --  -10.27864 -10.27858 -10.27486 -10.27295 -10.27200
 Alpha  occ. eigenvalues --  -10.27076 -10.26699 -10.26563 -10.26352 -10.26311
 Alpha  occ. eigenvalues --  -10.26248 -10.26175 -10.26090 -10.26020 -10.25969
 Alpha  occ. eigenvalues --  -10.25906 -10.25880 -10.25768 -10.25762 -10.25758
 Alpha  occ. eigenvalues --  -10.25693 -10.25561 -10.25512 -10.25288 -10.25146
 Alpha  occ. eigenvalues --  -10.25097 -10.25083 -10.25058 -10.25018 -10.24798
 Alpha  occ. eigenvalues --  -10.24776 -10.24691 -10.24414 -10.24393 -10.24222
 Alpha  occ. eigenvalues --  -10.23842 -10.23149  -1.08283  -1.06340  -0.93967
 Alpha  occ. eigenvalues --   -0.93702  -0.92590  -0.91939  -0.91303  -0.90189
 Alpha  occ. eigenvalues --   -0.88589  -0.87612  -0.87123  -0.86011  -0.85161
 Alpha  occ. eigenvalues --   -0.83451  -0.82290  -0.80929  -0.80684  -0.77798
 Alpha  occ. eigenvalues --   -0.76815  -0.76788  -0.76571  -0.76152  -0.75543
 Alpha  occ. eigenvalues --   -0.75387  -0.75250  -0.74909  -0.74427  -0.70896
 Alpha  occ. eigenvalues --   -0.69231  -0.68117  -0.66931  -0.65079  -0.64336
 Alpha  occ. eigenvalues --   -0.63663  -0.63424  -0.62543  -0.60753  -0.59728
 Alpha  occ. eigenvalues --   -0.59704  -0.58980  -0.58612  -0.57655  -0.56106
 Alpha  occ. eigenvalues --   -0.55717  -0.55088  -0.54836  -0.54247  -0.53746
 Alpha  occ. eigenvalues --   -0.53665  -0.52961  -0.52459  -0.52261  -0.51496
 Alpha  occ. eigenvalues --   -0.51132  -0.51104  -0.50531  -0.49982  -0.49960
 Alpha  occ. eigenvalues --   -0.49493  -0.49167  -0.48920  -0.48220  -0.48114
 Alpha  occ. eigenvalues --   -0.47836  -0.47422  -0.47256  -0.46964  -0.46922
 Alpha  occ. eigenvalues --   -0.46352  -0.45878  -0.45803  -0.45664  -0.45084
 Alpha  occ. eigenvalues --   -0.44786  -0.44614  -0.44483  -0.43435  -0.42990
 Alpha  occ. eigenvalues --   -0.42773  -0.42315  -0.42052  -0.41652  -0.41624
 Alpha  occ. eigenvalues --   -0.41589  -0.41322  -0.41134  -0.40972  -0.40408
 Alpha  occ. eigenvalues --   -0.40152  -0.40123  -0.40004  -0.39603  -0.39376
 Alpha  occ. eigenvalues --   -0.39140  -0.38882  -0.38565  -0.38132  -0.37985
 Alpha  occ. eigenvalues --   -0.37775  -0.37396  -0.36457  -0.36000  -0.35897
 Alpha  occ. eigenvalues --   -0.34957  -0.34728  -0.33921  -0.32156  -0.32055
 Alpha  occ. eigenvalues --   -0.31975  -0.29527  -0.28038  -0.26814  -0.24412
 Alpha  occ. eigenvalues --   -0.20538
 Alpha virt. eigenvalues --   -0.04576   0.00199   0.04143   0.06443   0.08071
 Alpha virt. eigenvalues --    0.09351   0.11321   0.11607   0.11960   0.12319
 Alpha virt. eigenvalues --    0.12546   0.13142   0.13726   0.13823   0.14329

 Mulliken charges:
               1
     1  O   -0.564560
     2  O   -0.591005
     3  C   -0.000426
     4  C   -0.060211
     5  C   -0.173991
     6  C   -0.194158
     7  C    0.140264
     8  C    0.192396
     9  C    0.036258
    10  C    0.055076
    11  C   -0.205644
    12  C   -0.197938
    13  C    0.037954
    14  C    0.039656
    15  C   -0.313001
    16  C   -0.281272
    17  C   -0.298787
    18  C   -0.315179
    19  C   -0.123681
    20  C   -0.171348
    21  C   -0.347141
    22  C   -0.373786
    23  C   -0.099873
    24  C   -0.023773
    25  C    0.037756
    26  C    0.105045
    27  C   -0.359496
    28  C   -0.378537
    29  C   -0.101753
    30  C   -0.141882
    31  C   -0.063206
    32  C   -0.075346
    33  C   -0.120514
    34  C   -0.101553
    35  C    0.107527
    36  C    0.065970
    37  C   -0.368962
    38  C   -0.354732
    39  C   -0.105445
    40  C   -0.119848
    41  C   -0.065577
    42  C   -0.048534
    43  H    0.104517
    44  H    0.072340
    45  H    0.084637
    46  H    0.097332
    47  H    0.079340
    48  H    0.093111
    49  H    0.123161
    50  H    0.109126
    51  H    0.128414
    52  H    0.120944
    53  H    0.088896
    54  H    0.107506
    55  H    0.111698
    56  H    0.073054
    57  H    0.084821
    58  H    0.114117
    59  H    0.111493
    60  H    0.102254
    61  H    0.093338
    62  H    0.110824
    63  H    0.106368
    64  H    0.106638
    65  H    0.090035
    66  H    0.075623
    67  H    0.113984
    68  H    0.123360
    69  H    0.118223
    70  H    0.103538
    71  H    0.125364
    72  H    0.099606
    73  H    0.291923
    74  H    0.296908
    75  H    0.081621
    76  H    0.075333
    77  H    0.126924
    78  H    0.118501
    79  H    0.127625
    80  H    0.136843
    81  H    0.127344
    82  H    0.071129
    83  H    0.069564
    84  H    0.050751
    85  H    0.075199
    86  H    0.088481
    87  H    0.075515
    88  H    0.085045
    89  H    0.111599
    90  H    0.114637
    91  H    0.080812
    92  H    0.126325
    93  H    0.129431
    94  H    0.092217
    95  H    0.053428
    96  H    0.084043
    97  H    0.076089
    98  H    0.082308
 Sum of Mulliken charges =  -0.00000

 Dipole moment (field-independent basis, Debye):
    X=             -0.5498    Y=             -1.4978    Z=              1.8966  Tot=              2.4785
 Quadrupole moment (field-independent basis, Debye-Ang):
   XX=           -273.6312   YY=           -246.4819   ZZ=           -258.7163
   XY=             15.0144   XZ=             -4.4201   YZ=              0.0703

 Normal termination of Gaussian 16 at Thu Jul  4 04:36:43 2019.
