 Gaussian 16, Revision A.03,
 Gaussian 16:  ES64L-G16RevA.03 25-Dec-2016

 -------------------------------------
 # td=(NStates=1) CAM-B3LYP/6-31G(d,p)
 -------------------------------------

 --
 TD
 --
 Symbolic Z-matrix:
 Charge =  0 Multiplicity = 1

                         Standard orientation:
 ---------------------------------------------------------------------
 Center     Atomic      Atomic             Coordinates (Angstroms)
 Number     Number       Type             X           Y           Z
 ---------------------------------------------------------------------
      1          8           0       14.762745   -2.220738   -0.240236
      2          8           0      -14.867414    1.925291    0.864193
      3          6           0       11.295562   -1.107875    1.201424
      4          6           0      -12.303266   -0.926871    0.769829
      5          6           0       12.892988   -1.563446    1.108700
      6          6           0      -13.737255   -0.142034    0.818143
      7          6           0       13.397935   -1.960958   -0.277691
      8          6           0      -13.546857    1.405116    0.884262
      9          6           0       10.953230   -0.284929   -0.011515
     10          6           0      -11.303025   -0.345310   -0.217997
     11          6           0       13.161468   -0.804513   -1.294294
     12          6           0      -12.843058    1.648848   -0.405788
     13          6           0       11.755030   -0.228123   -1.099818
     14          6           0      -11.640962    0.777001   -0.859399
     15          6           0       11.199563   -0.418160    2.541721
     16          6           0       10.541782   -2.432978    1.230932
     17          6           0      -11.644751   -0.778779    2.261748
     18          6           0      -12.510422   -2.399864    0.533132
     19          6           0        9.574999    0.449550    0.196849
     20          6           0      -10.045559   -1.071891   -0.543187
     21          6           0       11.347361    0.625290   -2.252321
     22          6           0      -10.807720    1.592904   -1.772033
     23          6           0        9.366856    1.711371    0.038703
     24          6           0       -8.865137   -0.606327   -0.342590
     25          6           0        8.015402    2.418961    0.033223
     26          6           0       -7.561777   -1.267594   -0.631421
     27          6           0        8.106295    3.880890    0.458896
     28          6           0       -7.706581   -2.664751   -1.206744
     29          6           0        6.895461    1.643269   -0.082202
     30          6           0       -6.354737   -0.600603   -0.449037
     31          6           0        5.546814    1.998694   -0.011312
     32          6           0       -5.034368   -1.200211   -0.495006
     33          6           0        4.495995    1.226421   -0.070846
     34          6           0       -3.967921   -0.390930   -0.364251
     35          6           0        3.057206    1.603760    0.070755
     36          6           0       -2.644213   -0.799888   -0.412788
     37          6           0        2.840118    3.005623    0.432020
     38          6           0       -2.333778   -2.214028   -0.710396
     39          6           0        2.188769    0.651167   -0.165626
     40          6           0       -1.661129    0.085518   -0.131977
     41          6           0        0.695066    0.840020   -0.082350
     42          6           0       -0.266472   -0.205267   -0.251715
     43          1           0       13.282200   -0.532362    1.247812
     44          1           0       13.195780   -2.293948    1.925577
     45          1           0      -14.378425   -0.280322    1.587586
     46          1           0      -14.365284   -0.266155   -0.031031
     47          1           0       12.904091   -2.729676   -0.663777
     48          1           0      -12.730736    1.692715    1.735662
     49          1           0       13.980937   -0.027643   -1.272394
     50          1           0       13.191025   -1.166401   -2.293277
     51          1           0      -13.788251    1.688369   -1.119550
     52          1           0      -12.572224    2.864288   -0.423022
     53          1           0       11.666152   -0.842746    3.298856
     54          1           0       10.058062   -0.112820    2.826310
     55          1           0       11.630529    0.610519    2.486111
     56          1           0       11.057561   -3.220323    0.492305
     57          1           0       10.440853   -3.001968    2.256031
     58          1           0        9.272803   -2.248955    0.928078
     59          1           0      -11.591243    0.148619    2.689462
     60          1           0      -10.748491   -1.369216    2.245654
     61          1           0      -12.357773   -1.141841    2.963364
     62          1           0      -13.230131   -2.715307    1.304384
     63          1           0      -11.474500   -2.940706    0.652973
     64          1           0      -12.813029   -2.482167   -0.518087
     65          1           0        8.881622   -0.194883    0.606636
     66          1           0      -10.021115   -2.049032   -0.996164
     67          1           0       10.301137    0.641797   -2.204452
     68          1           0       12.036278    1.722480   -2.418115
     69          1           0       11.514652   -0.057325   -3.295182
     70          1           0      -11.444222    1.979165   -2.632778
     71          1           0      -10.278302    0.868549   -2.399504
     72          1           0      -10.149100    2.229907   -1.185298
     73          1           0       14.849545   -3.243285    0.170423
     74          1           0      -15.339850    1.315063    1.479167
     75          1           0       10.073050    2.403369   -0.064130
     76          1           0       -8.685035    0.266858    0.274236
     77          1           0        8.773658    4.431192   -0.205567
     78          1           0        6.986770    4.281045    0.530545
     79          1           0        8.572160    3.973781    1.567860
     80          1           0       -8.386287   -3.330499   -0.625123
     81          1           0       -8.243518   -2.861267   -2.115474
     82          1           0       -6.745813   -3.145900   -1.429769
     83          1           0        7.240041    0.585478   -0.428977
     84          1           0       -6.474475    0.466995   -0.318006
     85          1           0        5.326756    3.145946    0.261969
     86          1           0       -4.921649   -2.194375   -0.717920
     87          1           0        4.763530    0.225416   -0.465123
     88          1           0       -4.029097    0.628407   -0.053607
     89          1           0        3.375265    3.169090    1.349879
     90          1           0        1.711914    3.216961    0.601835
     91          1           0        3.167535    3.686117   -0.333645
     92          1           0       -3.030018   -2.822077   -0.028237
     93          1           0       -2.630929   -2.531974   -1.625790
     94          1           0       -1.176078   -2.455784   -0.564428
     95          1           0        2.486789   -0.284100   -0.366243
     96          1           0       -1.916614    1.065537   -0.003082
     97          1           0        0.216999    1.862708    0.224062
     98          1           0        0.108378   -1.158169   -0.528871
 ---------------------------------------------------------------------

 SCF Done:  E(RCAM-B3LYP) =  -1706.97868205     A.U. after   14 cycles

 Excitation energies and oscillator strengths:

 Excited State   1:      Singlet-A      2.8981 eV  427.81 nm  f=3.6292  <S**2>=0.000
     155 ->158         0.16799
     156 ->157         0.68214
 This state for optimization and/or second-order correction.
 Total Energy, E(TD-HF/TD-DFT) =  -1706.87217760
 Copying the excited state density for this state as the 1-particle RhoCI density.

 The electronic state is 1-A.
 Alpha  occ. eigenvalues --  -19.22374 -19.22135 -10.30729 -10.29135 -10.28191
 Alpha  occ. eigenvalues --  -10.28186 -10.28164 -10.27790 -10.27670 -10.27656
 Alpha  occ. eigenvalues --  -10.27478 -10.27076 -10.27006 -10.26774 -10.26751
 Alpha  occ. eigenvalues --  -10.26697 -10.26625 -10.26377 -10.26325 -10.26199
 Alpha  occ. eigenvalues --  -10.26174 -10.26068 -10.25915 -10.25911 -10.25813
 Alpha  occ. eigenvalues --  -10.25783 -10.25757 -10.25628 -10.25618 -10.25549
 Alpha  occ. eigenvalues --  -10.25438 -10.25380 -10.25373 -10.25346 -10.25340
 Alpha  occ. eigenvalues --  -10.25329 -10.25201 -10.24967 -10.24571 -10.24504
 Alpha  occ. eigenvalues --  -10.24466 -10.23311  -1.10281  -1.08646  -0.93258
 Alpha  occ. eigenvalues --   -0.93000  -0.92944  -0.92245  -0.90281  -0.90058
 Alpha  occ. eigenvalues --   -0.87307  -0.86556  -0.86200  -0.85888  -0.84513
 Alpha  occ. eigenvalues --   -0.83086  -0.82259  -0.80506  -0.80056  -0.78978
 Alpha  occ. eigenvalues --   -0.77166  -0.76509  -0.76233  -0.76013  -0.75817
 Alpha  occ. eigenvalues --   -0.75085  -0.74771  -0.74198  -0.73907  -0.70633
 Alpha  occ. eigenvalues --   -0.68436  -0.66825  -0.65799  -0.65005  -0.63649
 Alpha  occ. eigenvalues --   -0.63037  -0.62707  -0.62603  -0.61421  -0.60281
 Alpha  occ. eigenvalues --   -0.59169  -0.58833  -0.58323  -0.58067  -0.56735
 Alpha  occ. eigenvalues --   -0.55624  -0.55154  -0.55040  -0.54147  -0.53540
 Alpha  occ. eigenvalues --   -0.53036  -0.52793  -0.52377  -0.52108  -0.51548
 Alpha  occ. eigenvalues --   -0.50857  -0.50361  -0.50293  -0.50135  -0.49233
 Alpha  occ. eigenvalues --   -0.48926  -0.48715  -0.48465  -0.48119  -0.47669
 Alpha  occ. eigenvalues --   -0.47357  -0.47283  -0.46949  -0.46769  -0.46500
 Alpha  occ. eigenvalues --   -0.46139  -0.45574  -0.45262  -0.44991  -0.44869
 Alpha  occ. eigenvalues --   -0.44851  -0.44629  -0.44577  -0.44369  -0.43508
 Alpha  occ. eigenvalues --   -0.43370  -0.43130  -0.42782  -0.42445  -0.42185
 Alpha  occ. eigenvalues --   -0.41863  -0.41231  -0.40780  -0.40583  -0.40471
 Alpha  occ. eigenvalues --   -0.40196  -0.40005  -0.39629  -0.39453  -0.39274
 Alpha  occ. eigenvalues --   -0.39083  -0.38999  -0.38769  -0.38510  -0.37818
 Alpha  occ. eigenvalues --   -0.37439  -0.37095  -0.36860  -0.36510  -0.35567
 Alpha  occ. eigenvalues --   -0.34766  -0.34328  -0.33557  -0.32639  -0.32132
 Alpha  occ. eigenvalues --   -0.31354  -0.29451  -0.28466  -0.27345  -0.24841
 Alpha  occ. eigenvalues --   -0.21231
 Alpha virt. eigenvalues --   -0.04052  -0.00195   0.03260   0.05907   0.07399
 Alpha virt. eigenvalues --    0.09005   0.09335   0.11013   0.11736   0.11873
 Alpha virt. eigenvalues --    0.12228   0.12654   0.13095   0.13239   0.13495

 Mulliken charges:
               1
     1  O   -0.555940
     2  O   -0.550015
     3  C   -0.008267
     4  C   -0.036354
     5  C   -0.201845
     6  C   -0.207218
     7  C    0.188975
     8  C    0.169828
     9  C    0.044754
    10  C    0.076516
    11  C   -0.223990
    12  C   -0.212735
    13  C    0.045087
    14  C    0.053905
    15  C   -0.293803
    16  C   -0.265886
    17  C   -0.311196
    18  C   -0.288744
    19  C   -0.129213
    20  C   -0.150987
    21  C   -0.330177
    22  C   -0.355201
    23  C   -0.040920
    24  C   -0.057851
    25  C    0.066179
    26  C    0.104516
    27  C   -0.358204
    28  C   -0.399567
    29  C   -0.117561
    30  C   -0.136203
    31  C   -0.077180
    32  C   -0.089514
    33  C   -0.120828
    34  C   -0.089149
    35  C    0.143565
    36  C    0.141441
    37  C   -0.378932
    38  C   -0.377552
    39  C   -0.116986
    40  C   -0.128406
    41  C   -0.119869
    42  C   -0.081902
    43  H    0.104790
    44  H    0.076339
    45  H    0.067461
    46  H    0.108988
    47  H    0.083123
    48  H    0.065618
    49  H    0.120331
    50  H    0.109858
    51  H    0.102132
    52  H    0.068598
    53  H    0.117307
    54  H    0.077951
    55  H    0.099719
    56  H    0.084736
    57  H    0.095519
    58  H    0.048902
    59  H    0.106242
    60  H    0.110105
    61  H    0.092388
    62  H    0.104867
    63  H    0.087294
    64  H    0.106869
    65  H    0.096936
    66  H    0.082176
    67  H    0.131554
    68  H    0.083552
    69  H    0.061921
    70  H    0.106816
    71  H    0.109534
    72  H    0.131526
    73  H    0.299908
    74  H    0.311505
    75  H    0.074300
    76  H    0.075760
    77  H    0.126449
    78  H    0.100047
    79  H    0.109014
    80  H    0.110893
    81  H    0.130937
    82  H    0.103838
    83  H    0.079878
    84  H    0.087035
    85  H    0.061333
    86  H    0.084810
    87  H    0.076110
    88  H    0.079086
    89  H    0.132852
    90  H    0.097201
    91  H    0.134529
    92  H    0.107708
    93  H    0.135535
    94  H    0.095501
    95  H    0.079973
    96  H    0.076689
    97  H    0.078837
    98  H    0.084550
 Sum of Mulliken charges =  -0.00000

 Dipole moment (field-independent basis, Debye):
    X=              0.7236    Y=             -2.1496    Z=              1.0914  Tot=              2.5171
 Quadrupole moment (field-independent basis, Debye-Ang):
   XX=           -285.4720   YY=           -245.3133   ZZ=           -261.3462
   XY=             13.0211   XZ=             -0.9648   YZ=              3.2589

 Normal termination of Gaussian 16 at Tue Jul  9 19:02:02 2019.
