 Gaussian 16, Revision A.03,
 Gaussian 16:  ES64L-G16RevA.03 25-Dec-2016

 -------------------------------------
 # td=(NStates=1) CAM-B3LYP/6-31G(d,p)
 -------------------------------------

 --
 TD
 --
 Symbolic Z-matrix:
 Charge =  0 Multiplicity = 1

                         Standard orientation:
 ---------------------------------------------------------------------
 Center     Atomic      Atomic             Coordinates (Angstroms)
 Number     Number       Type             X           Y           Z
 ---------------------------------------------------------------------
      1          8           0       14.841538   -2.027686   -0.226649
      2          8           0      -14.938194    1.990667    0.737182
      3          6           0       11.456017   -1.189243    1.310698
      4          6           0      -12.285273   -0.857432    0.992725
      5          6           0       12.958946   -1.314953    1.288918
      6          6           0      -13.759912   -0.259851    0.860417
      7          6           0       13.417718   -1.859435   -0.178540
      8          6           0      -13.636985    1.292482    0.794891
      9          6           0       10.982443   -0.314808    0.038074
     10          6           0      -11.384518   -0.293544   -0.045229
     11          6           0       13.139892   -0.876734   -1.341063
     12          6           0      -12.818378    1.673034   -0.385863
     13          6           0       11.729559   -0.278301   -1.113118
     14          6           0      -11.610260    0.853476   -0.640425
     15          6           0       11.239948   -0.429257    2.589569
     16          6           0       10.690702   -2.465598    1.203800
     17          6           0      -11.594791   -0.705089    2.374809
     18          6           0      -12.482086   -2.408284    0.809475
     19          6           0        9.609943    0.293136    0.115228
     20          6           0      -10.164681   -1.057439   -0.273177
     21          6           0       11.331839    0.558758   -2.350963
     22          6           0      -10.975645    1.394965   -1.877544
     23          6           0        9.330000    1.634491    0.070053
     24          6           0       -8.888648   -0.479816   -0.407507
     25          6           0        8.040174    2.278883    0.163649
     26          6           0       -7.634658   -1.312609   -0.628921
     27          6           0        8.187300    3.681885    0.606584
     28          6           0       -7.807016   -2.716304   -0.901102
     29          6           0        6.913598    1.641003   -0.140041
     30          6           0       -6.428920   -0.575264   -0.592386
     31          6           0        5.485722    2.119253    0.104339
     32          6           0       -5.064119   -1.162941   -0.696617
     33          6           0        4.364158    1.258218   -0.185601
     34          6           0       -4.010494   -0.476989   -0.510753
     35          6           0        3.011530    1.679377   -0.056211
     36          6           0       -2.513639   -0.865998   -0.615549
     37          6           0        2.697937    3.001861    0.516541
     38          6           0       -2.227295   -2.309204   -1.037254
     39          6           0        2.087932    0.811834   -0.310511
     40          6           0       -1.622663    0.041237   -0.405153
     41          6           0        0.655890    0.863565   -0.160438
     42          6           0       -0.195957   -0.123491   -0.546941
     43          1           0       13.662884   -0.363043    1.539882
     44          1           0       13.233441   -2.010070    2.120365
     45          1           0      -14.289509   -0.504481    1.745393
     46          1           0      -14.094739   -0.702398   -0.025962
     47          1           0       13.090360   -2.706529   -0.409454
     48          1           0      -13.131712    1.726095    1.688775
     49          1           0       13.700948   -0.015283   -1.336007
     50          1           0       13.226663   -1.312861   -2.356672
     51          1           0      -13.541030    1.779577   -1.415042
     52          1           0      -12.647051    2.814518   -0.230964
     53          1           0       11.579254   -0.856536    3.382046
     54          1           0       10.120565   -0.438574    2.833989
     55          1           0       11.729158    0.582176    2.649495
     56          1           0       11.125941   -3.240402    0.400900
     57          1           0       10.626386   -2.910269    2.255585
     58          1           0        9.569046   -2.162774    0.957305
     59          1           0      -11.696866    0.409563    2.780016
     60          1           0      -10.485464   -0.957756    2.339571
     61          1           0      -12.152868   -1.280435    2.973655
     62          1           0      -13.363445   -2.776920    1.403873
     63          1           0      -11.444659   -3.010153    0.971318
     64          1           0      -12.931749   -2.535994   -0.162373
     65          1           0        9.017226   -0.264961    0.356636
     66          1           0      -10.240636   -2.064160   -0.622537
     67          1           0       10.471980    0.973006   -2.159180
     68          1           0       12.013370    1.156093   -2.634281
     69          1           0       11.255870   -0.192935   -3.071745
     70          1           0      -11.528984    1.644774   -2.669030
     71          1           0      -10.082962    0.634254   -2.266062
     72          1           0      -10.445445    2.485108   -1.745603
     73          1           0       14.955451   -2.576209    0.602058
     74          1           0      -15.294001    1.810473    1.621081
     75          1           0       10.042597    2.399736   -0.201261
     76          1           0       -8.573966    0.723450   -0.578643
     77          1           0        9.051801    4.315197    0.051398
     78          1           0        7.423747    4.342189    0.584157
     79          1           0        8.620771    3.611586    1.610437
     80          1           0       -8.217837   -3.187795   -0.117441
     81          1           0       -8.381435   -3.094106   -1.821285
     82          1           0       -6.839403   -3.419444   -0.983538
     83          1           0        6.865174    0.573003   -0.369956
     84          1           0       -6.280022    0.585237   -0.317835
     85          1           0        5.372317    3.205777    0.281018
     86          1           0       -4.984974   -2.059311   -1.158601
     87          1           0        4.660345    0.177134   -0.409023
     88          1           0       -4.164328    0.726393   -0.376160
     89          1           0        3.180089    3.264750    1.572220
     90          1           0        1.819660    3.368359    0.646758
     91          1           0        3.331309    3.826165   -0.007001
     92          1           0       -2.905663   -3.070004   -0.594782
     93          1           0       -2.587507   -2.448668   -1.989587
     94          1           0       -1.122586   -2.661531   -0.905733
     95          1           0        2.533223   -0.171943   -0.597298
     96          1           0       -1.968875    0.957252   -0.051698
     97          1           0        0.225848    1.742934    0.493714
     98          1           0        0.313680   -1.012335   -0.994329
 ---------------------------------------------------------------------

 SCF Done:  E(RCAM-B3LYP) =  -1706.86430879     A.U. after   14 cycles

 Excitation energies and oscillator strengths:

 Excited State   1:      Singlet-A      3.1325 eV  395.80 nm  f=3.5139  <S**2>=0.000
     155 ->158         0.20241
     156 ->157         0.66325
 This state for optimization and/or second-order correction.
 Total Energy, E(TD-HF/TD-DFT) =  -1706.74919288
 Copying the excited state density for this state as the 1-particle RhoCI density.

 The electronic state is 1-A.
 Alpha  occ. eigenvalues --  -19.20678 -19.20319 -10.30306 -10.29000 -10.28611
 Alpha  occ. eigenvalues --  -10.28498 -10.28359 -10.27509 -10.27437 -10.27422
 Alpha  occ. eigenvalues --  -10.27415 -10.27348 -10.27332 -10.27147 -10.27129
 Alpha  occ. eigenvalues --  -10.27076 -10.26812 -10.26529 -10.26450 -10.26384
 Alpha  occ. eigenvalues --  -10.26264 -10.26236 -10.26166 -10.26119 -10.26023
 Alpha  occ. eigenvalues --  -10.25835 -10.25807 -10.25800 -10.25664 -10.25653
 Alpha  occ. eigenvalues --  -10.25458 -10.25371 -10.25368 -10.25259 -10.25013
 Alpha  occ. eigenvalues --  -10.24945 -10.24830 -10.24811 -10.24643 -10.24311
 Alpha  occ. eigenvalues --  -10.23782 -10.21072  -1.08201  -1.07532  -0.94102
 Alpha  occ. eigenvalues --   -0.93051  -0.92585  -0.91686  -0.90916  -0.89981
 Alpha  occ. eigenvalues --   -0.87493  -0.87218  -0.86813  -0.85008  -0.84429
 Alpha  occ. eigenvalues --   -0.83666  -0.81624  -0.80389  -0.79494  -0.78670
 Alpha  occ. eigenvalues --   -0.77274  -0.77102  -0.76673  -0.76060  -0.75971
 Alpha  occ. eigenvalues --   -0.75569  -0.75201  -0.74513  -0.74422  -0.70782
 Alpha  occ. eigenvalues --   -0.69162  -0.67762  -0.67221  -0.64903  -0.64081
 Alpha  occ. eigenvalues --   -0.63230  -0.62656  -0.61388  -0.61054  -0.60369
 Alpha  occ. eigenvalues --   -0.59532  -0.58293  -0.57868  -0.57495  -0.56393
 Alpha  occ. eigenvalues --   -0.55430  -0.54782  -0.54456  -0.54231  -0.53854
 Alpha  occ. eigenvalues --   -0.53335  -0.52784  -0.51771  -0.51503  -0.51288
 Alpha  occ. eigenvalues --   -0.50568  -0.50268  -0.50080  -0.49679  -0.49436
 Alpha  occ. eigenvalues --   -0.49329  -0.49107  -0.48966  -0.48560  -0.48355
 Alpha  occ. eigenvalues --   -0.47653  -0.47599  -0.47322  -0.46768  -0.46108
 Alpha  occ. eigenvalues --   -0.45963  -0.45623  -0.45242  -0.45049  -0.44851
 Alpha  occ. eigenvalues --   -0.44512  -0.44252  -0.43855  -0.43540  -0.43434
 Alpha  occ. eigenvalues --   -0.43251  -0.43174  -0.42993  -0.42847  -0.42316
 Alpha  occ. eigenvalues --   -0.42129  -0.42108  -0.41473  -0.41428  -0.40981
 Alpha  occ. eigenvalues --   -0.40560  -0.40210  -0.40143  -0.39740  -0.39555
 Alpha  occ. eigenvalues --   -0.39275  -0.38985  -0.38820  -0.38543  -0.38104
 Alpha  occ. eigenvalues --   -0.37193  -0.36813  -0.36249  -0.36210  -0.35378
 Alpha  occ. eigenvalues --   -0.35230  -0.34245  -0.33203  -0.31796  -0.31595
 Alpha  occ. eigenvalues --   -0.31195  -0.29570  -0.28305  -0.26610  -0.24242
 Alpha  occ. eigenvalues --   -0.21815
 Alpha virt. eigenvalues --   -0.03268  -0.00415   0.02820   0.06165   0.07882
 Alpha virt. eigenvalues --    0.09671   0.10259   0.11425   0.11841   0.11907
 Alpha virt. eigenvalues --    0.12138   0.12828   0.13110   0.13198   0.13360

 Mulliken charges:
               1
     1  O   -0.570727
     2  O   -0.566588
     3  C    0.016824
     4  C   -0.050432
     5  C   -0.212800
     6  C   -0.180196
     7  C    0.180137
     8  C    0.144615
     9  C    0.005464
    10  C    0.102992
    11  C   -0.202648
    12  C   -0.227878
    13  C   -0.008712
    14  C    0.096249
    15  C   -0.296680
    16  C   -0.295669
    17  C   -0.285156
    18  C   -0.313278
    19  C   -0.034181
    20  C   -0.183307
    21  C   -0.322500
    22  C   -0.350771
    23  C   -0.096558
    24  C   -0.089957
    25  C    0.113035
    26  C    0.113420
    27  C   -0.375203
    28  C   -0.392145
    29  C   -0.131160
    30  C   -0.146204
    31  C   -0.105261
    32  C   -0.059149
    33  C   -0.148019
    34  C   -0.112423
    35  C    0.195060
    36  C    0.127491
    37  C   -0.372708
    38  C   -0.384938
    39  C   -0.154696
    40  C   -0.122987
    41  C   -0.087233
    42  C   -0.083600
    43  H    0.098165
    44  H    0.079431
    45  H    0.083546
    46  H    0.113820
    47  H    0.085306
    48  H    0.086461
    49  H    0.133742
    50  H    0.106693
    51  H    0.087152
    52  H    0.101277
    53  H    0.110420
    54  H    0.078492
    55  H    0.107503
    56  H    0.103104
    57  H    0.092123
    58  H    0.099391
    59  H    0.075050
    60  H    0.113802
    61  H    0.109410
    62  H    0.099450
    63  H    0.093688
    64  H    0.104980
    65  H    0.021782
    66  H    0.109302
    67  H    0.112825
    68  H    0.114226
    69  H    0.107888
    70  H    0.128400
    71  H    0.087120
    72  H    0.075336
    73  H    0.294506
    74  H    0.302501
    75  H    0.082721
    76  H    0.097235
    77  H    0.091946
    78  H    0.118963
    79  H    0.132713
    80  H    0.143972
    81  H    0.121957
    82  H    0.090116
    83  H    0.075314
    84  H    0.083431
    85  H    0.081809
    86  H    0.078296
    87  H    0.090843
    88  H    0.060717
    89  H    0.101505
    90  H    0.116160
    91  H    0.100816
    92  H    0.114107
    93  H    0.135516
    94  H    0.107571
    95  H    0.071626
    96  H    0.083151
    97  H    0.080894
    98  H    0.090208
 Sum of Mulliken charges =  -0.00000

 Dipole moment (field-independent basis, Debye):
    X=              0.2788    Y=             -2.0120    Z=              2.1691  Tot=              2.9716
 Quadrupole moment (field-independent basis, Debye-Ang):
   XX=           -295.4174   YY=           -242.6617   ZZ=           -257.6710
   XY=             19.1228   XZ=              4.5713   YZ=              4.0587

 Normal termination of Gaussian 16 at Sat Jul  6 09:52:35 2019.
