 Gaussian 16, Revision A.03,
 Gaussian 16:  ES64L-G16RevA.03 25-Dec-2016

 -------------------------------------
 # td=(NStates=1) CAM-B3LYP/6-31G(d,p)
 -------------------------------------

 --
 TD
 --
 Symbolic Z-matrix:
 Charge =  0 Multiplicity = 1

                         Standard orientation:
 ---------------------------------------------------------------------
 Center     Atomic      Atomic             Coordinates (Angstroms)
 Number     Number       Type             X           Y           Z
 ---------------------------------------------------------------------
      1          8           0       14.789716   -2.182719   -0.614042
      2          8           0      -14.881352    2.021721    0.597674
      3          6           0       11.585126   -1.096285    1.214502
      4          6           0      -12.286973   -0.877444    0.789273
      5          6           0       13.044253   -1.342267    1.076787
      6          6           0      -13.806111   -0.192362    0.703352
      7          6           0       13.354180   -1.752479   -0.319441
      8          6           0      -13.562835    1.288328    0.747243
      9          6           0       11.029872   -0.212051   -0.091546
     10          6           0      -11.305583   -0.274969   -0.183299
     11          6           0       13.078223   -0.795216   -1.363931
     12          6           0      -12.865247    1.680067   -0.608898
     13          6           0       11.718500   -0.240075   -1.181744
     14          6           0      -11.696903    0.781236   -0.854292
     15          6           0       11.298854   -0.267096    2.563303
     16          6           0       10.767860   -2.443985    1.350578
     17          6           0      -11.799072   -0.926199    2.234697
     18          6           0      -12.574753   -2.424504    0.437545
     19          6           0        9.619692    0.294921    0.120281
     20          6           0      -10.086168   -1.034283   -0.329186
     21          6           0       11.243505    0.407394   -2.407781
     22          6           0      -10.798674    1.364951   -1.957423
     23          6           0        9.263697    1.539754   -0.229296
     24          6           0       -8.824947   -0.511085   -0.204413
     25          6           0        8.065407    2.192233    0.064314
     26          6           0       -7.571174   -1.253968   -0.456934
     27          6           0        8.215069    3.703841    0.482751
     28          6           0       -7.725990   -2.751992   -0.779656
     29          6           0        6.939636    1.474130   -0.021086
     30          6           0       -6.458035   -0.542146   -0.355196
     31          6           0        5.579301    1.991171    0.216384
     32          6           0       -5.110785   -1.090727   -0.420019
     33          6           0        4.443538    1.275995   -0.000331
     34          6           0       -3.979495   -0.306751   -0.313356
     35          6           0        3.111062    1.643915    0.236270
     36          6           0       -2.679370   -0.728424   -0.448828
     37          6           0        2.818206    2.971180    0.739499
     38          6           0       -2.413250   -2.137884   -0.798641
     39          6           0        2.099462    0.801497   -0.001718
     40          6           0       -1.592319    0.138052   -0.147855
     41          6           0        0.629799    0.962778    0.136463
     42          6           0       -0.247214   -0.011482   -0.286189
     43          1           0       13.449659   -0.543188    1.344117
     44          1           0       13.447639   -2.124709    1.862855
     45          1           0      -14.196666   -0.673856    1.540713
     46          1           0      -14.494949   -0.398630   -0.117919
     47          1           0       12.703148   -2.682037   -0.546429
     48          1           0      -12.849079    1.613416    1.593565
     49          1           0       13.808838   -0.059659   -1.332568
     50          1           0       13.492068   -1.088004   -2.246738
     51          1           0      -13.553019    1.504238   -1.521784
     52          1           0      -12.546130    2.579804   -0.736379
     53          1           0       11.783530   -0.874117    3.418161
     54          1           0       10.352685   -0.199625    2.813403
     55          1           0       11.820334    0.718269    2.468680
     56          1           0       10.825476   -3.073605    0.535605
     57          1           0       11.235926   -3.038305    2.103627
     58          1           0        9.648304   -2.442912    1.622739
     59          1           0      -11.620421    0.198545    2.518996
     60          1           0      -10.894235   -1.641537    2.373067
     61          1           0      -12.545133   -1.458270    2.973381
     62          1           0      -13.625747   -2.722735    0.876612
     63          1           0      -11.784625   -3.205692    0.577168
     64          1           0      -12.669753   -2.459153   -0.873755
     65          1           0        8.927925   -0.544874    0.550940
     66          1           0      -10.227206   -2.146336   -0.734194
     67          1           0       10.092417    0.454771   -2.557007
     68          1           0       11.749301    1.312109   -2.772053
     69          1           0       11.453510   -0.456086   -3.312412
     70          1           0      -11.367607    1.844207   -3.007229
     71          1           0      -10.238856    0.521612   -2.232081
     72          1           0      -10.356393    2.295157   -1.665578
     73          1           0       14.986087   -2.917303    0.044828
     74          1           0      -15.284334    2.066772    1.618080
     75          1           0       10.023394    2.283274   -0.571908
     76          1           0       -8.716051    0.586603   -0.037972
     77          1           0        8.833106    4.467211   -0.218391
     78          1           0        7.080468    4.201134    0.617905
     79          1           0        8.953113    3.679833    1.314088
     80          1           0       -8.743310   -3.190487   -0.113009
     81          1           0       -7.965914   -2.751705   -1.923671
     82          1           0       -6.627329   -3.300511   -0.592824
     83          1           0        6.948481    0.377686   -0.189410
     84          1           0       -6.526201    0.550039   -0.249962
     85          1           0        5.588048    2.887458    0.716585
     86          1           0       -4.917884   -2.248607   -0.599860
     87          1           0        4.511052    0.393670   -0.337076
     88          1           0       -4.232364    0.667906    0.065184
     89          1           0        3.465845    3.028443    1.613538
     90          1           0        1.744645    3.133805    1.130954
     91          1           0        2.853726    3.877689   -0.152578
     92          1           0       -2.824145   -2.871348   -0.136722
     93          1           0       -2.743274   -2.252483   -1.702145
     94          1           0       -1.286947   -2.393311   -0.892077
     95          1           0        2.266078   -0.081715   -0.521498
     96          1           0       -2.066911    1.110658   -0.018797
     97          1           0        0.331389    2.017902    0.029671
     98          1           0        0.139302   -1.030051   -0.392573
 ---------------------------------------------------------------------

 SCF Done:  E(RCAM-B3LYP) =  -1706.88159919     A.U. after   14 cycles

 Excitation energies and oscillator strengths:

 Excited State   1:      Singlet-A      2.5235 eV  491.31 nm  f=3.6675  <S**2>=0.000
     155 ->158        -0.14731
     156 ->157         0.69027
 This state for optimization and/or second-order correction.
 Total Energy, E(TD-HF/TD-DFT) =  -1706.78886096
 Copying the excited state density for this state as the 1-particle RhoCI density.

 The electronic state is 1-A.
 Alpha  occ. eigenvalues --  -19.21943 -19.20746 -10.31613 -10.30301 -10.29841
 Alpha  occ. eigenvalues --  -10.29124 -10.28520 -10.28261 -10.27751 -10.27542
 Alpha  occ. eigenvalues --  -10.27409 -10.27311 -10.27070 -10.27011 -10.26951
 Alpha  occ. eigenvalues --  -10.26881 -10.26825 -10.26793 -10.26583 -10.26493
 Alpha  occ. eigenvalues --  -10.26369 -10.26120 -10.25998 -10.25936 -10.25917
 Alpha  occ. eigenvalues --  -10.25874 -10.25843 -10.25839 -10.25781 -10.25645
 Alpha  occ. eigenvalues --  -10.25595 -10.25379 -10.25099 -10.25069 -10.25054
 Alpha  occ. eigenvalues --  -10.24547 -10.24530 -10.24501 -10.24391 -10.24271
 Alpha  occ. eigenvalues --  -10.24254 -10.23089  -1.05584  -1.04643  -0.94063
 Alpha  occ. eigenvalues --   -0.93622  -0.92842  -0.92341  -0.91176  -0.90513
 Alpha  occ. eigenvalues --   -0.87847  -0.87656  -0.86283  -0.85600  -0.85068
 Alpha  occ. eigenvalues --   -0.83454  -0.82139  -0.79826  -0.79176  -0.78468
 Alpha  occ. eigenvalues --   -0.77625  -0.76443  -0.76360  -0.76124  -0.75397
 Alpha  occ. eigenvalues --   -0.75281  -0.75064  -0.73933  -0.73530  -0.71071
 Alpha  occ. eigenvalues --   -0.68789  -0.67046  -0.66584  -0.65494  -0.64215
 Alpha  occ. eigenvalues --   -0.63186  -0.62958  -0.61764  -0.60812  -0.60146
 Alpha  occ. eigenvalues --   -0.59255  -0.58780  -0.57400  -0.57056  -0.56059
 Alpha  occ. eigenvalues --   -0.55585  -0.55066  -0.54531  -0.53917  -0.53752
 Alpha  occ. eigenvalues --   -0.53165  -0.52813  -0.51741  -0.51274  -0.51099
 Alpha  occ. eigenvalues --   -0.50511  -0.50253  -0.50110  -0.49515  -0.49109
 Alpha  occ. eigenvalues --   -0.48861  -0.48752  -0.48485  -0.48035  -0.47738
 Alpha  occ. eigenvalues --   -0.47526  -0.47276  -0.46917  -0.46642  -0.46436
 Alpha  occ. eigenvalues --   -0.45970  -0.45848  -0.45467  -0.44874  -0.44607
 Alpha  occ. eigenvalues --   -0.44434  -0.44275  -0.44116  -0.43687  -0.43335
 Alpha  occ. eigenvalues --   -0.43111  -0.42875  -0.42757  -0.42380  -0.42217
 Alpha  occ. eigenvalues --   -0.41400  -0.41351  -0.41020  -0.40923  -0.40548
 Alpha  occ. eigenvalues --   -0.40384  -0.39879  -0.39699  -0.39324  -0.38959
 Alpha  occ. eigenvalues --   -0.38673  -0.38529  -0.38120  -0.37955  -0.37631
 Alpha  occ. eigenvalues --   -0.37462  -0.37331  -0.36930  -0.36113  -0.36011
 Alpha  occ. eigenvalues --   -0.34924  -0.34087  -0.33594  -0.32171  -0.31902
 Alpha  occ. eigenvalues --   -0.31832  -0.30170  -0.28803  -0.27192  -0.24407
 Alpha  occ. eigenvalues --   -0.20413
 Alpha virt. eigenvalues --   -0.05249  -0.00209   0.03044   0.06260   0.08304
 Alpha virt. eigenvalues --    0.09380   0.09946   0.10257   0.10785   0.11492
 Alpha virt. eigenvalues --    0.11794   0.12110   0.12639   0.12953   0.12990

 Mulliken charges:
               1
     1  O   -0.593186
     2  O   -0.567566
     3  C   -0.025692
     4  C   -0.049768
     5  C   -0.146919
     6  C   -0.158128
     7  C    0.143829
     8  C    0.120165
     9  C    0.007893
    10  C    0.093986
    11  C   -0.197485
    12  C   -0.173623
    13  C    0.104355
    14  C    0.026855
    15  C   -0.298611
    16  C   -0.318708
    17  C   -0.282227
    18  C   -0.291113
    19  C   -0.106270
    20  C   -0.168785
    21  C   -0.370723
    22  C   -0.352689
    23  C   -0.109353
    24  C   -0.084047
    25  C    0.099133
    26  C    0.131146
    27  C   -0.361006
    28  C   -0.345007
    29  C   -0.116637
    30  C   -0.130487
    31  C   -0.091964
    32  C   -0.101265
    33  C   -0.066366
    34  C   -0.114121
    35  C    0.146291
    36  C    0.102287
    37  C   -0.371060
    38  C   -0.376433
    39  C   -0.155691
    40  C   -0.108626
    41  C   -0.095866
    42  C   -0.085167
    43  H    0.105973
    44  H    0.067730
    45  H    0.093289
    46  H    0.116573
    47  H    0.074765
    48  H    0.086744
    49  H    0.121964
    50  H    0.125369
    51  H    0.114371
    52  H    0.112278
    53  H    0.080881
    54  H    0.117625
    55  H    0.099507
    56  H    0.113659
    57  H    0.101791
    58  H    0.089902
    59  H    0.086219
    60  H    0.109359
    61  H    0.088649
    62  H    0.094310
    63  H    0.103545
    64  H    0.050678
    65  H    0.099072
    66  H    0.094149
    67  H    0.114697
    68  H    0.119975
    69  H    0.061405
    70  H    0.057052
    71  H    0.126461
    72  H    0.121498
    73  H    0.300042
    74  H    0.294312
    75  H    0.089304
    76  H    0.089480
    77  H    0.103981
    78  H    0.102726
    79  H    0.133665
    80  H    0.097047
    81  H    0.128597
    82  H    0.095325
    83  H    0.085443
    84  H    0.088400
    85  H    0.073469
    86  H    0.074824
    87  H    0.049374
    88  H    0.083065
    89  H    0.119389
    90  H    0.103675
    91  H    0.092781
    92  H    0.124036
    93  H    0.139193
    94  H    0.090199
    95  H    0.075235
    96  H    0.071703
    97  H    0.093925
    98  H    0.089971
 Sum of Mulliken charges =  -0.00000

 Dipole moment (field-independent basis, Debye):
    X=              0.0062    Y=             -0.7599    Z=              2.2317  Tot=              2.3575
 Quadrupole moment (field-independent basis, Debye-Ang):
   XX=           -292.4510   YY=           -245.7489   ZZ=           -261.6973
   XY=              8.9411   XZ=             -1.9978   YZ=              0.1715

 Normal termination of Gaussian 16 at Fri Jul  5 15:59:57 2019.
