 Gaussian 16, Revision A.03,
 Gaussian 16:  ES64L-G16RevA.03 25-Dec-2016

 -------------------------------------
 # td=(NStates=1) CAM-B3LYP/6-31G(d,p)
 -------------------------------------

 --
 TD
 --
 Symbolic Z-matrix:
 Charge =  0 Multiplicity = 1

                         Standard orientation:
 ---------------------------------------------------------------------
 Center     Atomic      Atomic             Coordinates (Angstroms)
 Number     Number       Type             X           Y           Z
 ---------------------------------------------------------------------
      1          8           0       14.836174   -2.061093   -0.386900
      2          8           0      -14.654023    2.063783    0.734979
      3          6           0       11.468685   -1.200025    1.166046
      4          6           0      -12.376506   -0.927462    0.787799
      5          6           0       12.953418   -1.482223    1.065426
      6          6           0      -13.658886   -0.140269    0.703586
      7          6           0       13.521351   -1.861326   -0.235599
      8          6           0      -13.401469    1.346552    0.741122
      9          6           0       11.011941   -0.407020    0.067670
     10          6           0      -11.312456   -0.287057   -0.017529
     11          6           0       13.021962   -0.786284   -1.286702
     12          6           0      -12.681431    1.837179   -0.464137
     13          6           0       11.688397   -0.067274   -1.086968
     14          6           0      -11.457355    0.894571   -0.645709
     15          6           0       11.133125   -0.483682    2.622717
     16          6           0       10.683866   -2.523847    1.119618
     17          6           0      -11.953760   -0.985796    2.316222
     18          6           0      -12.745317   -2.404225    0.293308
     19          6           0        9.606509    0.249809    0.125145
     20          6           0      -10.040703   -1.121486   -0.246529
     21          6           0       11.305522    0.863980   -2.164933
     22          6           0      -10.509748    1.557597   -1.754750
     23          6           0        9.395729    1.573397    0.014691
     24          6           0       -8.824674   -0.577380   -0.243678
     25          6           0        8.029770    2.219833    0.143066
     26          6           0       -7.612559   -1.275597   -0.567729
     27          6           0        8.112310    3.683834    0.594336
     28          6           0       -7.695994   -2.734009   -1.171092
     29          6           0        6.826605    1.608370   -0.066021
     30          6           0       -6.387898   -0.633847   -0.412720
     31          6           0        5.526227    2.089779    0.069690
     32          6           0       -5.119971   -1.222046   -0.490026
     33          6           0        4.354335    1.280194   -0.122559
     34          6           0       -4.002272   -0.452885   -0.231977
     35          6           0        3.019685    1.695560    0.075756
     36          6           0       -2.705883   -0.860662   -0.429101
     37          6           0        2.738433    3.009169    0.596822
     38          6           0       -2.402307   -2.288322   -0.767370
     39          6           0        2.063171    0.807692   -0.283700
     40          6           0       -1.632022    0.076745   -0.214470
     41          6           0        0.654844    0.923573   -0.113323
     42          6           0       -0.299840   -0.024235   -0.319527
     43          1           0       13.646058   -0.512968    1.302836
     44          1           0       13.017746   -2.554598    1.840796
     45          1           0      -14.307159   -0.371770    1.422045
     46          1           0      -14.281646   -0.469637   -0.295676
     47          1           0       12.907883   -2.818504   -0.458675
     48          1           0      -12.826197    1.589019    1.763508
     49          1           0       13.860978   -0.117960   -1.362730
     50          1           0       13.263786   -1.166497   -2.430902
     51          1           0      -13.318826    2.028045   -1.465575
     52          1           0      -12.419940    2.806756   -0.093818
     53          1           0       11.561897   -1.080945    3.324564
     54          1           0       10.120989   -0.512632    2.486063
     55          1           0       11.544649    0.626449    2.707761
     56          1           0       10.845409   -2.948096    0.090538
     57          1           0       11.177747   -3.503724    1.851327
     58          1           0        9.595088   -2.549073    1.169086
     59          1           0      -11.468284    0.179771    2.507495
     60          1           0      -11.161455   -1.659473    2.313713
     61          1           0      -12.988903   -1.387313    2.849661
     62          1           0      -13.664185   -2.699332    0.830534
     63          1           0      -11.891222   -3.170461    0.598649
     64          1           0      -12.740390   -2.526149   -0.917642
     65          1           0        8.802896   -0.537223    0.560115
     66          1           0      -10.130095   -2.221394   -0.286245
     67          1           0       10.186485    0.895421   -2.149802
     68          1           0       11.678962    1.954562   -1.953533
     69          1           0       11.677361    0.583441   -3.344535
     70          1           0      -11.108273    1.993461   -2.498981
     71          1           0       -9.756238    0.861150   -2.256086
     72          1           0      -10.024097    2.340994   -1.324864
     73          1           0       14.998680   -2.862039    0.053322
     74          1           0      -15.192361    1.924338    1.520925
     75          1           0       10.249264    2.164749   -0.254848
     76          1           0       -8.438994    0.465490   -0.185808
     77          1           0        8.599128    4.357014    0.142067
     78          1           0        7.133191    4.144553    0.295055
     79          1           0        8.578991    3.764607    1.668876
     80          1           0       -8.200244   -3.553333   -0.670696
     81          1           0       -8.448645   -2.840137   -1.815586
     82          1           0       -6.712363   -2.989716   -1.755228
     83          1           0        7.071221    0.521128   -0.508286
     84          1           0       -6.679062    0.215180    0.007341
     85          1           0        5.272030    3.057463    0.234523
     86          1           0       -5.044967   -2.126479   -1.152284
     87          1           0        4.633076    0.085989   -0.351006
     88          1           0       -4.368557    0.697161   -0.056212
     89          1           0        3.050219    3.021317    1.524135
     90          1           0        1.582452    3.314299    0.499668
     91          1           0        3.324150    3.929045    0.120904
     92          1           0       -3.263309   -2.882422   -0.221458
     93          1           0       -2.542703   -2.646948   -1.799023
     94          1           0       -1.428472   -2.574658   -0.587287
     95          1           0        2.650284    0.002896   -1.011987
     96          1           0       -1.962672    1.056838    0.286851
     97          1           0       -0.031377    1.858078    0.090876
     98          1           0        0.143813   -1.002488   -0.640323
 ---------------------------------------------------------------------

 SCF Done:  E(RCAM-B3LYP) =  -1706.81259868     A.U. after   15 cycles

 Excitation energies and oscillator strengths:

 Excited State   1:      Singlet-A      2.1772 eV  569.47 nm  f=3.7474  <S**2>=0.000
     155 ->158        -0.14040
     156 ->157         0.69493
 This state for optimization and/or second-order correction.
 Total Energy, E(TD-HF/TD-DFT) =  -1706.73258926
 Copying the excited state density for this state as the 1-particle RhoCI density.

 The electronic state is 1-A.
 Alpha  occ. eigenvalues --  -19.22437 -19.20179 -10.30770 -10.30660 -10.28321
 Alpha  occ. eigenvalues --  -10.28024 -10.27906 -10.27887 -10.27612 -10.27551
 Alpha  occ. eigenvalues --  -10.27466 -10.27464 -10.27442 -10.27422 -10.27410
 Alpha  occ. eigenvalues --  -10.27366 -10.27356 -10.27334 -10.27270 -10.27240
 Alpha  occ. eigenvalues --  -10.27017 -10.27005 -10.26792 -10.26674 -10.26654
 Alpha  occ. eigenvalues --  -10.26608 -10.26522 -10.26459 -10.26314 -10.26275
 Alpha  occ. eigenvalues --  -10.26030 -10.26004 -10.25758 -10.25741 -10.25707
 Alpha  occ. eigenvalues --  -10.25628 -10.25105 -10.24883 -10.24843 -10.24729
 Alpha  occ. eigenvalues --  -10.24308 -10.24124  -1.14123  -1.08059  -0.94268
 Alpha  occ. eigenvalues --   -0.93561  -0.92748  -0.92119  -0.90716  -0.89983
 Alpha  occ. eigenvalues --   -0.87899  -0.86744  -0.85976  -0.85280  -0.84833
 Alpha  occ. eigenvalues --   -0.82953  -0.82153  -0.80220  -0.79426  -0.78941
 Alpha  occ. eigenvalues --   -0.77817  -0.76698  -0.76376  -0.76295  -0.75510
 Alpha  occ. eigenvalues --   -0.75300  -0.74655  -0.74473  -0.74206  -0.71758
 Alpha  occ. eigenvalues --   -0.68870  -0.67213  -0.65745  -0.64698  -0.64102
 Alpha  occ. eigenvalues --   -0.64074  -0.63079  -0.61429  -0.60403  -0.59780
 Alpha  occ. eigenvalues --   -0.59635  -0.59339  -0.58050  -0.57525  -0.56540
 Alpha  occ. eigenvalues --   -0.55797  -0.55358  -0.54984  -0.54184  -0.53910
 Alpha  occ. eigenvalues --   -0.53424  -0.52664  -0.51890  -0.51351  -0.50672
 Alpha  occ. eigenvalues --   -0.50443  -0.50009  -0.49686  -0.48939  -0.48721
 Alpha  occ. eigenvalues --   -0.48558  -0.48415  -0.47901  -0.47788  -0.47577
 Alpha  occ. eigenvalues --   -0.47499  -0.47168  -0.46997  -0.46685  -0.46400
 Alpha  occ. eigenvalues --   -0.45907  -0.45669  -0.45433  -0.45088  -0.44961
 Alpha  occ. eigenvalues --   -0.44507  -0.44373  -0.43896  -0.43667  -0.43098
 Alpha  occ. eigenvalues --   -0.42653  -0.42338  -0.42149  -0.42035  -0.41843
 Alpha  occ. eigenvalues --   -0.41243  -0.41170  -0.40943  -0.40890  -0.40625
 Alpha  occ. eigenvalues --   -0.40196  -0.39951  -0.39710  -0.39419  -0.39248
 Alpha  occ. eigenvalues --   -0.39106  -0.39020  -0.38159  -0.37929  -0.37693
 Alpha  occ. eigenvalues --   -0.37458  -0.37100  -0.36045  -0.36010  -0.35475
 Alpha  occ. eigenvalues --   -0.35130  -0.34964  -0.33935  -0.32343  -0.31509
 Alpha  occ. eigenvalues --   -0.31460  -0.30040  -0.27926  -0.26734  -0.23862
 Alpha  occ. eigenvalues --   -0.19384
 Alpha virt. eigenvalues --   -0.06231  -0.00824   0.02881   0.05088   0.07250
 Alpha virt. eigenvalues --    0.08637   0.09582   0.10114   0.10611   0.11089
 Alpha virt. eigenvalues --    0.11809   0.12516   0.12787   0.13080   0.13387

 Mulliken charges:
               1
     1  O   -0.508767
     2  O   -0.579342
     3  C   -0.032191
     4  C   -0.041122
     5  C   -0.162712
     6  C   -0.151546
     7  C    0.179280
     8  C    0.156963
     9  C    0.058942
    10  C    0.078762
    11  C   -0.258891
    12  C   -0.193520
    13  C    0.112369
    14  C    0.012582
    15  C   -0.269062
    16  C   -0.305231
    17  C   -0.268993
    18  C   -0.299232
    19  C   -0.140817
    20  C   -0.161762
    21  C   -0.373573
    22  C   -0.353706
    23  C   -0.094136
    24  C   -0.062946
    25  C    0.060581
    26  C    0.089943
    27  C   -0.357489
    28  C   -0.376163
    29  C   -0.103519
    30  C   -0.113549
    31  C   -0.082285
    32  C   -0.093658
    33  C   -0.140283
    34  C   -0.108483
    35  C    0.168658
    36  C    0.116903
    37  C   -0.377819
    38  C   -0.376999
    39  C   -0.150672
    40  C   -0.139314
    41  C   -0.107304
    42  C   -0.047609
    43  H    0.081570
    44  H    0.030310
    45  H    0.077050
    46  H    0.075600
    47  H    0.046044
    48  H    0.067388
    49  H    0.118596
    50  H    0.079412
    51  H    0.113093
    52  H    0.121060
    53  H    0.116121
    54  H    0.114484
    55  H    0.090825
    56  H    0.115779
    57  H    0.058782
    58  H    0.116411
    59  H    0.085081
    60  H    0.120585
    61  H    0.082987
    62  H    0.107957
    63  H    0.077731
    64  H    0.099710
    65  H    0.080727
    66  H    0.086358
    67  H    0.134418
    68  H    0.113341
    69  H    0.085344
    70  H    0.111286
    71  H    0.109767
    72  H    0.125154
    73  H    0.308145
    74  H    0.298925
    75  H    0.101106
    76  H    0.089945
    77  H    0.128521
    78  H    0.094859
    79  H    0.110015
    80  H    0.110841
    81  H    0.123047
    82  H    0.097313
    83  H    0.076194
    84  H    0.062097
    85  H    0.079384
    86  H    0.095217
    87  H    0.073360
    88  H    0.086944
    89  H    0.146901
    90  H    0.104575
    91  H    0.105771
    92  H    0.110771
    93  H    0.119050
    94  H    0.122805
    95  H    0.090630
    96  H    0.070934
    97  H    0.078939
    98  H    0.068452
 Sum of Mulliken charges =  -0.00000

 Dipole moment (field-independent basis, Debye):
    X=              0.0410    Y=             -0.9683    Z=              0.8824  Tot=              1.3106
 Quadrupole moment (field-independent basis, Debye-Ang):
   XX=           -260.8977   YY=           -242.7841   ZZ=           -264.1914
   XY=              8.3443   XZ=             -5.3682   YZ=              3.2155

 Normal termination of Gaussian 16 at Mon Jul  1 13:24:25 2019.
