 Gaussian 16, Revision A.03,
 Gaussian 16:  ES64L-G16RevA.03 25-Dec-2016

 -------------------------------------
 # td=(NStates=1) CAM-B3LYP/6-31G(d,p)
 -------------------------------------

 --
 TD
 --
 Symbolic Z-matrix:
 Charge =  0 Multiplicity = 1

                         Standard orientation:
 ---------------------------------------------------------------------
 Center     Atomic      Atomic             Coordinates (Angstroms)
 Number     Number       Type             X           Y           Z
 ---------------------------------------------------------------------
      1          8           0       14.746898   -2.192233   -0.531073
      2          8           0      -14.863762    1.930576    0.646724
      3          6           0       11.423297   -1.167904    1.144940
      4          6           0      -12.367193   -0.816090    0.790814
      5          6           0       12.835367   -1.529984    0.963134
      6          6           0      -13.693438   -0.166724    0.704455
      7          6           0       13.348711   -1.979231   -0.386410
      8          6           0      -13.513558    1.339853    0.665078
      9          6           0       10.989982   -0.253747    0.062241
     10          6           0      -11.298613   -0.198285   -0.228519
     11          6           0       12.947431   -0.833986   -1.402016
     12          6           0      -12.848572    1.715800   -0.633145
     13          6           0       11.758362   -0.061129   -1.101074
     14          6           0      -11.626544    0.894580   -0.909597
     15          6           0       11.289699   -0.352769    2.544507
     16          6           0       10.596406   -2.349886    1.188787
     17          6           0      -11.787214   -0.780024    2.223416
     18          6           0      -12.572387   -2.398907    0.341700
     19          6           0        9.694166    0.397087    0.181888
     20          6           0      -10.037015   -1.048511   -0.463778
     21          6           0       11.288828    0.663709   -2.381374
     22          6           0      -10.649471    1.535300   -1.883631
     23          6           0        9.261211    1.692600   -0.051645
     24          6           0       -8.804344   -0.603374   -0.257846
     25          6           0        8.027704    2.333904    0.195997
     26          6           0       -7.547728   -1.291597   -0.491437
     27          6           0        8.106298    3.864683    0.465720
     28          6           0       -7.590848   -2.835124   -0.682504
     29          6           0        6.908108    1.539439   -0.065009
     30          6           0       -6.378842   -0.593950   -0.307234
     31          6           0        5.560687    1.990938    0.138104
     32          6           0       -5.094648   -1.120583   -0.377144
     33          6           0        4.461213    1.247327   -0.020846
     34          6           0       -3.986840   -0.368552   -0.323924
     35          6           0        3.084799    1.583693    0.149278
     36          6           0       -2.655645   -0.799068   -0.346764
     37          6           0        2.878027    2.971017    0.682883
     38          6           0       -2.348768   -2.229946   -0.856254
     39          6           0        2.071964    0.572987    0.021414
     40          6           0       -1.651208    0.040416   -0.108371
     41          6           0        0.616400    0.837456    0.135942
     42          6           0       -0.312404   -0.076401   -0.207960
     43          1           0       13.536613   -0.711681    1.250836
     44          1           0       13.378719   -2.367335    1.717751
     45          1           0      -14.173895   -0.532460    1.691822
     46          1           0      -14.258462   -0.501936   -0.299254
     47          1           0       12.900137   -2.921324   -0.798157
     48          1           0      -12.910903    1.576859    1.467216
     49          1           0       13.834393   -0.182206   -1.231781
     50          1           0       12.808109   -1.259929   -2.499863
     51          1           0      -13.766985    1.355017   -1.342222
     52          1           0      -12.886463    2.697832   -0.700225
     53          1           0       11.605472   -1.123802    3.438554
     54          1           0       10.368124   -0.090786    2.892507
     55          1           0       11.983686    0.478686    2.431195
     56          1           0       10.557548   -3.126876    0.352569
     57          1           0       10.826155   -3.186577    2.119334
     58          1           0        9.596275   -2.196132    1.365922
     59          1           0      -11.739905    0.289340    2.594523
     60          1           0      -10.923105   -1.246757    2.361375
     61          1           0      -12.438978   -1.399040    3.023480
     62          1           0      -13.617561   -2.734917    0.687378
     63          1           0      -11.569767   -2.839888    0.580166
     64          1           0      -12.397670   -2.429156   -0.770793
     65          1           0        9.000858   -0.128450    0.834696
     66          1           0      -10.175173   -2.036872   -0.667349
     67          1           0       10.120414    0.897304   -2.426819
     68          1           0       11.947495    1.528667   -2.624764
     69          1           0       11.707294    0.041553   -3.209579
     70          1           0      -11.228732    2.067706   -2.800467
     71          1           0       -9.867567    0.986182   -2.401936
     72          1           0      -10.031300    2.524971   -1.257086
     73          1           0       14.848245   -3.045032    0.000886
     74          1           0      -15.402001    1.403254    1.228292
     75          1           0       10.027040    2.396305   -0.478196
     76          1           0       -8.758166    0.359123    0.403264
     77          1           0        9.102728    4.170469   -0.102628
     78          1           0        7.215313    4.514035    0.267481
     79          1           0        8.488512    4.174302    1.335828
     80          1           0       -8.222533   -3.221076    0.055266
     81          1           0       -8.223174   -3.273515   -1.627451
     82          1           0       -6.644393   -3.476311   -0.909920
     83          1           0        7.069599    0.524598   -0.289200
     84          1           0       -6.512288    0.517640   -0.133889
     85          1           0        5.503502    3.101344    0.368906
     86          1           0       -5.137068   -2.384799   -0.393772
     87          1           0        4.800485    0.186282   -0.193037
     88          1           0       -4.066339    0.732439   -0.284867
     89          1           0        3.125503    2.951892    1.975156
     90          1           0        1.825179    3.270650    0.601249
     91          1           0        3.481734    3.946477    0.202369
     92          1           0       -2.476241   -3.057892   -0.012047
     93          1           0       -3.150241   -2.421899   -1.611495
     94          1           0       -1.309806   -2.217890   -1.415189
     95          1           0        2.584955   -0.404956   -0.228012
     96          1           0       -1.882767    0.999093    0.218121
     97          1           0        0.205606    1.774247    0.405457
     98          1           0       -0.043584   -1.043632   -0.769706
 ---------------------------------------------------------------------

 SCF Done:  E(RCAM-B3LYP) =  -1706.93827624     A.U. after   14 cycles

 Excitation energies and oscillator strengths:

 Excited State   1:      Singlet-A      2.4636 eV  503.26 nm  f=3.7364  <S**2>=0.000
     155 ->158         0.17227
     156 ->157         0.68036
 This state for optimization and/or second-order correction.
 Total Energy, E(TD-HF/TD-DFT) =  -1706.84774033
 Copying the excited state density for this state as the 1-particle RhoCI density.

 The electronic state is 1-A.
 Alpha  occ. eigenvalues --  -19.22335 -19.20533 -10.30884 -10.29513 -10.28760
 Alpha  occ. eigenvalues --  -10.28244 -10.28210 -10.28119 -10.28011 -10.28008
 Alpha  occ. eigenvalues --  -10.27869 -10.27730 -10.27567 -10.27369 -10.27315
 Alpha  occ. eigenvalues --  -10.27199 -10.27061 -10.26964 -10.26743 -10.26711
 Alpha  occ. eigenvalues --  -10.26699 -10.26640 -10.26554 -10.26538 -10.26457
 Alpha  occ. eigenvalues --  -10.26392 -10.26295 -10.26257 -10.26226 -10.26206
 Alpha  occ. eigenvalues --  -10.26199 -10.26014 -10.25893 -10.25847 -10.25841
 Alpha  occ. eigenvalues --  -10.25805 -10.25748 -10.25667 -10.25628 -10.25154
 Alpha  occ. eigenvalues --  -10.25020 -10.24359  -1.09676  -1.08025  -0.94769
 Alpha  occ. eigenvalues --   -0.93504  -0.93025  -0.91549  -0.91015  -0.89788
 Alpha  occ. eigenvalues --   -0.88022  -0.87485  -0.86464  -0.85703  -0.84635
 Alpha  occ. eigenvalues --   -0.83261  -0.82167  -0.79911  -0.79727  -0.77831
 Alpha  occ. eigenvalues --   -0.76807  -0.76371  -0.76258  -0.76079  -0.75336
 Alpha  occ. eigenvalues --   -0.75003  -0.74726  -0.74410  -0.73639  -0.71232
 Alpha  occ. eigenvalues --   -0.69649  -0.67552  -0.66090  -0.65060  -0.64696
 Alpha  occ. eigenvalues --   -0.63351  -0.62590  -0.61421  -0.60401  -0.59946
 Alpha  occ. eigenvalues --   -0.59370  -0.58904  -0.58855  -0.58030  -0.56659
 Alpha  occ. eigenvalues --   -0.55728  -0.55575  -0.54720  -0.54425  -0.53871
 Alpha  occ. eigenvalues --   -0.53340  -0.52619  -0.52512  -0.52045  -0.51449
 Alpha  occ. eigenvalues --   -0.50347  -0.50038  -0.49372  -0.49103  -0.49010
 Alpha  occ. eigenvalues --   -0.48816  -0.48432  -0.48182  -0.47731  -0.47617
 Alpha  occ. eigenvalues --   -0.47424  -0.46757  -0.46606  -0.46122  -0.45930
 Alpha  occ. eigenvalues --   -0.45691  -0.45301  -0.45078  -0.44716  -0.44560
 Alpha  occ. eigenvalues --   -0.44299  -0.43743  -0.43487  -0.43267  -0.42975
 Alpha  occ. eigenvalues --   -0.42938  -0.42701  -0.42305  -0.42249  -0.41921
 Alpha  occ. eigenvalues --   -0.41816  -0.41669  -0.41337  -0.40978  -0.40771
 Alpha  occ. eigenvalues --   -0.40621  -0.40504  -0.40198  -0.39788  -0.39579
 Alpha  occ. eigenvalues --   -0.39082  -0.38985  -0.38538  -0.38282  -0.37865
 Alpha  occ. eigenvalues --   -0.37790  -0.37621  -0.36975  -0.36833  -0.35750
 Alpha  occ. eigenvalues --   -0.35000  -0.34329  -0.33899  -0.32854  -0.32487
 Alpha  occ. eigenvalues --   -0.32160  -0.29788  -0.28391  -0.26465  -0.23690
 Alpha  occ. eigenvalues --   -0.20347
 Alpha virt. eigenvalues --   -0.05219  -0.01099   0.02342   0.05568   0.07139
 Alpha virt. eigenvalues --    0.08620   0.10379   0.10578   0.10795   0.11325
 Alpha virt. eigenvalues --    0.12167   0.12392   0.12686   0.13171   0.13447

 Mulliken charges:
               1
     1  O   -0.546563
     2  O   -0.575110
     3  C   -0.003330
     4  C   -0.005810
     5  C   -0.179904
     6  C   -0.205230
     7  C    0.150988
     8  C    0.167171
     9  C    0.068811
    10  C    0.020783
    11  C   -0.247228
    12  C   -0.210456
    13  C    0.072802
    14  C    0.098855
    15  C   -0.292496
    16  C   -0.289941
    17  C   -0.293754
    18  C   -0.326504
    19  C   -0.128453
    20  C   -0.132910
    21  C   -0.360636
    22  C   -0.335500
    23  C   -0.130222
    24  C   -0.097391
    25  C    0.096688
    26  C    0.111614
    27  C   -0.374214
    28  C   -0.382207
    29  C   -0.118514
    30  C   -0.112604
    31  C   -0.059503
    32  C   -0.078501
    33  C   -0.124760
    34  C   -0.121269
    35  C    0.119542
    36  C    0.123266
    37  C   -0.348184
    38  C   -0.363072
    39  C   -0.128915
    40  C   -0.114595
    41  C   -0.112766
    42  C   -0.042525
    43  H    0.105283
    44  H    0.044570
    45  H    0.078818
    46  H    0.092059
    47  H    0.074806
    48  H    0.093170
    49  H    0.129118
    50  H    0.099784
    51  H    0.100026
    52  H    0.122216
    53  H    0.074328
    54  H    0.120334
    55  H    0.112564
    56  H    0.101999
    57  H    0.059140
    58  H    0.116078
    59  H    0.097613
    60  H    0.120996
    61  H    0.071110
    62  H    0.109362
    63  H    0.101467
    64  H    0.108068
    65  H    0.079535
    66  H    0.077300
    67  H    0.119615
    68  H    0.114652
    69  H    0.101138
    70  H    0.084582
    71  H    0.129483
    72  H    0.063697
    73  H    0.310183
    74  H    0.304569
    75  H    0.081103
    76  H    0.092048
    77  H    0.097752
    78  H    0.120231
    79  H    0.143512
    80  H    0.136454
    81  H    0.092169
    82  H    0.113429
    83  H    0.087880
    84  H    0.085396
    85  H    0.068341
    86  H    0.075723
    87  H    0.068639
    88  H    0.088942
    89  H    0.089734
    90  H    0.110234
    91  H    0.098860
    92  H    0.111213
    93  H    0.115859
    94  H    0.104784
    95  H    0.096975
    96  H    0.059822
    97  H    0.092578
    98  H    0.063209
 Sum of Mulliken charges =  -0.00000

 Dipole moment (field-independent basis, Debye):
    X=              0.5116    Y=             -1.8706    Z=              1.6541  Tot=              2.5489
 Quadrupole moment (field-independent basis, Debye-Ang):
   XX=           -287.8968   YY=           -244.9793   ZZ=           -263.8932
   XY=             18.0272   XZ=             -2.4123   YZ=              2.3434

 Normal termination of Gaussian 16 at Fri Jun 28 12:28:16 2019.
