 Gaussian 16, Revision A.03,
 Gaussian 16:  ES64L-G16RevA.03 25-Dec-2016

 -------------------------------------
 # td=(NStates=1) CAM-B3LYP/6-31G(d,p)
 -------------------------------------

 --
 TD
 --
 Symbolic Z-matrix:
 Charge =  0 Multiplicity = 1

                         Standard orientation:
 ---------------------------------------------------------------------
 Center     Atomic      Atomic             Coordinates (Angstroms)
 Number     Number       Type             X           Y           Z
 ---------------------------------------------------------------------
      1          8           0       14.712462   -2.030004   -0.402304
      2          8           0      -14.685522    2.109835    0.568862
      3          6           0       11.459475   -1.113259    1.200432
      4          6           0      -12.311954   -0.856906    0.889593
      5          6           0       13.034079   -1.329743    1.192592
      6          6           0      -13.670082   -0.132447    0.822695
      7          6           0       13.384765   -1.725624   -0.220898
      8          6           0      -13.531461    1.315285    0.839189
      9          6           0       11.036812   -0.265187    0.043706
     10          6           0      -11.285561   -0.259054   -0.156691
     11          6           0       13.119357   -0.720049   -1.261788
     12          6           0      -12.737744    1.852949   -0.417784
     13          6           0       11.760388    0.017281   -1.022530
     14          6           0      -11.501751    0.980656   -0.739246
     15          6           0       11.127441   -0.369716    2.546453
     16          6           0       10.767379   -2.422680    1.239719
     17          6           0      -11.672303   -0.872305    2.261528
     18          6           0      -12.589975   -2.392420    0.484157
     19          6           0        9.615938    0.318915    0.099598
     20          6           0      -10.068107   -1.087870   -0.393640
     21          6           0       11.315197    0.696379   -2.302695
     22          6           0      -10.583069    1.624876   -1.680973
     23          6           0        9.241023    1.614537   -0.027733
     24          6           0       -8.813388   -0.590787   -0.137677
     25          6           0        7.989443    2.116138    0.077430
     26          6           0       -7.535523   -1.402112   -0.475231
     27          6           0        8.014192    3.585350    0.501332
     28          6           0       -7.742937   -2.828170   -1.063418
     29          6           0        6.816643    1.357627   -0.011830
     30          6           0       -6.463675   -0.772558   -0.287802
     31          6           0        5.564043    1.904686    0.080206
     32          6           0       -5.082357   -1.345482   -0.543241
     33          6           0        4.383515    1.159043   -0.106633
     34          6           0       -4.061477   -0.454604   -0.285167
     35          6           0        2.992958    1.530567    0.116157
     36          6           0       -2.627121   -0.794009   -0.556874
     37          6           0        2.662905    2.899418    0.624601
     38          6           0       -2.324959   -2.166058   -1.186244
     39          6           0        2.052710    0.693074   -0.131874
     40          6           0       -1.683103    0.111568   -0.349535
     41          6           0        0.602008    0.756356   -0.045596
     42          6           0       -0.259958   -0.150831   -0.459836
     43          1           0       13.706642   -0.523242    1.360422
     44          1           0       13.240349   -2.342426    1.750244
     45          1           0      -14.410327   -0.258642    1.601742
     46          1           0      -14.256032   -0.455878   -0.061045
     47          1           0       12.844557   -2.604304   -0.304684
     48          1           0      -13.028041    1.833784    1.576088
     49          1           0       13.944978   -0.108652   -1.521380
     50          1           0       13.016278   -1.216530   -2.238445
     51          1           0      -13.437511    1.859413   -1.297358
     52          1           0      -12.530423    2.907865   -0.455500
     53          1           0       11.487508   -0.879393    3.503974
     54          1           0       10.257272   -0.138255    2.610664
     55          1           0       11.593483    0.728316    2.601743
     56          1           0       11.168051   -3.055676    0.417184
     57          1           0       10.878700   -3.073614    2.180599
     58          1           0        9.569200   -2.151062    1.133687
     59          1           0      -11.664431    0.092529    2.561392
     60          1           0      -10.542021   -1.089060    2.220312
     61          1           0      -12.454311   -1.571686    2.949109
     62          1           0      -13.182552   -2.911843    1.093295
     63          1           0      -11.741457   -3.014864    0.565972
     64          1           0      -12.951927   -2.273421   -0.573096
     65          1           0        8.846050   -0.266495    0.349909
     66          1           0      -10.176205   -2.180575   -0.387186
     67          1           0       10.239715    0.920360   -2.282722
     68          1           0       11.504555    1.978579   -2.307772
     69          1           0       11.802598    0.209726   -3.188059
     70          1           0      -10.988422    2.076877   -2.724255
     71          1           0       -9.833100    1.036094   -2.091900
     72          1           0       -9.986981    2.573358   -1.425855
     73          1           0       15.249915   -2.363459    0.437654
     74          1           0      -15.233158    2.001119    1.536443
     75          1           0       10.071748    2.335403   -0.441432
     76          1           0       -8.493909    0.413123    0.114462
     77          1           0        8.519030    4.340958   -0.252928
     78          1           0        6.998624    3.808339    0.547982
     79          1           0        8.402617    3.720418    1.538424
     80          1           0       -8.443239   -3.265141   -0.305562
     81          1           0       -8.448358   -2.931617   -2.070763
     82          1           0       -6.853384   -3.308875   -1.099133
     83          1           0        7.032175    0.457498   -0.530384
     84          1           0       -6.549890    0.225370    0.089432
     85          1           0        5.363247    2.822231    0.527547
     86          1           0       -5.053343   -2.315128   -0.901555
     87          1           0        4.598611    0.143219   -0.619884
     88          1           0       -4.320555    0.480612    0.167051
     89          1           0        3.374623    3.336790    1.593087
     90          1           0        1.598631    3.054605    0.785221
     91          1           0        2.811136    3.731133   -0.079056
     92          1           0       -2.665149   -3.081975   -0.507780
     93          1           0       -2.758175   -2.167311   -2.160355
     94          1           0       -1.351282   -2.548707   -1.253713
     95          1           0        2.495813   -0.079427   -0.436929
     96          1           0       -1.981818    0.989932   -0.094125
     97          1           0        0.107604    1.836987    0.148181
     98          1           0        0.034182   -1.273038   -0.608120
 ---------------------------------------------------------------------

 SCF Done:  E(RCAM-B3LYP) =  -1706.88731650     A.U. after   14 cycles

 Excitation energies and oscillator strengths:

 Excited State   1:      Singlet-A      2.9209 eV  424.47 nm  f=3.2132  <S**2>=0.000
     155 ->158         0.16511
     156 ->157         0.67900
 This state for optimization and/or second-order correction.
 Total Energy, E(TD-HF/TD-DFT) =  -1706.77997474
 Copying the excited state density for this state as the 1-particle RhoCI density.

 The electronic state is 1-A.
 Alpha  occ. eigenvalues --  -19.22222 -19.20497 -10.29081 -10.28069 -10.28040
 Alpha  occ. eigenvalues --  -10.27859 -10.27331 -10.27263 -10.27039 -10.26920
 Alpha  occ. eigenvalues --  -10.26910 -10.26828 -10.26748 -10.26734 -10.26719
 Alpha  occ. eigenvalues --  -10.26660 -10.26659 -10.26610 -10.26588 -10.26587
 Alpha  occ. eigenvalues --  -10.26525 -10.26491 -10.26280 -10.26124 -10.26079
 Alpha  occ. eigenvalues --  -10.25936 -10.25795 -10.25697 -10.25636 -10.25613
 Alpha  occ. eigenvalues --  -10.25386 -10.25361 -10.25361 -10.25184 -10.24876
 Alpha  occ. eigenvalues --  -10.24758 -10.24393 -10.24384 -10.24137 -10.23765
 Alpha  occ. eigenvalues --  -10.23622 -10.23563  -1.08853  -1.07814  -0.93941
 Alpha  occ. eigenvalues --   -0.92870  -0.92535  -0.91961  -0.91438  -0.90410
 Alpha  occ. eigenvalues --   -0.87136  -0.86714  -0.86253  -0.85505  -0.84292
 Alpha  occ. eigenvalues --   -0.83306  -0.81914  -0.79954  -0.79693  -0.78193
 Alpha  occ. eigenvalues --   -0.77141  -0.76769  -0.76655  -0.76491  -0.75987
 Alpha  occ. eigenvalues --   -0.75786  -0.75518  -0.75124  -0.74249  -0.70549
 Alpha  occ. eigenvalues --   -0.69059  -0.66973  -0.66153  -0.65498  -0.64457
 Alpha  occ. eigenvalues --   -0.64225  -0.63013  -0.62254  -0.61689  -0.60440
 Alpha  occ. eigenvalues --   -0.59215  -0.58880  -0.58546  -0.58107  -0.56561
 Alpha  occ. eigenvalues --   -0.55857  -0.55086  -0.54842  -0.54702  -0.54069
 Alpha  occ. eigenvalues --   -0.53074  -0.52898  -0.52063  -0.51957  -0.51417
 Alpha  occ. eigenvalues --   -0.50870  -0.50363  -0.50233  -0.49766  -0.49044
 Alpha  occ. eigenvalues --   -0.48456  -0.48290  -0.48117  -0.47845  -0.47435
 Alpha  occ. eigenvalues --   -0.47305  -0.46719  -0.46397  -0.46294  -0.46040
 Alpha  occ. eigenvalues --   -0.45947  -0.45677  -0.45601  -0.45441  -0.45325
 Alpha  occ. eigenvalues --   -0.44814  -0.44336  -0.44146  -0.43832  -0.43238
 Alpha  occ. eigenvalues --   -0.42928  -0.42570  -0.42450  -0.42170  -0.42080
 Alpha  occ. eigenvalues --   -0.41631  -0.41533  -0.41367  -0.41180  -0.40936
 Alpha  occ. eigenvalues --   -0.40459  -0.40026  -0.39819  -0.39300  -0.39177
 Alpha  occ. eigenvalues --   -0.38970  -0.38779  -0.38190  -0.38098  -0.38043
 Alpha  occ. eigenvalues --   -0.37985  -0.37484  -0.36349  -0.36172  -0.35512
 Alpha  occ. eigenvalues --   -0.34915  -0.34311  -0.33610  -0.33047  -0.32204
 Alpha  occ. eigenvalues --   -0.30706  -0.29996  -0.28772  -0.26570  -0.24154
 Alpha  occ. eigenvalues --   -0.21313
 Alpha virt. eigenvalues --   -0.03829  -0.00236   0.03098   0.05859   0.07638
 Alpha virt. eigenvalues --    0.09192   0.09539   0.10738   0.11385   0.11892
 Alpha virt. eigenvalues --    0.12255   0.12568   0.12820   0.13005   0.13646

 Mulliken charges:
               1
     1  O   -0.591143
     2  O   -0.554258
     3  C   -0.017362
     4  C   -0.017327
     5  C   -0.201151
     6  C   -0.164238
     7  C    0.209966
     8  C    0.153203
     9  C    0.078033
    10  C    0.020563
    11  C   -0.232358
    12  C   -0.238418
    13  C    0.064447
    14  C    0.091210
    15  C   -0.271820
    16  C   -0.296520
    17  C   -0.281266
    18  C   -0.305462
    19  C   -0.138644
    20  C   -0.153969
    21  C   -0.353207
    22  C   -0.385192
    23  C   -0.085088
    24  C   -0.082785
    25  C    0.064883
    26  C    0.114508
    27  C   -0.357513
    28  C   -0.350093
    29  C   -0.103336
    30  C   -0.137739
    31  C   -0.072529
    32  C   -0.079008
    33  C   -0.163295
    34  C   -0.120160
    35  C    0.161416
    36  C    0.091306
    37  C   -0.384554
    38  C   -0.370888
    39  C   -0.085011
    40  C   -0.087321
    41  C   -0.093743
    42  C   -0.065310
    43  H    0.103184
    44  H    0.070428
    45  H    0.076634
    46  H    0.111659
    47  H    0.072938
    48  H    0.099282
    49  H    0.124942
    50  H    0.109874
    51  H    0.116595
    52  H    0.110322
    53  H    0.088830
    54  H    0.107994
    55  H    0.073794
    56  H    0.109001
    57  H    0.102373
    58  H    0.084251
    59  H    0.108844
    60  H    0.107743
    61  H    0.071197
    62  H    0.103967
    63  H    0.096164
    64  H    0.101068
    65  H    0.077659
    66  H    0.090647
    67  H    0.128127
    68  H    0.067085
    69  H    0.114513
    70  H    0.080971
    71  H    0.126101
    72  H    0.103426
    73  H    0.301522
    74  H    0.278958
    75  H    0.075734
    76  H    0.089155
    77  H    0.106496
    78  H    0.110728
    79  H    0.124074
    80  H    0.116387
    81  H    0.108991
    82  H    0.109835
    83  H    0.092520
    84  H    0.073576
    85  H    0.085832
    86  H    0.092975
    87  H    0.072505
    88  H    0.091703
    89  H    0.080749
    90  H    0.111016
    91  H    0.121296
    92  H    0.092564
    93  H    0.134383
    94  H    0.115070
    95  H    0.046809
    96  H    0.059858
    97  H    0.072474
    98  H    0.086354
 Sum of Mulliken charges =  -0.00000

 Dipole moment (field-independent basis, Debye):
    X=             -0.0883    Y=             -1.0787    Z=              2.0678  Tot=              2.3339
 Quadrupole moment (field-independent basis, Debye-Ang):
   XX=           -272.2048   YY=           -246.9340   ZZ=           -260.5817
   XY=              9.2480   XZ=             -5.3028   YZ=              1.5538

 Normal termination of Gaussian 16 at Sun Jun 30 08:03:42 2019.
