 Gaussian 16, Revision A.03,
 Gaussian 16:  ES64L-G16RevA.03 25-Dec-2016

 -------------------------------------
 # td=(NStates=1) CAM-B3LYP/6-31G(d,p)
 -------------------------------------

 --
 TD
 --
 Symbolic Z-matrix:
 Charge =  0 Multiplicity = 1

                         Standard orientation:
 ---------------------------------------------------------------------
 Center     Atomic      Atomic             Coordinates (Angstroms)
 Number     Number       Type             X           Y           Z
 ---------------------------------------------------------------------
      1          8           0       14.656269   -2.219985   -0.354793
      2          8           0      -14.723088    2.020254    0.775743
      3          6           0       11.442669   -1.052787    1.267702
      4          6           0      -12.265961   -0.939493    0.825547
      5          6           0       12.841869   -1.376603    1.185127
      6          6           0      -13.705394   -0.322317    0.774829
      7          6           0       13.314450   -1.947178   -0.285967
      8          6           0      -13.455379    1.265134    0.786235
      9          6           0       10.927145   -0.391257    0.011516
     10          6           0      -11.352098   -0.321469   -0.111053
     11          6           0       12.933373   -0.923129   -1.360771
     12          6           0      -12.719653    1.767375   -0.433979
     13          6           0       11.583497   -0.365106   -1.190669
     14          6           0      -11.561690    0.871636   -0.746109
     15          6           0       11.264129   -0.116961    2.511858
     16          6           0       10.655868   -2.384478    1.558557
     17          6           0      -11.704201   -0.861943    2.262053
     18          6           0      -12.482625   -2.421066    0.533900
     19          6           0        9.589559    0.347905    0.232241
     20          6           0      -10.019089   -1.067079   -0.368023
     21          6           0       11.020915    0.228690   -2.441847
     22          6           0      -10.668979    1.600349   -1.791861
     23          6           0        9.312930    1.598947   -0.056558
     24          6           0       -8.811955   -0.593089   -0.272990
     25          6           0        8.034971    2.262214    0.122606
     26          6           0       -7.640028   -1.358747   -0.562431
     27          6           0        8.038234    3.757813    0.350011
     28          6           0       -7.609694   -2.807192   -1.123118
     29          6           0        6.936862    1.493028   -0.037837
     30          6           0       -6.442482   -0.702076   -0.245831
     31          6           0        5.529821    2.048654    0.078277
     32          6           0       -4.982895   -1.118930   -0.504891
     33          6           0        4.370527    1.321896   -0.166914
     34          6           0       -3.935278   -0.404083   -0.388365
     35          6           0        3.080252    1.791546    0.039409
     36          6           0       -2.529016   -0.801518   -0.497129
     37          6           0        2.780158    3.178006    0.441881
     38          6           0       -2.187017   -2.209064   -0.896334
     39          6           0        2.113272    0.831269   -0.142342
     40          6           0       -1.618961    0.226489   -0.232792
     41          6           0        0.612831    1.007904   -0.132359
     42          6           0       -0.231503   -0.023970   -0.368063
     43          1           0       13.409581   -0.546098    1.405401
     44          1           0       13.245654   -1.971987    1.994633
     45          1           0      -14.253891   -0.567423    1.557408
     46          1           0      -14.146407   -0.496655   -0.274352
     47          1           0       12.639294   -2.912067   -0.297477
     48          1           0      -12.952317    1.540654    1.568662
     49          1           0       13.815589   -0.212104   -1.331093
     50          1           0       13.223308   -1.308609   -2.440731
     51          1           0      -13.766391    1.525364   -1.101033
     52          1           0      -12.557055    2.899848   -0.496547
     53          1           0       11.557793   -0.629808    3.474341
     54          1           0       10.220686    0.259332    2.628899
     55          1           0       11.789412    0.810778    2.504813
     56          1           0       10.812773   -3.231542    0.787532
     57          1           0       10.967134   -2.909817    2.498540
     58          1           0        9.568202   -2.226595    1.504910
     59          1           0      -11.701414    0.200595    2.927450
     60          1           0      -10.714429   -1.387301    2.301964
     61          1           0      -12.223835   -1.388794    3.041034
     62          1           0      -13.366776   -2.827823    0.999100
     63          1           0      -11.646612   -3.044254    0.708162
     64          1           0      -12.761810   -2.456267   -0.560740
     65          1           0        8.874094   -0.379153    0.755866
     66          1           0      -10.211652   -2.290100   -0.800408
     67          1           0       10.025162    0.272161   -2.353265
     68          1           0       11.627835    1.226638   -2.469219
     69          1           0       11.339531   -0.168078   -3.307171
     70          1           0      -11.190719    2.200977   -2.599925
     71          1           0      -10.021449    0.866596   -2.114499
     72          1           0      -10.170353    2.428672   -1.500175
     73          1           0       15.042927   -2.499342    0.521792
     74          1           0      -15.379706    1.541696    1.454824
     75          1           0        9.826554    2.454463   -0.509786
     76          1           0       -8.718323    0.541988   -0.162994
     77          1           0        8.852519    4.279348   -0.159342
     78          1           0        7.131526    4.275412    0.285050
     79          1           0        8.415160    3.955389    1.392750
     80          1           0       -7.881322   -3.486025   -0.309309
     81          1           0       -8.352415   -2.818509   -2.011460
     82          1           0       -6.693155   -3.308074   -1.453709
     83          1           0        6.913674    0.513260   -0.586422
     84          1           0       -6.500942    0.258552    0.402337
     85          1           0        5.424466    2.978343    0.575471
     86          1           0       -5.021238   -2.244113   -0.459558
     87          1           0        4.470926    0.187563   -0.455707
     88          1           0       -3.842434    0.499464   -0.225359
     89          1           0        3.285215    3.303750    1.421941
     90          1           0        1.796707    3.508824    0.580256
     91          1           0        3.275366    3.728614   -0.385209
     92          1           0       -2.648107   -2.903236   -0.168164
     93          1           0       -2.761665   -2.526425   -1.987480
     94          1           0       -1.146815   -2.501186   -0.871728
     95          1           0        2.469668   -0.100790   -0.362323
     96          1           0       -1.948264    1.236269   -0.066782
     97          1           0        0.154705    1.883265    0.102885
     98          1           0        0.181989   -0.973696   -0.682757
 ---------------------------------------------------------------------

 SCF Done:  E(RCAM-B3LYP) =  -1706.96658636     A.U. after   14 cycles

 Excitation energies and oscillator strengths:

 Excited State   1:      Singlet-A      2.9263 eV  423.70 nm  f=3.4736  <S**2>=0.000
     155 ->158         0.16519
     156 ->157         0.68096
 This state for optimization and/or second-order correction.
 Total Energy, E(TD-HF/TD-DFT) =  -1706.85904835
 Copying the excited state density for this state as the 1-particle RhoCI density.

 The electronic state is 1-A.
 Alpha  occ. eigenvalues --  -19.21712 -19.20805 -10.31153 -10.28519 -10.27850
 Alpha  occ. eigenvalues --  -10.27555 -10.27377 -10.27335 -10.27131 -10.27120
 Alpha  occ. eigenvalues --  -10.27081 -10.27047 -10.26754 -10.26737 -10.26695
 Alpha  occ. eigenvalues --  -10.26468 -10.26433 -10.26397 -10.26389 -10.26315
 Alpha  occ. eigenvalues --  -10.26037 -10.26028 -10.26008 -10.25940 -10.25909
 Alpha  occ. eigenvalues --  -10.25903 -10.25853 -10.25834 -10.25831 -10.25724
 Alpha  occ. eigenvalues --  -10.25624 -10.25596 -10.25457 -10.25432 -10.25374
 Alpha  occ. eigenvalues --  -10.25361 -10.24385 -10.24375 -10.23738 -10.23654
 Alpha  occ. eigenvalues --  -10.23563 -10.23421  -1.10216  -1.05653  -0.93794
 Alpha  occ. eigenvalues --   -0.93420  -0.92313  -0.91657  -0.90616  -0.89983
 Alpha  occ. eigenvalues --   -0.87582  -0.87415  -0.86680  -0.84210  -0.83716
 Alpha  occ. eigenvalues --   -0.82300  -0.81354  -0.79898  -0.79817  -0.78324
 Alpha  occ. eigenvalues --   -0.77010  -0.76995  -0.76537  -0.75941  -0.75736
 Alpha  occ. eigenvalues --   -0.75478  -0.75315  -0.75142  -0.73955  -0.70566
 Alpha  occ. eigenvalues --   -0.68922  -0.67292  -0.66307  -0.65197  -0.64505
 Alpha  occ. eigenvalues --   -0.64322  -0.63333  -0.62046  -0.60289  -0.59724
 Alpha  occ. eigenvalues --   -0.58793  -0.58328  -0.57925  -0.57535  -0.56608
 Alpha  occ. eigenvalues --   -0.55380  -0.54823  -0.54612  -0.54113  -0.53620
 Alpha  occ. eigenvalues --   -0.52982  -0.52760  -0.51958  -0.51642  -0.50735
 Alpha  occ. eigenvalues --   -0.50318  -0.50211  -0.49959  -0.49716  -0.49312
 Alpha  occ. eigenvalues --   -0.48951  -0.48522  -0.48435  -0.48092  -0.47814
 Alpha  occ. eigenvalues --   -0.47613  -0.47244  -0.46997  -0.46808  -0.46642
 Alpha  occ. eigenvalues --   -0.45842  -0.45704  -0.45462  -0.45349  -0.45085
 Alpha  occ. eigenvalues --   -0.44714  -0.44524  -0.44301  -0.44004  -0.43752
 Alpha  occ. eigenvalues --   -0.43597  -0.43514  -0.42772  -0.42753  -0.41698
 Alpha  occ. eigenvalues --   -0.41515  -0.41418  -0.41360  -0.41187  -0.40498
 Alpha  occ. eigenvalues --   -0.40071  -0.40021  -0.39721  -0.39525  -0.39280
 Alpha  occ. eigenvalues --   -0.39241  -0.38757  -0.38466  -0.38014  -0.37466
 Alpha  occ. eigenvalues --   -0.37101  -0.36028  -0.35959  -0.35795  -0.35602
 Alpha  occ. eigenvalues --   -0.35149  -0.34872  -0.34161  -0.31474  -0.31333
 Alpha  occ. eigenvalues --   -0.30482  -0.28897  -0.27570  -0.26319  -0.24410
 Alpha  occ. eigenvalues --   -0.20868
 Alpha virt. eigenvalues --   -0.03415   0.00472   0.03266   0.05861   0.07082
 Alpha virt. eigenvalues --    0.08960   0.11464   0.11609   0.11928   0.12511
 Alpha virt. eigenvalues --    0.12643   0.12931   0.13080   0.13418   0.14063

 Mulliken charges:
               1
     1  O   -0.558575
     2  O   -0.586081
     3  C    0.011074
     4  C   -0.024355
     5  C   -0.217980
     6  C   -0.183035
     7  C    0.199959
     8  C    0.161863
     9  C    0.037618
    10  C    0.056409
    11  C   -0.235850
    12  C   -0.228567
    13  C    0.063404
    14  C    0.074616
    15  C   -0.314937
    16  C   -0.305801
    17  C   -0.304678
    18  C   -0.305249
    19  C   -0.162556
    20  C   -0.156873
    21  C   -0.333801
    22  C   -0.368825
    23  C   -0.048335
    24  C   -0.070019
    25  C    0.076726
    26  C    0.104503
    27  C   -0.381742
    28  C   -0.370164
    29  C   -0.125846
    30  C   -0.157523
    31  C   -0.127512
    32  C   -0.124078
    33  C   -0.121607
    34  C    0.007255
    35  C    0.142515
    36  C    0.092428
    37  C   -0.366303
    38  C   -0.366079
    39  C   -0.146594
    40  C   -0.151366
    41  C   -0.086538
    42  C   -0.054975
    43  H    0.096838
    44  H    0.071049
    45  H    0.090587
    46  H    0.098925
    47  H    0.056350
    48  H    0.095073
    49  H    0.117084
    50  H    0.093364
    51  H    0.094087
    52  H    0.110645
    53  H    0.089132
    54  H    0.103766
    55  H    0.109543
    56  H    0.094965
    57  H    0.099548
    58  H    0.098261
    59  H    0.072666
    60  H    0.110128
    61  H    0.103459
    62  H    0.103365
    63  H    0.109031
    64  H    0.096446
    65  H    0.099158
    66  H    0.064572
    67  H    0.122850
    68  H    0.099753
    69  H    0.117652
    70  H    0.103176
    71  H    0.120702
    72  H    0.126226
    73  H    0.315266
    74  H    0.297366
    75  H    0.085149
    76  H    0.106734
    77  H    0.119314
    78  H    0.127610
    79  H    0.118409
    80  H    0.126839
    81  H    0.111624
    82  H    0.120627
    83  H    0.091119
    84  H    0.076597
    85  H    0.079038
    86  H    0.081002
    87  H    0.079752
    88  H    0.037288
    89  H    0.121949
    90  H    0.118533
    91  H    0.122158
    92  H    0.121939
    93  H    0.095515
    94  H    0.113764
    95  H    0.068542
    96  H    0.096991
    97  H    0.069115
    98  H    0.086831
 Sum of Mulliken charges =  -0.00000

 Dipole moment (field-independent basis, Debye):
    X=              0.8593    Y=             -0.7739    Z=              2.3480  Tot=              2.6173
 Quadrupole moment (field-independent basis, Debye-Ang):
   XX=           -267.2806   YY=           -245.6971   ZZ=           -259.6016
   XY=             29.8580   XZ=              1.6727   YZ=             -1.4553

 Normal termination of Gaussian 16 at Sat Jun 29 21:11:53 2019.
