 Gaussian 16, Revision A.03,
 Gaussian 16:  ES64L-G16RevA.03 25-Dec-2016

 -------------------------------------
 # td=(NStates=1) CAM-B3LYP/6-31G(d,p)
 -------------------------------------

 --
 TD
 --
 Symbolic Z-matrix:
 Charge =  0 Multiplicity = 1

                         Standard orientation:
 ---------------------------------------------------------------------
 Center     Atomic      Atomic             Coordinates (Angstroms)
 Number     Number       Type             X           Y           Z
 ---------------------------------------------------------------------
      1          8           0       14.610026   -2.274724   -0.383172
      2          8           0      -14.888565    1.778865    0.755089
      3          6           0       11.407464   -1.108646    1.143351
      4          6           0      -12.348911   -1.020616    0.766711
      5          6           0       12.943328   -1.469756    1.134571
      6          6           0      -13.693497   -0.292188    0.773305
      7          6           0       13.347202   -1.918563   -0.338700
      8          6           0      -13.597930    1.136154    0.720001
      9          6           0       10.910390   -0.271813    0.001337
     10          6           0      -11.324040   -0.287027   -0.257707
     11          6           0       13.005343   -0.908604   -1.260553
     12          6           0      -12.886600    1.626647   -0.541729
     13          6           0       11.678473   -0.216371   -1.144097
     14          6           0      -11.616706    0.909731   -0.849408
     15          6           0       11.300976   -0.341005    2.510012
     16          6           0       10.620731   -2.411696    1.376419
     17          6           0      -11.691294   -0.932652    2.039192
     18          6           0      -12.446785   -2.496705    0.267015
     19          6           0        9.691590    0.388871    0.215440
     20          6           0      -10.091145   -0.957998   -0.484758
     21          6           0       11.332549    0.429963   -2.516401
     22          6           0      -10.625729    1.727265   -1.664327
     23          6           0        9.370234    1.628486   -0.113689
     24          6           0       -8.842773   -0.528312   -0.161181
     25          6           0        8.092424    2.273190    0.009254
     26          6           0       -7.570905   -1.208737   -0.397555
     27          6           0        8.077567    3.677913    0.347943
     28          6           0       -7.638365   -2.629122   -1.218295
     29          6           0        6.880698    1.596770   -0.157690
     30          6           0       -6.370441   -0.551082   -0.226470
     31          6           0        5.509812    2.050736    0.051700
     32          6           0       -5.031947   -1.126009   -0.487908
     33          6           0        4.407966    1.288104   -0.029599
     34          6           0       -3.940739   -0.339359   -0.248206
     35          6           0        3.089407    1.668871    0.209571
     36          6           0       -2.538013   -0.761373   -0.427666
     37          6           0        2.818289    3.097772    0.617686
     38          6           0       -2.320495   -2.116817   -0.881642
     39          6           0        2.024498    0.839273   -0.093786
     40          6           0       -1.644382    0.070773    0.099640
     41          6           0        0.573350    0.939675    0.176637
     42          6           0       -0.170183   -0.071870    0.001948
     43          1           0       13.672543   -0.637779    1.260548
     44          1           0       12.954337   -2.450297    1.662625
     45          1           0      -14.236065   -0.703483    1.806548
     46          1           0      -14.313487   -0.641319   -0.069167
     47          1           0       12.647525   -2.883839   -0.501272
     48          1           0      -13.142125    1.472664    1.661975
     49          1           0       13.908657   -0.155307   -1.395029
     50          1           0       13.091456   -1.338786   -2.308335
     51          1           0      -13.595528    1.758396   -1.430763
     52          1           0      -12.621605    2.778826   -0.292730
     53          1           0       11.760308   -0.900091    3.255407
     54          1           0       10.290490   -0.053755    2.839898
     55          1           0       11.755406    0.655073    2.425981
     56          1           0       10.609589   -2.945628    0.377110
     57          1           0       10.999531   -3.005848    2.129141
     58          1           0        9.582856   -2.286367    1.827074
     59          1           0      -11.582117    0.271253    2.535417
     60          1           0      -10.647124   -1.177331    1.939609
     61          1           0      -12.241996   -1.650068    2.652515
     62          1           0      -13.070973   -3.094888    1.131634
     63          1           0      -11.406151   -3.049599    0.263661
     64          1           0      -13.068256   -2.592309   -0.631532
     65          1           0        8.962170   -0.238783    0.800261
     66          1           0      -10.243791   -2.045928   -1.139551
     67          1           0       10.259322    0.972738   -2.470453
     68          1           0       12.164595    1.341276   -2.620985
     69          1           0       11.314569   -0.018985   -3.421325
     70          1           0      -11.297481    1.989205   -2.583502
     71          1           0       -9.618418    1.122112   -2.037992
     72          1           0      -10.283727    2.700631   -1.201047
     73          1           0       14.881758   -3.142771    0.112130
     74          1           0      -15.127363    1.772375    1.802637
     75          1           0       10.095414    2.170376   -0.673360
     76          1           0       -8.894972    0.451510    0.173012
     77          1           0        9.045266    4.213344   -0.128581
     78          1           0        7.111648    4.367932    0.159350
     79          1           0        8.391663    3.920854    1.453510
     80          1           0       -8.083528   -3.478535   -0.590049
     81          1           0       -8.469849   -2.324186   -2.232467
     82          1           0       -6.662550   -2.986655   -1.646777
     83          1           0        6.934896    0.681603   -0.679185
     84          1           0       -6.560435    0.427278    0.277779
     85          1           0        5.477985    3.118501    0.486039
     86          1           0       -5.199616   -2.116104   -1.026650
     87          1           0        4.444413    0.165119   -0.229026
     88          1           0       -4.308745    0.622552    0.274023
     89          1           0        3.189828    3.419695    1.420776
     90          1           0        1.788168    3.313165    0.925536
     91          1           0        2.935167    3.594454   -0.469734
     92          1           0       -2.768493   -2.881649   -0.151842
     93          1           0       -2.622001   -2.194773   -1.923869
     94          1           0       -1.237730   -2.517442   -0.843686
     95          1           0        2.533263   -0.023519   -0.435839
     96          1           0       -1.835042    1.137085    0.442903
     97          1           0        0.209624    1.819490    0.486812
     98          1           0        0.206560   -1.057862   -0.186674
 ---------------------------------------------------------------------

 SCF Done:  E(RCAM-B3LYP) =  -1706.93675694     A.U. after   14 cycles

 Excitation energies and oscillator strengths:

 Excited State   1:      Singlet-A      2.9992 eV  413.38 nm  f=3.5934  <S**2>=0.000
     155 ->158        -0.20996
     156 ->157         0.66444
 This state for optimization and/or second-order correction.
 Total Energy, E(TD-HF/TD-DFT) =  -1706.82653662
 Copying the excited state density for this state as the 1-particle RhoCI density.

 The electronic state is 1-A.
 Alpha  occ. eigenvalues --  -19.22005 -19.21345 -10.30022 -10.29814 -10.29078
 Alpha  occ. eigenvalues --  -10.28041 -10.27888 -10.27542 -10.27410 -10.27288
 Alpha  occ. eigenvalues --  -10.27187 -10.27103 -10.27084 -10.26969 -10.26934
 Alpha  occ. eigenvalues --  -10.26911 -10.26870 -10.26847 -10.26711 -10.26682
 Alpha  occ. eigenvalues --  -10.26607 -10.26557 -10.26526 -10.26490 -10.26486
 Alpha  occ. eigenvalues --  -10.26134 -10.25923 -10.25770 -10.25639 -10.25615
 Alpha  occ. eigenvalues --  -10.25564 -10.25513 -10.25481 -10.25474 -10.25300
 Alpha  occ. eigenvalues --  -10.25286 -10.25138 -10.25129 -10.24801 -10.24780
 Alpha  occ. eigenvalues --  -10.24486 -10.23213  -1.12220  -1.07240  -0.93732
 Alpha  occ. eigenvalues --   -0.93664  -0.92590  -0.91613  -0.90441  -0.89559
 Alpha  occ. eigenvalues --   -0.88120  -0.87012  -0.86726  -0.85682  -0.85245
 Alpha  occ. eigenvalues --   -0.82816  -0.82147  -0.79860  -0.79259  -0.78289
 Alpha  occ. eigenvalues --   -0.76779  -0.76205  -0.75808  -0.75335  -0.74791
 Alpha  occ. eigenvalues --   -0.74755  -0.74634  -0.74407  -0.73668  -0.70034
 Alpha  occ. eigenvalues --   -0.68960  -0.67155  -0.65505  -0.64471  -0.64227
 Alpha  occ. eigenvalues --   -0.63390  -0.62723  -0.61333  -0.60377  -0.59552
 Alpha  occ. eigenvalues --   -0.59198  -0.58967  -0.58136  -0.58032  -0.56351
 Alpha  occ. eigenvalues --   -0.56264  -0.55359  -0.54838  -0.54770  -0.53985
 Alpha  occ. eigenvalues --   -0.53224  -0.52439  -0.51953  -0.51335  -0.50634
 Alpha  occ. eigenvalues --   -0.50378  -0.50036  -0.49857  -0.49604  -0.49451
 Alpha  occ. eigenvalues --   -0.49226  -0.48516  -0.48368  -0.48173  -0.47831
 Alpha  occ. eigenvalues --   -0.47395  -0.46997  -0.46446  -0.46213  -0.46053
 Alpha  occ. eigenvalues --   -0.45794  -0.45574  -0.45411  -0.44744  -0.44663
 Alpha  occ. eigenvalues --   -0.44423  -0.43928  -0.43503  -0.43409  -0.42621
 Alpha  occ. eigenvalues --   -0.42184  -0.41838  -0.41772  -0.41462  -0.41311
 Alpha  occ. eigenvalues --   -0.41144  -0.41019  -0.40981  -0.40896  -0.40095
 Alpha  occ. eigenvalues --   -0.39858  -0.39613  -0.39586  -0.39477  -0.39412
 Alpha  occ. eigenvalues --   -0.39149  -0.38239  -0.38112  -0.37841  -0.37812
 Alpha  occ. eigenvalues --   -0.37506  -0.37179  -0.37019  -0.36752  -0.35943
 Alpha  occ. eigenvalues --   -0.35241  -0.34490  -0.33935  -0.32118  -0.31481
 Alpha  occ. eigenvalues --   -0.29352  -0.29148  -0.27758  -0.26624  -0.23854
 Alpha  occ. eigenvalues --   -0.21445
 Alpha virt. eigenvalues --   -0.03468  -0.00614   0.02869   0.05589   0.06994
 Alpha virt. eigenvalues --    0.09087   0.09581   0.09743   0.11644   0.11951
 Alpha virt. eigenvalues --    0.12158   0.12493   0.12973   0.13265   0.13406

 Mulliken charges:
               1
     1  O   -0.549415
     2  O   -0.568404
     3  C   -0.043983
     4  C    0.014707
     5  C   -0.185319
     6  C   -0.156610
     7  C    0.193776
     8  C    0.171948
     9  C    0.087667
    10  C    0.017899
    11  C   -0.220421
    12  C   -0.230573
    13  C    0.058291
    14  C    0.081380
    15  C   -0.300911
    16  C   -0.308412
    17  C   -0.271497
    18  C   -0.302129
    19  C   -0.098200
    20  C   -0.147209
    21  C   -0.352752
    22  C   -0.350975
    23  C   -0.122903
    24  C   -0.088579
    25  C    0.116560
    26  C    0.083795
    27  C   -0.381179
    28  C   -0.341938
    29  C   -0.122208
    30  C   -0.130098
    31  C   -0.096804
    32  C   -0.072626
    33  C   -0.104827
    34  C   -0.118749
    35  C    0.087731
    36  C    0.114445
    37  C   -0.347776
    38  C   -0.376208
    39  C   -0.135188
    40  C   -0.136090
    41  C   -0.058736
    42  C   -0.048006
    43  H    0.105541
    44  H    0.078048
    45  H    0.051168
    46  H    0.099991
    47  H    0.026259
    48  H    0.078144
    49  H    0.102778
    50  H    0.105348
    51  H    0.118761
    52  H    0.090414
    53  H    0.102928
    54  H    0.090466
    55  H    0.098315
    56  H    0.102326
    57  H    0.111326
    58  H    0.095381
    59  H    0.059730
    60  H    0.118628
    61  H    0.096580
    62  H    0.066190
    63  H    0.108490
    64  H    0.117522
    65  H    0.092624
    66  H    0.074384
    67  H    0.095610
    68  H    0.084610
    69  H    0.133958
    70  H    0.096279
    71  H    0.102852
    72  H    0.115033
    73  H    0.322929
    74  H    0.303060
    75  H    0.092806
    76  H    0.088924
    77  H    0.094776
    78  H    0.107389
    79  H    0.111543
    80  H    0.118337
    81  H    0.077781
    82  H    0.110261
    83  H    0.079594
    84  H    0.079450
    85  H    0.084150
    86  H    0.081903
    87  H    0.080888
    88  H    0.094616
    89  H    0.120457
    90  H    0.091406
    91  H    0.117878
    92  H    0.125929
    93  H    0.131303
    94  H    0.102000
    95  H    0.058818
    96  H    0.080738
    97  H    0.079350
    98  H    0.084557
 Sum of Mulliken charges =  -0.00000

 Dipole moment (field-independent basis, Debye):
    X=              2.0520    Y=             -1.6889    Z=              1.5855  Tot=              3.0946
 Quadrupole moment (field-independent basis, Debye-Ang):
   XX=           -281.6836   YY=           -243.8257   ZZ=           -259.0022
   XY=             -7.2417   XZ=             -8.7732   YZ=              4.0782

 Normal termination of Gaussian 16 at Sat Jun 29 04:07:45 2019.
