 Gaussian 16, Revision A.03,
 Gaussian 16:  ES64L-G16RevA.03 25-Dec-2016

 -------------------------------------
 # td=(NStates=1) CAM-B3LYP/6-31G(d,p)
 -------------------------------------

 --
 TD
 --
 Symbolic Z-matrix:
 Charge =  0 Multiplicity = 1

                         Standard orientation:
 ---------------------------------------------------------------------
 Center     Atomic      Atomic             Coordinates (Angstroms)
 Number     Number       Type             X           Y           Z
 ---------------------------------------------------------------------
      1          8           0       14.775923   -2.245493   -0.366807
      2          8           0      -14.740221    2.090980    0.800454
      3          6           0       11.515784   -0.995270    1.177986
      4          6           0      -12.347149   -0.917172    0.775926
      5          6           0       13.078997   -1.282560    1.142590
      6          6           0      -13.702063   -0.073069    0.862379
      7          6           0       13.363525   -1.836747   -0.243004
      8          6           0      -13.491716    1.416613    0.711566
      9          6           0       11.039811   -0.280782   -0.093652
     10          6           0      -11.416543   -0.337507   -0.275607
     11          6           0       13.033464   -0.914709   -1.336860
     12          6           0      -12.975172    1.702727   -0.614130
     13          6           0       11.751975   -0.233157   -1.174772
     14          6           0      -11.700920    0.852186   -0.883816
     15          6           0       11.263015   -0.094566    2.370130
     16          6           0       10.780961   -2.269761    1.527601
     17          6           0      -11.650828   -0.930643    2.175937
     18          6           0      -12.809609   -2.463052    0.475638
     19          6           0        9.679027    0.356793    0.111121
     20          6           0      -10.119495   -1.068097   -0.384884
     21          6           0       11.179828    0.401786   -2.363738
     22          6           0      -10.744824    1.402819   -1.937298
     23          6           0        9.392281    1.610802   -0.079257
     24          6           0       -8.901051   -0.545965   -0.254471
     25          6           0        8.062977    2.242027    0.097550
     26          6           0       -7.585768   -1.207619   -0.473543
     27          6           0        8.040533    3.629394    0.323425
     28          6           0       -7.702219   -2.649860   -0.815827
     29          6           0        6.927838    1.597030   -0.209087
     30          6           0       -6.468920   -0.511983   -0.220645
     31          6           0        5.548541    2.033721    0.049439
     32          6           0       -5.175409   -1.158773   -0.389498
     33          6           0        4.529694    1.200808    0.064809
     34          6           0       -4.073279   -0.362346   -0.320678
     35          6           0        3.118070    1.535677    0.175922
     36          6           0       -2.582292   -0.800401   -0.490214
     37          6           0        2.779599    2.950015    0.741312
     38          6           0       -2.409465   -2.254323   -0.906860
     39          6           0        2.158311    0.597876   -0.157695
     40          6           0       -1.584889    0.077400   -0.229930
     41          6           0        0.772738    0.780732   -0.000466
     42          6           0       -0.163518   -0.194619   -0.236369
     43          1           0       13.594715   -0.366094    1.173419
     44          1           0       13.273374   -2.028774    1.929644
     45          1           0      -14.251986   -0.362865    1.811477
     46          1           0      -14.233368   -0.304881   -0.066370
     47          1           0       12.516875   -2.697358   -0.503729
     48          1           0      -12.889883    1.648585    1.517143
     49          1           0       13.976817   -0.441775   -1.198245
     50          1           0       13.123432   -1.246419   -2.451137
     51          1           0      -13.479586    1.652061   -1.562946
     52          1           0      -12.597260    2.808610   -0.815103
     53          1           0       11.725667   -0.411497    3.442123
     54          1           0       10.296701    0.211886    2.698728
     55          1           0       11.724769    0.772644    1.969196
     56          1           0       10.952108   -3.123313    0.626551
     57          1           0       10.940475   -2.713299    2.532314
     58          1           0        9.537708   -2.157301    1.391215
     59          1           0      -11.535992    0.116869    2.554166
     60          1           0      -10.685020   -1.452551    1.907212
     61          1           0      -12.227711   -1.415270    2.947313
     62          1           0      -13.777919   -2.661474    1.012239
     63          1           0      -11.949765   -3.212666    0.708184
     64          1           0      -13.123673   -2.537361   -0.669059
     65          1           0        8.871912   -0.184495    0.583237
     66          1           0      -10.331610   -2.146906   -0.557250
     67          1           0       10.035659    0.681818   -2.333295
     68          1           0       11.728744    1.307859   -2.759241
     69          1           0       11.394995   -0.155416   -3.243312
     70          1           0      -11.296628    1.698406   -2.690625
     71          1           0       -9.860229    0.668989   -2.348600
     72          1           0      -10.210331    2.141616   -1.677814
     73          1           0       14.934611   -3.120292    0.275877
     74          1           0      -15.192529    1.857496    1.565346
     75          1           0        9.999613    2.316541   -0.420626
     76          1           0       -8.561888    0.649262   -0.207675
     77          1           0        8.543537    4.154211   -0.636269
     78          1           0        6.953264    3.917147    0.695567
     79          1           0        8.654362    3.799535    1.282884
     80          1           0       -7.972057   -3.231590    0.121511
     81          1           0       -8.338773   -2.957644   -1.524776
     82          1           0       -6.672157   -3.002078   -0.936968
     83          1           0        7.150495    0.481731   -0.346909
     84          1           0       -6.574466    0.483808    0.217628
     85          1           0        5.237454    3.131224    0.305791
     86          1           0       -5.099017   -1.989057   -0.533127
     87          1           0        4.668818    0.149192   -0.206884
     88          1           0       -4.010446    0.737983   -0.191154
     89          1           0        3.334783    3.265641    1.713563
     90          1           0        1.730096    3.321350    1.138821
     91          1           0        3.215116    3.656750    0.068008
     92          1           0       -3.114968   -3.010276   -0.260699
     93          1           0       -2.765021   -2.291680   -1.895170
     94          1           0       -1.341829   -2.521172   -0.861209
     95          1           0        2.399527   -0.461894   -0.675440
     96          1           0       -1.739715    1.086060    0.002102
     97          1           0        0.405029    1.748578    0.455532
     98          1           0        0.156536   -1.056904   -0.688529
 ---------------------------------------------------------------------

 SCF Done:  E(RCAM-B3LYP) =  -1706.91546090     A.U. after   14 cycles

 Excitation energies and oscillator strengths:

 Excited State   1:      Singlet-A      3.0422 eV  407.55 nm  f=3.5348  <S**2>=0.000
     155 ->158         0.16377
     156 ->157         0.68067
 This state for optimization and/or second-order correction.
 Total Energy, E(TD-HF/TD-DFT) =  -1706.80366265
 Copying the excited state density for this state as the 1-particle RhoCI density.

 The electronic state is 1-A.
 Alpha  occ. eigenvalues --  -19.22731 -19.19945 -10.31420 -10.29524 -10.28488
 Alpha  occ. eigenvalues --  -10.27610 -10.27606 -10.27600 -10.27437 -10.27386
 Alpha  occ. eigenvalues --  -10.27332 -10.27084 -10.26976 -10.26968 -10.26946
 Alpha  occ. eigenvalues --  -10.26793 -10.26575 -10.26448 -10.26424 -10.26422
 Alpha  occ. eigenvalues --  -10.26284 -10.26101 -10.26069 -10.26037 -10.26011
 Alpha  occ. eigenvalues --  -10.25993 -10.25883 -10.25870 -10.25675 -10.25630
 Alpha  occ. eigenvalues --  -10.25582 -10.25559 -10.25336 -10.25305 -10.25138
 Alpha  occ. eigenvalues --  -10.24969 -10.24753 -10.24707 -10.24434 -10.24421
 Alpha  occ. eigenvalues --  -10.24368 -10.22739  -1.09876  -1.06512  -0.95002
 Alpha  occ. eigenvalues --   -0.92752  -0.92476  -0.91723  -0.91050  -0.89654
 Alpha  occ. eigenvalues --   -0.88195  -0.87353  -0.86233  -0.85747  -0.85289
 Alpha  occ. eigenvalues --   -0.83792  -0.82301  -0.81238  -0.80060  -0.78076
 Alpha  occ. eigenvalues --   -0.76983  -0.76498  -0.76289  -0.75838  -0.75727
 Alpha  occ. eigenvalues --   -0.75016  -0.74849  -0.74313  -0.74054  -0.70602
 Alpha  occ. eigenvalues --   -0.68906  -0.68085  -0.66246  -0.64793  -0.64484
 Alpha  occ. eigenvalues --   -0.63990  -0.63255  -0.62338  -0.61439  -0.59631
 Alpha  occ. eigenvalues --   -0.59437  -0.59172  -0.58597  -0.57104  -0.55728
 Alpha  occ. eigenvalues --   -0.55278  -0.55190  -0.55169  -0.54715  -0.54363
 Alpha  occ. eigenvalues --   -0.52941  -0.52716  -0.52089  -0.51664  -0.51062
 Alpha  occ. eigenvalues --   -0.50746  -0.49847  -0.49723  -0.49595  -0.49308
 Alpha  occ. eigenvalues --   -0.48963  -0.48678  -0.48470  -0.48056  -0.47801
 Alpha  occ. eigenvalues --   -0.47732  -0.47530  -0.47391  -0.46614  -0.46563
 Alpha  occ. eigenvalues --   -0.45947  -0.45602  -0.45264  -0.45172  -0.44806
 Alpha  occ. eigenvalues --   -0.44782  -0.44575  -0.44499  -0.44378  -0.43822
 Alpha  occ. eigenvalues --   -0.43615  -0.43187  -0.42883  -0.42672  -0.42339
 Alpha  occ. eigenvalues --   -0.42130  -0.41531  -0.41104  -0.40366  -0.40203
 Alpha  occ. eigenvalues --   -0.40147  -0.40062  -0.39697  -0.39477  -0.39184
 Alpha  occ. eigenvalues --   -0.38851  -0.38351  -0.38152  -0.37865  -0.37454
 Alpha  occ. eigenvalues --   -0.36886  -0.36815  -0.36416  -0.36305  -0.35259
 Alpha  occ. eigenvalues --   -0.35100  -0.34824  -0.34045  -0.32467  -0.31607
 Alpha  occ. eigenvalues --   -0.31579  -0.29644  -0.28450  -0.26990  -0.24669
 Alpha  occ. eigenvalues --   -0.21438
 Alpha virt. eigenvalues --   -0.03457   0.00558   0.03159   0.06313   0.07995
 Alpha virt. eigenvalues --    0.09348   0.09917   0.11024   0.11672   0.11963
 Alpha virt. eigenvalues --    0.12027   0.12335   0.12974   0.13389   0.13635

 Mulliken charges:
               1
     1  O   -0.581285
     2  O   -0.560776
     3  C   -0.027174
     4  C   -0.023336
     5  C   -0.153553
     6  C   -0.214119
     7  C    0.149347
     8  C    0.198292
     9  C    0.032319
    10  C    0.069868
    11  C   -0.232518
    12  C   -0.219337
    13  C    0.129836
    14  C    0.016685
    15  C   -0.293303
    16  C   -0.280240
    17  C   -0.291703
    18  C   -0.309009
    19  C   -0.142533
    20  C   -0.177624
    21  C   -0.393447
    22  C   -0.348011
    23  C   -0.030754
    24  C   -0.065020
    25  C    0.076671
    26  C    0.113161
    27  C   -0.365826
    28  C   -0.368722
    29  C   -0.110116
    30  C   -0.128283
    31  C   -0.095021
    32  C    0.010982
    33  C   -0.093291
    34  C   -0.114513
    35  C    0.105021
    36  C    0.081829
    37  C   -0.390642
    38  C   -0.366408
    39  C   -0.140408
    40  C   -0.123506
    41  C   -0.068753
    42  C   -0.081798
    43  H    0.109280
    44  H    0.095280
    45  H    0.073854
    46  H    0.103980
    47  H    0.053389
    48  H    0.091405
    49  H    0.129415
    50  H    0.103911
    51  H    0.135525
    52  H    0.095460
    53  H    0.071052
    54  H    0.112263
    55  H    0.103638
    56  H    0.066165
    57  H    0.111253
    58  H    0.072484
    59  H    0.092263
    60  H    0.106794
    61  H    0.098663
    62  H    0.105586
    63  H    0.093179
    64  H    0.088980
    65  H    0.097019
    66  H    0.095465
    67  H    0.119493
    68  H    0.104103
    69  H    0.109005
    70  H    0.105257
    71  H    0.094468
    72  H    0.126723
    73  H    0.313821
    74  H    0.292147
    75  H    0.077541
    76  H    0.065947
    77  H    0.111872
    78  H    0.103869
    79  H    0.107128
    80  H    0.116959
    81  H    0.130796
    82  H    0.100755
    83  H    0.070202
    84  H    0.092906
    85  H    0.079610
    86  H    0.006268
    87  H    0.082168
    88  H    0.078273
    89  H    0.108973
    90  H    0.111245
    91  H    0.134333
    92  H    0.098822
    93  H    0.138689
    94  H    0.109143
    95  H    0.081173
    96  H    0.077568
    97  H    0.078685
    98  H    0.072777
 Sum of Mulliken charges =  -0.00000

 Dipole moment (field-independent basis, Debye):
    X=              0.9573    Y=             -0.8923    Z=              1.5501  Tot=              2.0286
 Quadrupole moment (field-independent basis, Debye-Ang):
   XX=           -278.6513   YY=           -247.1370   ZZ=           -257.7432
   XY=              9.9819   XZ=             -0.1885   YZ=              0.4168

 Normal termination of Gaussian 16 at Thu Jul  4 18:06:00 2019.
