 Gaussian 16, Revision A.03,
 Gaussian 16:  ES64L-G16RevA.03 25-Dec-2016

 -------------------------------------
 # td=(NStates=1) CAM-B3LYP/6-31G(d,p)
 -------------------------------------

 --
 TD
 --
 Symbolic Z-matrix:
 Charge =  0 Multiplicity = 1

                         Standard orientation:
 ---------------------------------------------------------------------
 Center     Atomic      Atomic             Coordinates (Angstroms)
 Number     Number       Type             X           Y           Z
 ---------------------------------------------------------------------
      1          8           0       14.739529   -2.184898   -0.424198
      2          8           0      -14.729119    2.127348    0.833972
      3          6           0       11.551395   -0.923561    1.252225
      4          6           0      -12.336309   -0.787969    0.810270
      5          6           0       12.984245   -1.398441    1.145203
      6          6           0      -13.694345   -0.107858    0.762791
      7          6           0       13.402284   -1.892266   -0.275360
      8          6           0      -13.413877    1.427064    0.742409
      9          6           0       11.066144   -0.206097   -0.002876
     10          6           0      -11.387604   -0.247705   -0.217541
     11          6           0       13.046276   -0.891391   -1.364384
     12          6           0      -12.824107    1.766884   -0.533231
     13          6           0       11.713658   -0.285654   -1.176106
     14          6           0      -11.610914    0.842783   -0.913479
     15          6           0       11.367480   -0.023516    2.433503
     16          6           0       10.655598   -2.174803    1.564627
     17          6           0      -11.633610   -0.609396    2.170463
     18          6           0      -12.607563   -2.302583    0.672261
     19          6           0        9.699753    0.388420    0.267799
     20          6           0      -10.189664   -0.974187   -0.448791
     21          6           0       11.159789    0.426484   -2.384572
     22          6           0      -10.741245    1.457026   -1.985635
     23          6           0        9.378857    1.643480   -0.152238
     24          6           0       -8.915552   -0.522404   -0.355196
     25          6           0        7.953417    2.293322    0.165023
     26          6           0       -7.682573   -1.297802   -0.511520
     27          6           0        8.065597    3.808456    0.405239
     28          6           0       -7.839333   -2.826141   -0.612922
     29          6           0        6.923127    1.579724    0.026243
     30          6           0       -6.515788   -0.732297   -0.452371
     31          6           0        5.518712    1.991864    0.159246
     32          6           0       -5.136606   -1.246510   -0.547646
     33          6           0        4.497232    1.121959   -0.178070
     34          6           0       -4.007664   -0.601165   -0.337210
     35          6           0        3.046118    1.517302    0.001780
     36          6           0       -2.608033   -0.966953   -0.431347
     37          6           0        2.793283    2.925602    0.530176
     38          6           0       -2.378145   -2.481068   -0.703854
     39          6           0        2.158548    0.519433   -0.230845
     40          6           0       -1.672254   -0.043949   -0.192495
     41          6           0        0.621648    0.790262   -0.118835
     42          6           0       -0.195149   -0.154633   -0.456837
     43          1           0       13.608795   -0.427341    1.377482
     44          1           0       13.327370   -2.161750    1.911387
     45          1           0      -14.135671   -0.469154    1.690323
     46          1           0      -14.330490   -0.298693   -0.008793
     47          1           0       12.839665   -2.956179   -0.447523
     48          1           0      -12.901018    1.693329    1.548037
     49          1           0       13.615500   -0.194268   -1.431619
     50          1           0       13.431044   -1.251656   -2.532711
     51          1           0      -13.741732    1.446328   -1.249480
     52          1           0      -12.594397    2.818209   -0.509724
     53          1           0       12.129709   -0.428883    3.194748
     54          1           0       10.327250   -0.003847    2.846311
     55          1           0       11.839135    1.108961    2.242109
     56          1           0       10.785711   -2.824187    0.678000
     57          1           0       10.856850   -2.730976    2.447716
     58          1           0        9.713087   -1.819546    1.776097
     59          1           0      -11.594403    0.370411    2.466803
     60          1           0      -10.717998   -1.130686    2.267562
     61          1           0      -12.213720   -1.025037    3.096975
     62          1           0      -13.450863   -2.853721    1.183849
     63          1           0      -11.855603   -2.946311    0.871474
     64          1           0      -12.979504   -2.442002   -0.474860
     65          1           0        8.933676   -0.186708    0.808991
     66          1           0      -10.418596   -2.133155   -0.516014
     67          1           0        9.990690    0.676483   -2.151897
     68          1           0       11.823784    1.366145   -2.515596
     69          1           0       11.282174   -0.215216   -3.169449
     70          1           0      -11.255038    2.010299   -2.768584
     71          1           0       -9.999773    0.731255   -2.410588
     72          1           0      -10.108539    2.308283   -1.533242
     73          1           0       14.966064   -2.912976    0.370825
     74          1           0      -15.179484    2.104342    1.674666
     75          1           0       10.107332    2.386533   -0.579214
     76          1           0       -8.514462    0.371601   -0.040878
     77          1           0        8.735567    4.171094   -0.371980
     78          1           0        7.220211    4.287229    0.605166
     79          1           0        8.668722    3.988072    1.145140
     80          1           0       -7.966600   -3.291537    0.301329
     81          1           0       -8.516900   -3.226594   -1.442026
     82          1           0       -6.847844   -3.393416   -1.026123
     83          1           0        6.902692    0.686966   -0.463845
     84          1           0       -6.296759    0.534518   -0.394421
     85          1           0        5.381435    2.948637    0.417602
     86          1           0       -5.064156   -2.335073   -0.752245
     87          1           0        4.793297    0.090769   -0.298447
     88          1           0       -3.997954    0.465381   -0.179015
     89          1           0        3.104883    2.893400    1.764420
     90          1           0        1.786378    3.209571    0.041531
     91          1           0        3.373571    3.646021   -0.020624
     92          1           0       -2.971161   -3.175840    0.112627
     93          1           0       -2.972662   -2.607881   -1.723050
     94          1           0       -1.345523   -2.603885   -0.764085
     95          1           0        2.467287   -0.371930   -0.808319
     96          1           0       -1.992930    1.105767   -0.080221
     97          1           0        0.289198    1.685805    0.327022
     98          1           0        0.302463   -1.036848   -0.937171
 ---------------------------------------------------------------------

 SCF Done:  E(RCAM-B3LYP) =  -1706.91398339     A.U. after   13 cycles

 Excitation energies and oscillator strengths:

 Excited State   1:      Singlet-A      3.5433 eV  349.91 nm  f=3.5938  <S**2>=0.000
     155 ->158         0.22003
     156 ->157         0.65637
 This state for optimization and/or second-order correction.
 Total Energy, E(TD-HF/TD-DFT) =  -1706.78376919
 Copying the excited state density for this state as the 1-particle RhoCI density.

 The electronic state is 1-A.
 Alpha  occ. eigenvalues --  -19.22525 -19.19196 -10.31715 -10.28770 -10.28171
 Alpha  occ. eigenvalues --  -10.27687 -10.27571 -10.27463 -10.27372 -10.27268
 Alpha  occ. eigenvalues --  -10.27170 -10.27001 -10.26915 -10.26765 -10.26709
 Alpha  occ. eigenvalues --  -10.26666 -10.26639 -10.26410 -10.26394 -10.26346
 Alpha  occ. eigenvalues --  -10.26296 -10.26261 -10.26256 -10.26244 -10.26141
 Alpha  occ. eigenvalues --  -10.26005 -10.25842 -10.25592 -10.25568 -10.25450
 Alpha  occ. eigenvalues --  -10.25393 -10.25288 -10.25167 -10.25108 -10.25097
 Alpha  occ. eigenvalues --  -10.25001 -10.24669 -10.23992 -10.23781 -10.23625
 Alpha  occ. eigenvalues --  -10.23578 -10.23468  -1.09463  -1.06196  -0.94559
 Alpha  occ. eigenvalues --   -0.93738  -0.91782  -0.91284  -0.90534  -0.89433
 Alpha  occ. eigenvalues --   -0.87897  -0.87106  -0.86668  -0.85743  -0.84668
 Alpha  occ. eigenvalues --   -0.83054  -0.82085  -0.79901  -0.79581  -0.77470
 Alpha  occ. eigenvalues --   -0.76919  -0.76645  -0.76463  -0.76399  -0.75740
 Alpha  occ. eigenvalues --   -0.75460  -0.75354  -0.75093  -0.74554  -0.70310
 Alpha  occ. eigenvalues --   -0.68287  -0.67032  -0.65913  -0.65099  -0.64772
 Alpha  occ. eigenvalues --   -0.63870  -0.62977  -0.62197  -0.61427  -0.59591
 Alpha  occ. eigenvalues --   -0.58983  -0.58762  -0.57931  -0.57010  -0.55814
 Alpha  occ. eigenvalues --   -0.55630  -0.55231  -0.54578  -0.54044  -0.53223
 Alpha  occ. eigenvalues --   -0.52659  -0.52458  -0.51723  -0.51472  -0.50839
 Alpha  occ. eigenvalues --   -0.50310  -0.50018  -0.49859  -0.49570  -0.49502
 Alpha  occ. eigenvalues --   -0.49265  -0.49175  -0.49006  -0.48887  -0.48059
 Alpha  occ. eigenvalues --   -0.47565  -0.47004  -0.46935  -0.46598  -0.46568
 Alpha  occ. eigenvalues --   -0.46373  -0.45889  -0.45726  -0.45302  -0.45042
 Alpha  occ. eigenvalues --   -0.44747  -0.44258  -0.44115  -0.43622  -0.43409
 Alpha  occ. eigenvalues --   -0.43229  -0.43015  -0.42742  -0.42589  -0.42026
 Alpha  occ. eigenvalues --   -0.41650  -0.41389  -0.41052  -0.40588  -0.40414
 Alpha  occ. eigenvalues --   -0.40170  -0.40150  -0.39558  -0.39488  -0.38831
 Alpha  occ. eigenvalues --   -0.38671  -0.38379  -0.37727  -0.37457  -0.37418
 Alpha  occ. eigenvalues --   -0.36951  -0.36837  -0.36461  -0.35700  -0.35476
 Alpha  occ. eigenvalues --   -0.35153  -0.34918  -0.33486  -0.31994  -0.31319
 Alpha  occ. eigenvalues --   -0.31032  -0.30276  -0.28223  -0.26967  -0.24816
 Alpha  occ. eigenvalues --   -0.22722
 Alpha virt. eigenvalues --   -0.02229   0.00652   0.03726   0.05723   0.08523
 Alpha virt. eigenvalues --    0.08810   0.09582   0.10583   0.11335   0.11929
 Alpha virt. eigenvalues --    0.12458   0.13172   0.13375   0.13456   0.13731

 Mulliken charges:
               1
     1  O   -0.553633
     2  O   -0.598877
     3  C   -0.009713
     4  C   -0.027819
     5  C   -0.207759
     6  C   -0.169009
     7  C    0.199293
     8  C    0.160533
     9  C    0.066336
    10  C    0.105435
    11  C   -0.187824
    12  C   -0.207455
    13  C    0.044521
    14  C    0.058850
    15  C   -0.287002
    16  C   -0.297192
    17  C   -0.305539
    18  C   -0.312754
    19  C   -0.117696
    20  C   -0.181714
    21  C   -0.351943
    22  C   -0.366858
    23  C   -0.128897
    24  C   -0.045750
    25  C    0.058027
    26  C    0.112134
    27  C   -0.359616
    28  C   -0.376508
    29  C   -0.105592
    30  C   -0.134302
    31  C   -0.072507
    32  C   -0.089924
    33  C   -0.127695
    34  C   -0.086313
    35  C    0.093788
    36  C    0.126673
    37  C   -0.358622
    38  C   -0.343652
    39  C   -0.146527
    40  C   -0.171723
    41  C   -0.075946
    42  C   -0.080767
    43  H    0.084043
    44  H    0.075588
    45  H    0.084211
    46  H    0.107416
    47  H    0.043494
    48  H    0.088348
    49  H    0.135892
    50  H    0.072275
    51  H    0.104856
    52  H    0.112023
    53  H    0.088223
    54  H    0.103949
    55  H    0.075061
    56  H    0.103541
    57  H    0.100516
    58  H    0.098957
    59  H    0.108977
    60  H    0.120476
    61  H    0.073556
    62  H    0.100577
    63  H    0.110136
    64  H    0.074496
    65  H    0.107071
    66  H    0.088415
    67  H    0.109072
    68  H    0.098183
    69  H    0.115869
    70  H    0.114720
    71  H    0.119405
    72  H    0.103934
    73  H    0.304638
    74  H    0.298448
    75  H    0.093530
    76  H    0.082177
    77  H    0.117799
    78  H    0.114093
    79  H    0.134688
    80  H    0.138934
    81  H    0.117054
    82  H    0.079635
    83  H    0.077680
    84  H    0.054872
    85  H    0.064384
    86  H    0.070618
    87  H    0.086740
    88  H    0.062455
    89  H    0.118182
    90  H    0.109933
    91  H    0.131475
    92  H    0.109216
    93  H    0.111493
    94  H    0.114737
    95  H    0.092523
    96  H    0.081742
    97  H    0.087346
    98  H    0.083863
 Sum of Mulliken charges =  -0.00000

 Dipole moment (field-independent basis, Debye):
    X=              1.4219    Y=             -0.6032    Z=              2.4433  Tot=              2.8905
 Quadrupole moment (field-independent basis, Debye-Ang):
   XX=           -280.7504   YY=           -243.1193   ZZ=           -259.4553
   XY=             13.9226   XZ=             -4.0954   YZ=             -0.5827

 Normal termination of Gaussian 16 at Fri Jun 28 02:05:32 2019.
