 Gaussian 16, Revision A.03,
 Gaussian 16:  ES64L-G16RevA.03 25-Dec-2016

 -------------------------------------
 # td=(NStates=1) CAM-B3LYP/6-31G(d,p)
 -------------------------------------

 --
 TD
 --
 Symbolic Z-matrix:
 Charge =  0 Multiplicity = 1

                         Standard orientation:
 ---------------------------------------------------------------------
 Center     Atomic      Atomic             Coordinates (Angstroms)
 Number     Number       Type             X           Y           Z
 ---------------------------------------------------------------------
      1          8           0      -14.624738   -2.446735    0.566594
      2          8           0       14.910830    1.774901   -0.618156
      3          6           0      -11.585888   -1.054759   -1.197753
      4          6           0       12.327747   -1.010098   -0.812008
      5          6           0      -13.034162   -1.479739   -0.962834
      6          6           0       13.740200   -0.309786   -0.820252
      7          6           0      -13.247701   -2.091851    0.303628
      8          6           0       13.588801    1.240917   -0.450208
      9          6           0      -10.939136   -0.294604    0.069585
     10          6           0       11.335305   -0.310318    0.125743
     11          6           0      -12.821915   -1.312928    1.491514
     12          6           0       12.936047    1.520023    0.749646
     13          6           0      -11.554317   -0.338346    1.264201
     14          6           0       11.646060    0.817114    0.941779
     15          6           0      -11.574033   -0.143297   -2.421817
     16          6           0      -10.669658   -2.343383   -1.397086
     17          6           0       11.606634   -0.936870   -2.125820
     18          6           0       12.412162   -2.521447   -0.529044
     19          6           0       -9.729054    0.384930   -0.182541
     20          6           0       10.081338   -0.986538    0.458143
     21          6           0      -11.120556    0.297109    2.497696
     22          6           0       10.836163    1.481876    2.010851
     23          6           0       -9.504672    1.647867    0.267891
     24          6           0        8.881811   -0.546542    0.345504
     25          6           0       -8.190962    2.352018    0.014121
     26          6           0        7.676891   -1.182281    0.446111
     27          6           0       -8.316308    3.829072   -0.296755
     28          6           0        7.724495   -2.642223    0.966648
     29          6           0       -6.952727    1.620423   -0.055465
     30          6           0        6.477324   -0.494902    0.183468
     31          6           0       -5.565088    2.131225   -0.249479
     32          6           0        5.142747   -1.059161    0.392652
     33          6           0       -4.464566    1.353115   -0.091383
     34          6           0        4.005807   -0.333778    0.100113
     35          6           0       -3.122444    1.832997   -0.250139
     36          6           0        2.623381   -0.632390    0.183030
     37          6           0       -2.801254    3.229135   -0.783493
     38          6           0        2.298572   -2.102165    0.642500
     39          6           0       -2.142154    0.932832   -0.059858
     40          6           0        1.669441    0.265853   -0.045943
     41          6           0       -0.647155    1.030627   -0.207491
     42          6           0        0.323358    0.145921    0.095932
     43          1           0      -13.537464   -0.298089   -0.994029
     44          1           0      -13.217431   -2.183985   -1.869393
     45          1           0       14.246492   -0.553799   -1.653843
     46          1           0       14.238965   -0.664182    0.117625
     47          1           0      -12.542263   -3.174834    0.362466
     48          1           0       12.980106    1.731695   -1.299133
     49          1           0      -13.805752   -0.569931    1.743323
     50          1           0      -12.887093   -2.008706    2.402598
     51          1           0       13.698483    1.340876    1.492320
     52          1           0       12.831905    2.624017    0.718613
     53          1           0      -12.107395   -0.514806   -3.257462
     54          1           0      -10.338915   -0.097652   -2.777105
     55          1           0      -11.851934    0.790932   -2.002175
     56          1           0      -10.780992   -3.037648   -0.586654
     57          1           0      -11.147891   -3.041094   -2.229407
     58          1           0       -9.650328   -2.199052   -1.864378
     59          1           0       11.464394    0.030889   -2.348887
     60          1           0       10.634408   -1.405643   -2.320307
     61          1           0       12.204183   -1.506582   -2.853820
     62          1           0       13.176465   -2.906116   -1.219946
     63          1           0       11.618854   -3.169701   -0.732571
     64          1           0       12.720688   -2.785850    0.506810
     65          1           0       -9.012674   -0.095092   -1.010348
     66          1           0       10.058773   -2.218610    0.646377
     67          1           0      -10.052690    0.454902    2.412352
     68          1           0      -11.431676    1.224011    2.693155
     69          1           0      -11.151218   -0.321365    3.406398
     70          1           0       11.461043    1.787773    3.005708
     71          1           0       10.109882    1.009266    2.340460
     72          1           0       10.490260    2.555705    1.626846
     73          1           0      -14.556990   -3.257446    0.041594
     74          1           0       15.371285    1.114015   -1.180670
     75          1           0      -10.150224    2.143503    1.095483
     76          1           0        8.716592    0.535839    0.222221
     77          1           0       -9.162648    4.321941    0.449930
     78          1           0       -7.316617    4.174411    0.036151
     79          1           0       -8.628574    4.060057   -1.367513
     80          1           0        8.112531   -3.244476    0.101124
     81          1           0        8.356262   -2.762869    1.852613
     82          1           0        6.626182   -3.088107    1.053570
     83          1           0       -7.076998    0.498441    0.063179
     84          1           0        6.469441    0.636169   -0.128698
     85          1           0       -5.470891    3.180016   -0.544459
     86          1           0        5.047070   -2.101018    0.953567
     87          1           0       -4.661805    0.402310    0.179197
     88          1           0        4.115288    0.821164   -0.211666
     89          1           0       -3.221938    3.282148   -1.786243
     90          1           0       -1.780449    3.298370   -1.002322
     91          1           0       -3.229265    3.949126   -0.187729
     92          1           0        2.628724   -2.946258   -0.141991
     93          1           0        2.832268   -2.350513    1.634438
     94          1           0        1.174826   -2.329332    1.041346
     95          1           0       -2.326507   -0.089734    0.321305
     96          1           0        2.052911    1.228094   -0.354488
     97          1           0       -0.528989    2.017655   -0.314411
     98          1           0       -0.202622   -0.830064    0.463037
 ---------------------------------------------------------------------

 SCF Done:  E(RCAM-B3LYP) =  -1706.93908228     A.U. after   14 cycles

 Excitation energies and oscillator strengths:

 Excited State   1:      Singlet-A      2.6776 eV  463.04 nm  f=3.8156  <S**2>=0.000
     155 ->158         0.18710
     156 ->157         0.67639
 This state for optimization and/or second-order correction.
 Total Energy, E(TD-HF/TD-DFT) =  -1706.84068233
 Copying the excited state density for this state as the 1-particle RhoCI density.

 The electronic state is 1-A.
 Alpha  occ. eigenvalues --  -19.21502 -19.20711 -10.31727 -10.30313 -10.28200
 Alpha  occ. eigenvalues --  -10.28191 -10.28139 -10.28136 -10.27992 -10.27780
 Alpha  occ. eigenvalues --  -10.27661 -10.27585 -10.27442 -10.27399 -10.27354
 Alpha  occ. eigenvalues --  -10.27348 -10.27343 -10.27269 -10.27254 -10.27217
 Alpha  occ. eigenvalues --  -10.27196 -10.27126 -10.27007 -10.26905 -10.26737
 Alpha  occ. eigenvalues --  -10.26711 -10.26388 -10.26171 -10.25942 -10.25906
 Alpha  occ. eigenvalues --  -10.25892 -10.25771 -10.25737 -10.25623 -10.25543
 Alpha  occ. eigenvalues --  -10.25482 -10.24929 -10.24575 -10.24317 -10.24305
 Alpha  occ. eigenvalues --  -10.23467 -10.23234  -1.10027  -1.08787  -0.94066
 Alpha  occ. eigenvalues --   -0.93673  -0.92380  -0.91614  -0.91123  -0.89217
 Alpha  occ. eigenvalues --   -0.88537  -0.87566  -0.86932  -0.85434  -0.84776
 Alpha  occ. eigenvalues --   -0.83412  -0.82229  -0.80627  -0.80164  -0.78267
 Alpha  occ. eigenvalues --   -0.77526  -0.76873  -0.76614  -0.76257  -0.76125
 Alpha  occ. eigenvalues --   -0.76089  -0.74889  -0.74787  -0.73603  -0.70812
 Alpha  occ. eigenvalues --   -0.68528  -0.67442  -0.65949  -0.64448  -0.63908
 Alpha  occ. eigenvalues --   -0.63369  -0.61903  -0.61657  -0.60917  -0.59066
 Alpha  occ. eigenvalues --   -0.58623  -0.57824  -0.57670  -0.57450  -0.56795
 Alpha  occ. eigenvalues --   -0.55956  -0.55572  -0.55223  -0.54306  -0.53891
 Alpha  occ. eigenvalues --   -0.53421  -0.53010  -0.52355  -0.52079  -0.51792
 Alpha  occ. eigenvalues --   -0.51073  -0.50958  -0.50562  -0.50108  -0.49636
 Alpha  occ. eigenvalues --   -0.49272  -0.49027  -0.48888  -0.48216  -0.47945
 Alpha  occ. eigenvalues --   -0.47703  -0.47593  -0.47486  -0.46776  -0.46710
 Alpha  occ. eigenvalues --   -0.46481  -0.45983  -0.45391  -0.45015  -0.44758
 Alpha  occ. eigenvalues --   -0.44472  -0.44255  -0.44088  -0.44000  -0.43510
 Alpha  occ. eigenvalues --   -0.43298  -0.42987  -0.42538  -0.41980  -0.41633
 Alpha  occ. eigenvalues --   -0.41531  -0.41372  -0.41265  -0.40898  -0.40751
 Alpha  occ. eigenvalues --   -0.40494  -0.40266  -0.39971  -0.39645  -0.39413
 Alpha  occ. eigenvalues --   -0.39326  -0.38884  -0.38448  -0.38192  -0.38012
 Alpha  occ. eigenvalues --   -0.37412  -0.37188  -0.36683  -0.36246  -0.35869
 Alpha  occ. eigenvalues --   -0.35463  -0.34969  -0.33446  -0.32880  -0.32358
 Alpha  occ. eigenvalues --   -0.31387  -0.29860  -0.28102  -0.26481  -0.23790
 Alpha  occ. eigenvalues --   -0.20870
 Alpha virt. eigenvalues --   -0.04716  -0.00746   0.02494   0.05005   0.06631
 Alpha virt. eigenvalues --    0.09601   0.09869   0.10378   0.11137   0.11597
 Alpha virt. eigenvalues --    0.12492   0.12771   0.13033   0.13157   0.13400

 Mulliken charges:
               1
     1  O   -0.534641
     2  O   -0.576673
     3  C   -0.022092
     4  C   -0.014294
     5  C   -0.144605
     6  C   -0.236064
     7  C    0.153476
     8  C    0.176951
     9  C    0.069788
    10  C    0.039551
    11  C   -0.215008
    12  C   -0.207821
    13  C    0.058792
    14  C    0.056827
    15  C   -0.275256
    16  C   -0.310566
    17  C   -0.293851
    18  C   -0.310136
    19  C   -0.114048
    20  C   -0.168301
    21  C   -0.392794
    22  C   -0.325038
    23  C   -0.114050
    24  C   -0.036970
    25  C    0.037684
    26  C    0.112841
    27  C   -0.344236
    28  C   -0.375856
    29  C   -0.118013
    30  C   -0.138440
    31  C   -0.103748
    32  C   -0.094245
    33  C   -0.070857
    34  C   -0.127016
    35  C    0.096796
    36  C    0.155948
    37  C   -0.369032
    38  C   -0.369496
    39  C   -0.148787
    40  C   -0.123790
    41  C   -0.075462
    42  C   -0.077002
    43  H    0.077181
    44  H    0.087196
    45  H    0.097849
    46  H    0.107367
    47  H    0.030883
    48  H    0.064991
    49  H    0.086422
    50  H    0.115203
    51  H    0.116143
    52  H    0.115770
    53  H    0.114458
    54  H    0.056083
    55  H    0.122047
    56  H    0.117255
    57  H    0.064356
    58  H    0.105575
    59  H    0.111791
    60  H    0.114395
    61  H    0.082070
    62  H    0.093397
    63  H    0.115460
    64  H    0.097158
    65  H    0.096842
    66  H    0.063225
    67  H    0.122832
    68  H    0.133528
    69  H    0.108530
    70  H    0.090894
    71  H    0.118725
    72  H    0.100256
    73  H    0.306619
    74  H    0.313839
    75  H    0.097332
    76  H    0.073221
    77  H    0.084227
    78  H    0.115792
    79  H    0.131121
    80  H    0.123744
    81  H    0.132719
    82  H    0.091963
    83  H    0.081846
    84  H    0.089119
    85  H    0.081538
    86  H    0.091300
    87  H    0.080881
    88  H    0.065856
    89  H    0.126384
    90  H    0.120357
    91  H    0.130895
    92  H    0.111154
    93  H    0.110440
    94  H    0.094121
    95  H    0.065987
    96  H    0.082833
    97  H    0.062804
    98  H    0.075555
 Sum of Mulliken charges =  -0.00000

 Dipole moment (field-independent basis, Debye):
    X=              0.7625    Y=             -1.9339    Z=             -0.9461  Tot=              2.2839
 Quadrupole moment (field-independent basis, Debye-Ang):
   XX=           -295.2412   YY=           -245.9847   ZZ=           -259.9293
   XY=            -21.3302   XZ=              5.0388   YZ=              1.7796

 Normal termination of Gaussian 16 at Tue Jul  9 11:48:32 2019.
