 Gaussian 16, Revision A.03,
 Gaussian 16:  ES64L-G16RevA.03 25-Dec-2016

 -------------------------------------
 # td=(NStates=1) CAM-B3LYP/6-31G(d,p)
 -------------------------------------

 --
 TD
 --
 Symbolic Z-matrix:
 Charge =  0 Multiplicity = 1

                         Standard orientation:
 ---------------------------------------------------------------------
 Center     Atomic      Atomic             Coordinates (Angstroms)
 Number     Number       Type             X           Y           Z
 ---------------------------------------------------------------------
      1          8           0       14.714021   -2.098714   -0.396889
      2          8           0      -14.711518    2.197509    0.681355
      3          6           0       11.351065   -1.029993    1.197806
      4          6           0      -12.405562   -0.938358    0.696258
      5          6           0       12.989850   -1.341089    1.148015
      6          6           0      -13.617927   -0.091828    0.712281
      7          6           0       13.273957   -1.817918   -0.196292
      8          6           0      -13.456451    1.409561    0.772501
      9          6           0       10.985640   -0.223415    0.014787
     10          6           0      -11.310037   -0.252896   -0.137307
     11          6           0       12.970292   -0.770768   -1.289575
     12          6           0      -12.691091    1.836083   -0.529131
     13          6           0       11.633929   -0.132468   -1.151706
     14          6           0      -11.506692    0.934715   -0.731098
     15          6           0       11.293063   -0.331704    2.503483
     16          6           0       10.601673   -2.444212    1.306110
     17          6           0      -11.853317   -0.960217    2.161468
     18          6           0      -12.647876   -2.309631    0.316418
     19          6           0        9.701514    0.429889    0.129400
     20          6           0      -10.087230   -1.034876   -0.442202
     21          6           0       11.272628    0.594639   -2.370682
     22          6           0      -10.585163    1.721177   -1.534435
     23          6           0        9.278160    1.621631   -0.113189
     24          6           0       -8.926246   -0.591688   -0.169402
     25          6           0        7.987001    2.300464    0.052966
     26          6           0       -7.579377   -1.361798   -0.391067
     27          6           0        8.077429    3.647717    0.577090
     28          6           0       -7.641276   -2.731900   -0.814633
     29          6           0        6.899968    1.559474   -0.156979
     30          6           0       -6.413312   -0.725124   -0.219580
     31          6           0        5.542642    1.953802    0.282324
     32          6           0       -5.088156   -1.251279   -0.411901
     33          6           0        4.479440    1.192100    0.039641
     34          6           0       -4.024392   -0.483106   -0.404815
     35          6           0        3.093014    1.539657    0.126592
     36          6           0       -2.600379   -0.931907   -0.648475
     37          6           0        2.819569    3.000163    0.508132
     38          6           0       -2.406085   -2.466607   -0.919492
     39          6           0        2.162212    0.680057   -0.056937
     40          6           0       -1.597042    0.007640   -0.495085
     41          6           0        0.660028    0.761541   -0.135625
     42          6           0       -0.173322   -0.206502   -0.351574
     43          1           0       13.483495   -0.299648    1.310180
     44          1           0       13.201058   -1.844603    1.944129
     45          1           0      -14.313634   -0.729057    1.437030
     46          1           0      -14.321658   -0.265063   -0.186889
     47          1           0       12.763936   -2.729135   -0.580646
     48          1           0      -12.966877    1.792544    1.777525
     49          1           0       13.691831    0.096618   -1.315054
     50          1           0       13.091102   -1.325244   -2.396290
     51          1           0      -13.241839    1.758449   -1.502955
     52          1           0      -12.456955    2.813792   -0.468022
     53          1           0       11.916223   -0.945821    3.283624
     54          1           0       10.285105   -0.260002    2.816890
     55          1           0       11.841058    0.619702    2.582133
     56          1           0       10.615650   -2.948465    0.448192
     57          1           0       10.888573   -2.782634    2.366739
     58          1           0        9.721454   -2.141948    1.397979
     59          1           0      -11.571647   -0.012176    2.601452
     60          1           0      -11.020559   -1.704195    2.252021
     61          1           0      -12.689230   -1.478965    2.592928
     62          1           0      -13.700573   -2.564047    0.789937
     63          1           0      -11.880703   -3.007983    0.707057
     64          1           0      -12.719676   -2.263920   -0.729872
     65          1           0        9.078639   -0.177120    0.818558
     66          1           0      -10.181596   -2.121793   -0.667664
     67          1           0       10.262253    1.075277   -2.222417
     68          1           0       12.064498    1.313142   -2.656902
     69          1           0       11.312136   -0.274359   -3.125001
     70          1           0      -11.154693    2.180253   -2.250711
     71          1           0       -9.821512    1.061125   -1.968047
     72          1           0      -10.094879    2.611236   -1.244336
     73          1           0       14.895571   -3.095306    0.028045
     74          1           0      -15.182792    1.900977    1.441110
     75          1           0        9.934648    2.279228   -0.629931
     76          1           0       -8.972808    0.348204    0.582635
     77          1           0        8.490155    4.150764   -0.436704
     78          1           0        7.160856    4.123106    0.626049
     79          1           0        8.745257    3.747371    1.528424
     80          1           0       -8.500840   -3.344297   -0.052795
     81          1           0       -8.147024   -2.689036   -1.773046
     82          1           0       -6.706674   -3.426891   -0.906515
     83          1           0        7.028872    0.524437   -0.452916
     84          1           0       -6.265259    0.285460   -0.047271
     85          1           0        5.353957    3.098011    0.597195
     86          1           0       -5.219104   -2.232726   -0.871968
     87          1           0        4.333088    0.149241   -0.260432
     88          1           0       -4.115782    0.665679   -0.002267
     89          1           0        3.329335    3.138404    1.333465
     90          1           0        1.747959    3.069947    0.739624
     91          1           0        3.101091    3.669595   -0.260569
     92          1           0       -2.894676   -3.156799   -0.370692
     93          1           0       -2.592018   -2.525845   -2.058511
     94          1           0       -1.313334   -2.801327   -0.754301
     95          1           0        2.352387   -0.362223   -0.205567
     96          1           0       -1.992144    1.042061   -0.459405
     97          1           0        0.255063    1.851305   -0.186324
     98          1           0        0.300383   -1.211800   -0.479160
 ---------------------------------------------------------------------

 SCF Done:  E(RCAM-B3LYP) =  -1706.94334523     A.U. after   13 cycles

 Excitation energies and oscillator strengths:

 Excited State   1:      Singlet-A      3.3884 eV  365.90 nm  f=3.5966  <S**2>=0.000
     155 ->158        -0.20015
     156 ->157         0.66811
 This state for optimization and/or second-order correction.
 Total Energy, E(TD-HF/TD-DFT) =  -1706.81882288
 Copying the excited state density for this state as the 1-particle RhoCI density.

 The electronic state is 1-A.
 Alpha  occ. eigenvalues --  -19.20794 -19.20708 -10.32073 -10.30131 -10.28398
 Alpha  occ. eigenvalues --  -10.27878 -10.27470 -10.27445 -10.27385 -10.27120
 Alpha  occ. eigenvalues --  -10.26713 -10.26667 -10.26563 -10.26514 -10.26489
 Alpha  occ. eigenvalues --  -10.26390 -10.26385 -10.26237 -10.26231 -10.26211
 Alpha  occ. eigenvalues --  -10.25883 -10.25694 -10.25572 -10.25476 -10.25258
 Alpha  occ. eigenvalues --  -10.25237 -10.25209 -10.25151 -10.25144 -10.25118
 Alpha  occ. eigenvalues --  -10.25109 -10.25040 -10.24973 -10.24878 -10.24644
 Alpha  occ. eigenvalues --  -10.24501 -10.24445 -10.24279 -10.24242 -10.23511
 Alpha  occ. eigenvalues --  -10.23421 -10.22687  -1.08182  -1.04969  -0.94835
 Alpha  occ. eigenvalues --   -0.94409  -0.92446  -0.91717  -0.91218  -0.89829
 Alpha  occ. eigenvalues --   -0.89034  -0.88094  -0.87595  -0.85852  -0.85290
 Alpha  occ. eigenvalues --   -0.83281  -0.82229  -0.81150  -0.81001  -0.78454
 Alpha  occ. eigenvalues --   -0.78236  -0.77283  -0.76647  -0.76551  -0.76300
 Alpha  occ. eigenvalues --   -0.75763  -0.75554  -0.74945  -0.74541  -0.69873
 Alpha  occ. eigenvalues --   -0.68230  -0.67202  -0.65916  -0.64712  -0.64435
 Alpha  occ. eigenvalues --   -0.64050  -0.62047  -0.60988  -0.60671  -0.59604
 Alpha  occ. eigenvalues --   -0.58724  -0.57993  -0.57544  -0.57268  -0.56246
 Alpha  occ. eigenvalues --   -0.56112  -0.55508  -0.55380  -0.54110  -0.53481
 Alpha  occ. eigenvalues --   -0.53373  -0.53008  -0.52255  -0.51985  -0.51513
 Alpha  occ. eigenvalues --   -0.50694  -0.50391  -0.50311  -0.50078  -0.49665
 Alpha  occ. eigenvalues --   -0.49304  -0.49212  -0.48835  -0.48737  -0.48614
 Alpha  occ. eigenvalues --   -0.48463  -0.48180  -0.47990  -0.47673  -0.47131
 Alpha  occ. eigenvalues --   -0.47075  -0.46131  -0.45443  -0.45243  -0.44867
 Alpha  occ. eigenvalues --   -0.44625  -0.44378  -0.44229  -0.43734  -0.43442
 Alpha  occ. eigenvalues --   -0.43245  -0.42597  -0.42461  -0.42111  -0.42004
 Alpha  occ. eigenvalues --   -0.41699  -0.41476  -0.41074  -0.40932  -0.40842
 Alpha  occ. eigenvalues --   -0.40630  -0.40392  -0.40166  -0.39379  -0.39224
 Alpha  occ. eigenvalues --   -0.39064  -0.38773  -0.38463  -0.38246  -0.37609
 Alpha  occ. eigenvalues --   -0.37317  -0.37218  -0.36441  -0.35701  -0.35096
 Alpha  occ. eigenvalues --   -0.34762  -0.34286  -0.33458  -0.32825  -0.32449
 Alpha  occ. eigenvalues --   -0.31207  -0.29897  -0.27868  -0.26812  -0.24705
 Alpha  occ. eigenvalues --   -0.22202
 Alpha virt. eigenvalues --   -0.02462   0.00948   0.03988   0.06249   0.08509
 Alpha virt. eigenvalues --    0.10102   0.10446   0.11081   0.11451   0.11961
 Alpha virt. eigenvalues --    0.12189   0.12531   0.12566   0.13007   0.13328

 Mulliken charges:
               1
     1  O   -0.579067
     2  O   -0.558170
     3  C   -0.084789
     4  C   -0.012655
     5  C   -0.145728
     6  C   -0.194885
     7  C    0.157154
     8  C    0.139159
     9  C    0.093299
    10  C    0.043266
    11  C   -0.215243
    12  C   -0.212474
    13  C    0.063379
    14  C    0.057768
    15  C   -0.296902
    16  C   -0.279930
    17  C   -0.289281
    18  C   -0.299193
    19  C   -0.117609
    20  C   -0.133975
    21  C   -0.342434
    22  C   -0.368611
    23  C   -0.106690
    24  C   -0.075690
    25  C    0.078122
    26  C    0.093291
    27  C   -0.345016
    28  C   -0.376698
    29  C   -0.112404
    30  C   -0.104564
    31  C   -0.144559
    32  C   -0.058451
    33  C   -0.055089
    34  C   -0.128472
    35  C    0.120949
    36  C    0.086293
    37  C   -0.365923
    38  C   -0.359752
    39  C   -0.171631
    40  C   -0.139819
    41  C   -0.067245
    42  C   -0.076188
    43  H    0.090520
    44  H    0.085723
    45  H    0.061414
    46  H    0.097780
    47  H    0.084811
    48  H    0.077499
    49  H    0.117724
    50  H    0.073194
    51  H    0.124355
    52  H    0.123797
    53  H    0.082088
    54  H    0.099369
    55  H    0.113103
    56  H    0.111916
    57  H    0.098224
    58  H    0.115602
    59  H    0.107036
    60  H    0.096969
    61  H    0.093861
    62  H    0.081980
    63  H    0.107305
    64  H    0.119662
    65  H    0.069417
    66  H    0.082333
    67  H    0.110844
    68  H    0.118359
    69  H    0.105637
    70  H    0.104571
    71  H    0.108096
    72  H    0.121085
    73  H    0.291786
    74  H    0.298803
    75  H    0.071898
    76  H    0.092113
    77  H    0.102091
    78  H    0.118930
    79  H    0.127418
    80  H    0.072299
    81  H    0.137590
    82  H    0.117370
    83  H    0.087297
    84  H    0.068410
    85  H    0.080094
    86  H    0.072332
    87  H    0.072023
    88  H    0.077045
    89  H    0.131526
    90  H    0.100594
    91  H    0.123174
    92  H    0.132342
    93  H    0.121646
    94  H    0.097542
    95  H    0.066759
    96  H    0.085935
    97  H    0.070121
    98  H    0.085052
 Sum of Mulliken charges =  -0.00000

 Dipole moment (field-independent basis, Debye):
    X=             -0.0973    Y=             -1.8675    Z=              1.4902  Tot=              2.3912
 Quadrupole moment (field-independent basis, Debye-Ang):
   XX=           -287.3969   YY=           -242.0453   ZZ=           -259.6683
   XY=             10.6782   XZ=              1.8156   YZ=              1.5741

 Normal termination of Gaussian 16 at Fri Jul  5 17:28:01 2019.
