 Gaussian 16, Revision A.03,
 Gaussian 16:  ES64L-G16RevA.03 25-Dec-2016

 -------------------------------------
 # td=(NStates=1) CAM-B3LYP/6-31G(d,p)
 -------------------------------------

 --
 TD
 --
 Symbolic Z-matrix:
 Charge =  0 Multiplicity = 1

                         Standard orientation:
 ---------------------------------------------------------------------
 Center     Atomic      Atomic             Coordinates (Angstroms)
 Number     Number       Type             X           Y           Z
 ---------------------------------------------------------------------
      1          8           0       14.660357   -2.255130   -0.587702
      2          8           0      -14.751882    1.881632    0.806127
      3          6           0       11.475455   -1.029208    1.271378
      4          6           0      -12.291890   -0.950467    0.736951
      5          6           0       12.940037   -1.406579    1.048500
      6          6           0      -13.731995   -0.264756    0.791270
      7          6           0       13.233653   -1.940055   -0.369362
      8          6           0      -13.541445    1.275004    0.872893
      9          6           0       10.930531   -0.216670    0.046881
     10          6           0      -11.324635   -0.304207   -0.295616
     11          6           0       12.911865   -0.914834   -1.327195
     12          6           0      -12.869977    1.739905   -0.414216
     13          6           0       11.653052   -0.170987   -1.030310
     14          6           0      -11.695870    0.904564   -0.734020
     15          6           0       11.295750   -0.273422    2.496414
     16          6           0       10.634909   -2.324891    1.389825
     17          6           0      -11.601419   -0.909947    2.151585
     18          6           0      -12.458105   -2.422535    0.277189
     19          6           0        9.679463    0.371069    0.237683
     20          6           0      -10.033900   -0.928700   -0.480716
     21          6           0       11.133680    0.430189   -2.378282
     22          6           0      -10.722737    1.613658   -1.914204
     23          6           0        9.419003    1.676196   -0.048608
     24          6           0       -8.831973   -0.405975   -0.335893
     25          6           0        8.035083    2.279577    0.046611
     26          6           0       -7.607361   -1.133996   -0.504968
     27          6           0        8.049021    3.785198    0.325804
     28          6           0       -7.784637   -2.494244   -0.968125
     29          6           0        6.968069    1.534846   -0.009002
     30          6           0       -6.355048   -0.544697   -0.347423
     31          6           0        5.529062    2.062636    0.072052
     32          6           0       -5.049808   -1.077157   -0.580734
     33          6           0        4.526179    1.315061   -0.115648
     34          6           0       -3.937211   -0.452214   -0.203370
     35          6           0        3.164371    1.684030    0.088758
     36          6           0       -2.564543   -0.942143   -0.381927
     37          6           0        2.735628    3.046950    0.589339
     38          6           0       -2.393874   -2.438846   -0.631126
     39          6           0        2.152329    0.767178   -0.129680
     40          6           0       -1.665943   -0.067439   -0.141528
     41          6           0        0.598898    0.755370    0.001429
     42          6           0       -0.150612   -0.230169   -0.329649
     43          1           0       13.698814   -0.605357    1.337306
     44          1           0       13.203592   -2.267342    1.885647
     45          1           0      -14.369970   -0.804756    1.695722
     46          1           0      -14.117183   -0.564426   -0.092968
     47          1           0       12.492170   -2.779439   -0.696076
     48          1           0      -12.767284    1.553997    1.577774
     49          1           0       13.596558   -0.079166   -1.468871
     50          1           0       12.810138   -1.214701   -2.275481
     51          1           0      -13.632686    1.572363   -1.148803
     52          1           0      -12.713222    2.881567   -0.445868
     53          1           0       11.822719   -0.685243    3.371284
     54          1           0       10.212879   -0.071164    2.909648
     55          1           0       11.866815    0.723929    2.518225
     56          1           0       10.716123   -2.901676    0.346011
     57          1           0       11.141454   -2.848063    2.299522
     58          1           0        9.516592   -2.153017    1.739560
     59          1           0      -11.190173    0.008758    2.737775
     60          1           0      -10.821460   -1.708272    2.216369
     61          1           0      -12.137317   -1.585161    2.845513
     62          1           0      -13.238804   -2.792051    0.782589
     63          1           0      -11.670302   -3.072302    0.626461
     64          1           0      -12.451599   -2.374842   -0.871926
     65          1           0        9.037581   -0.124271    0.976664
     66          1           0      -10.055536   -1.964007   -0.569479
     67          1           0        9.996433    0.669148   -2.517683
     68          1           0       11.521203    1.400367   -2.663970
     69          1           0       11.350759   -0.191528   -3.053797
     70          1           0      -11.440201    1.829145   -2.764588
     71          1           0       -9.968455    0.915145   -2.266348
     72          1           0      -10.377483    2.578322   -1.524332
     73          1           0       14.720809   -3.015994    0.022202
     74          1           0      -15.087587    1.941628    1.785774
     75          1           0       10.178814    2.274963   -0.267013
     76          1           0       -8.680276    0.630686   -0.050048
     77          1           0        8.683476    4.308008   -0.427961
     78          1           0        7.232281    4.309503    0.207188
     79          1           0        8.461078    3.815275    1.287483
     80          1           0       -8.398318   -3.158548   -0.175307
     81          1           0       -8.068598   -2.439135   -2.065920
     82          1           0       -6.864564   -2.976348   -1.146702
     83          1           0        7.093475    0.468379   -0.088845
     84          1           0       -6.308889    0.523615   -0.113708
     85          1           0        5.569479    3.079600    0.409959
     86          1           0       -5.004176   -2.026048   -0.915796
     87          1           0        4.399176    0.118967   -0.412489
     88          1           0       -4.058318    0.609172    0.345108
     89          1           0        3.528922    3.336632    1.467084
     90          1           0        1.743561    3.157093    0.958874
     91          1           0        2.736222    3.754785   -0.252265
     92          1           0       -3.189597   -3.124163   -0.034339
     93          1           0       -2.364673   -2.723663   -1.722640
     94          1           0       -1.287000   -2.812134   -0.364438
     95          1           0        2.457449   -0.375933   -0.252425
     96          1           0       -1.896265    1.104438   -0.037231
     97          1           0        0.024313    1.608766    0.601229
     98          1           0        0.360900   -1.131284   -0.648810
 ---------------------------------------------------------------------

 SCF Done:  E(RCAM-B3LYP) =  -1706.95534500     A.U. after   13 cycles

 Excitation energies and oscillator strengths:

 Excited State   1:      Singlet-A      3.4296 eV  361.51 nm  f=3.5930  <S**2>=0.000
     154 ->159        -0.10517
     155 ->158         0.25390
     156 ->157         0.63515
 This state for optimization and/or second-order correction.
 Total Energy, E(TD-HF/TD-DFT) =  -1706.82930924
 Copying the excited state density for this state as the 1-particle RhoCI density.

 The electronic state is 1-A.
 Alpha  occ. eigenvalues --  -19.22306 -19.22031 -10.31469 -10.29805 -10.28483
 Alpha  occ. eigenvalues --  -10.27714 -10.27472 -10.27369 -10.27348 -10.27329
 Alpha  occ. eigenvalues --  -10.27305 -10.27167 -10.26966 -10.26793 -10.26695
 Alpha  occ. eigenvalues --  -10.26412 -10.26321 -10.26266 -10.26177 -10.25949
 Alpha  occ. eigenvalues --  -10.25916 -10.25774 -10.25714 -10.25676 -10.25574
 Alpha  occ. eigenvalues --  -10.25492 -10.25200 -10.25135 -10.25039 -10.24918
 Alpha  occ. eigenvalues --  -10.24740 -10.24683 -10.24678 -10.24654 -10.24570
 Alpha  occ. eigenvalues --  -10.24534 -10.24343 -10.24243 -10.24174 -10.23852
 Alpha  occ. eigenvalues --  -10.23575 -10.23526  -1.11161  -1.08677  -0.94872
 Alpha  occ. eigenvalues --   -0.92844  -0.92088  -0.91629  -0.90596  -0.89835
 Alpha  occ. eigenvalues --   -0.88353  -0.87606  -0.86119  -0.85404  -0.85162
 Alpha  occ. eigenvalues --   -0.83088  -0.82294  -0.80589  -0.78788  -0.77572
 Alpha  occ. eigenvalues --   -0.76508  -0.76290  -0.75843  -0.75672  -0.75609
 Alpha  occ. eigenvalues --   -0.75253  -0.74918  -0.74622  -0.73893  -0.70071
 Alpha  occ. eigenvalues --   -0.69226  -0.67369  -0.65917  -0.65547  -0.63757
 Alpha  occ. eigenvalues --   -0.63282  -0.62460  -0.60939  -0.60543  -0.60317
 Alpha  occ. eigenvalues --   -0.59554  -0.59152  -0.58315  -0.57803  -0.55939
 Alpha  occ. eigenvalues --   -0.55818  -0.54989  -0.54374  -0.53868  -0.53101
 Alpha  occ. eigenvalues --   -0.52726  -0.52217  -0.51815  -0.51207  -0.51010
 Alpha  occ. eigenvalues --   -0.50848  -0.50191  -0.49604  -0.49411  -0.49368
 Alpha  occ. eigenvalues --   -0.49209  -0.48595  -0.48312  -0.48103  -0.48020
 Alpha  occ. eigenvalues --   -0.47767  -0.47678  -0.47532  -0.46505  -0.46039
 Alpha  occ. eigenvalues --   -0.45873  -0.45585  -0.45143  -0.44962  -0.44437
 Alpha  occ. eigenvalues --   -0.44337  -0.44163  -0.43775  -0.43100  -0.42739
 Alpha  occ. eigenvalues --   -0.42563  -0.42258  -0.42216  -0.42105  -0.41852
 Alpha  occ. eigenvalues --   -0.41617  -0.41291  -0.41225  -0.40805  -0.40409
 Alpha  occ. eigenvalues --   -0.40229  -0.40202  -0.39853  -0.39293  -0.39130
 Alpha  occ. eigenvalues --   -0.38803  -0.38738  -0.38648  -0.38190  -0.37905
 Alpha  occ. eigenvalues --   -0.37871  -0.37201  -0.36806  -0.36352  -0.36256
 Alpha  occ. eigenvalues --   -0.35102  -0.33770  -0.33323  -0.33139  -0.32126
 Alpha  occ. eigenvalues --   -0.31250  -0.30670  -0.28226  -0.26668  -0.23904
 Alpha  occ. eigenvalues --   -0.22146
 Alpha virt. eigenvalues --   -0.02235   0.00075   0.03091   0.06616   0.09204
 Alpha virt. eigenvalues --    0.10726   0.11278   0.11392   0.11535   0.12441
 Alpha virt. eigenvalues --    0.12660   0.12960   0.13413   0.13643   0.13762

 Mulliken charges:
               1
     1  O   -0.552301
     2  O   -0.543953
     3  C   -0.014612
     4  C   -0.023871
     5  C   -0.189739
     6  C   -0.161694
     7  C    0.139377
     8  C    0.160982
     9  C    0.117714
    10  C    0.071687
    11  C   -0.188286
    12  C   -0.231395
    13  C   -0.016019
    14  C    0.011699
    15  C   -0.309788
    16  C   -0.275547
    17  C   -0.310688
    18  C   -0.320718
    19  C   -0.116937
    20  C   -0.126187
    21  C   -0.362210
    22  C   -0.357889
    23  C   -0.095090
    24  C   -0.058176
    25  C    0.065781
    26  C    0.110922
    27  C   -0.362447
    28  C   -0.380473
    29  C   -0.121995
    30  C   -0.140968
    31  C   -0.123253
    32  C   -0.061647
    33  C   -0.057668
    34  C   -0.121990
    35  C    0.130019
    36  C    0.161794
    37  C   -0.360602
    38  C   -0.372596
    39  C   -0.185391
    40  C   -0.163641
    41  C   -0.072487
    42  C   -0.068353
    43  H    0.110690
    44  H    0.053752
    45  H    0.062819
    46  H    0.109359
    47  H    0.080585
    48  H    0.092343
    49  H    0.124431
    50  H    0.116952
    51  H    0.127390
    52  H    0.103193
    53  H    0.097625
    54  H    0.095999
    55  H    0.095281
    56  H    0.091789
    57  H    0.090835
    58  H    0.094754
    59  H    0.103994
    60  H    0.091483
    61  H    0.083239
    62  H    0.106361
    63  H    0.099661
    64  H    0.108118
    65  H    0.090269
    66  H    0.080623
    67  H    0.105111
    68  H    0.111628
    69  H    0.114169
    70  H    0.094196
    71  H    0.119163
    72  H    0.105956
    73  H    0.306472
    74  H    0.307519
    75  H    0.080149
    76  H    0.078101
    77  H    0.105498
    78  H    0.116009
    79  H    0.135134
    80  H    0.107821
    81  H    0.124193
    82  H    0.102819
    83  H    0.078380
    84  H    0.071159
    85  H    0.092935
    86  H    0.070956
    87  H    0.078057
    88  H    0.075387
    89  H    0.091953
    90  H    0.120823
    91  H    0.122956
    92  H    0.113724
    93  H    0.127034
    94  H    0.100044
    95  H    0.061523
    96  H    0.088022
    97  H    0.074141
    98  H    0.086060
 Sum of Mulliken charges =  -0.00000

 Dipole moment (field-independent basis, Debye):
    X=              0.3728    Y=             -0.8506    Z=              2.5756  Tot=              2.7379
 Quadrupole moment (field-independent basis, Debye-Ang):
   XX=           -278.1642   YY=           -241.7425   ZZ=           -257.4403
   XY=              5.2438   XZ=             -6.8942   YZ=              3.7139

 Normal termination of Gaussian 16 at Wed Jul 10 07:03:28 2019.
