 Gaussian 16, Revision A.03,
 Gaussian 16:  ES64L-G16RevA.03 25-Dec-2016

 -------------------------------------
 # td=(NStates=1) CAM-B3LYP/6-31G(d,p)
 -------------------------------------

 --
 TD
 --
 Symbolic Z-matrix:
 Charge =  0 Multiplicity = 1

                         Standard orientation:
 ---------------------------------------------------------------------
 Center     Atomic      Atomic             Coordinates (Angstroms)
 Number     Number       Type             X           Y           Z
 ---------------------------------------------------------------------
      1          8           0       14.536012   -2.451856   -0.448086
      2          8           0      -14.922895    1.859843    0.404511
      3          6           0       11.455606   -1.121007    1.227890
      4          6           0      -12.243383   -0.851863    0.873969
      5          6           0       12.940999   -1.393018    1.078603
      6          6           0      -13.729777   -0.260405    0.693255
      7          6           0       13.215670   -1.939981   -0.231594
      8          6           0      -13.610173    1.316001    0.551464
      9          6           0       10.886306   -0.329428   -0.027173
     10          6           0      -11.311589   -0.281411   -0.161817
     11          6           0       12.976693   -0.920522   -1.352030
     12          6           0      -12.866803    1.699247   -0.649718
     13          6           0       11.615171   -0.287637   -1.140640
     14          6           0      -11.553975    0.871284   -0.855611
     15          6           0       11.272947    0.061143    2.388817
     16          6           0       10.569776   -2.238232    1.559276
     17          6           0      -11.706395   -0.601065    2.205466
     18          6           0      -12.569342   -2.388807    0.619213
     19          6           0        9.606660    0.317479    0.090797
     20          6           0      -10.127126   -1.109909   -0.338668
     21          6           0       11.311041    0.385334   -2.440512
     22          6           0      -10.568904    1.438997   -1.838013
     23          6           0        9.246929    1.625688   -0.201933
     24          6           0       -8.848636   -0.600772   -0.240758
     25          6           0        7.999199    2.248958    0.109474
     26          6           0       -7.558920   -1.348040   -0.512007
     27          6           0        8.141236    3.656887    0.535200
     28          6           0       -7.520763   -2.905260   -0.710817
     29          6           0        6.897625    1.571952   -0.171181
     30          6           0       -6.369650   -0.635485   -0.254531
     31          6           0        5.577382    2.102750    0.046405
     32          6           0       -5.010352   -1.138335   -0.416051
     33          6           0        4.503055    1.266085   -0.122697
     34          6           0       -3.958485   -0.419670   -0.130221
     35          6           0        3.059709    1.682154    0.204588
     36          6           0       -2.539890   -0.774679   -0.370884
     37          6           0        2.889076    3.100546    0.657711
     38          6           0       -2.251743   -2.278894   -0.867566
     39          6           0        2.133194    0.778046   -0.202656
     40          6           0       -1.702802    0.119084   -0.050836
     41          6           0        0.707046    0.895464    0.012871
     42          6           0       -0.194171   -0.026027   -0.242764
     43          1           0       13.545416   -0.418983    1.163179
     44          1           0       13.214282   -2.344795    1.718906
     45          1           0      -14.232249   -0.511084    1.535400
     46          1           0      -14.279655   -0.481033   -0.299600
     47          1           0       12.542890   -2.758477   -0.343354
     48          1           0      -13.052210    1.798159    1.380954
     49          1           0       13.633046   -0.028508   -1.445351
     50          1           0       12.848494   -1.570647   -2.251872
     51          1           0      -13.367489    1.640416   -1.959814
     52          1           0      -12.767382    2.916240   -0.574607
     53          1           0       11.937429   -0.193767    3.290493
     54          1           0       10.201171    0.292222    2.569667
     55          1           0       11.791796    0.985199    2.125485
     56          1           0       10.896152   -3.081118    0.788986
     57          1           0       10.895738   -2.732236    2.599951
     58          1           0        9.548031   -1.999232    1.722168
     59          1           0      -11.974280    0.565555    2.469744
     60          1           0      -10.576327   -0.922962    2.548518
     61          1           0      -12.221270   -0.986237    3.046393
     62          1           0      -13.569780   -2.624401    1.169839
     63          1           0      -11.592861   -3.008334    0.847932
     64          1           0      -12.800078   -2.627378   -0.454302
     65          1           0        8.577333   -0.054091    0.445356
     66          1           0      -10.227719   -2.059180   -0.822952
     67          1           0       10.254300    0.968889   -2.409640
     68          1           0       12.079639    1.152793   -2.725645
     69          1           0       11.447018   -0.218974   -3.259852
     70          1           0      -10.949751    1.810737   -2.579385
     71          1           0       -9.802539    0.584549   -2.011588
     72          1           0       -9.960420    2.344473   -1.497276
     73          1           0       14.609111   -3.310052    0.148216
     74          1           0      -15.545227    1.833747    1.293202
     75          1           0       10.141713    2.184821   -0.591702
     76          1           0       -8.813468    0.361957    0.222659
     77          1           0        8.704740    4.189148   -0.305713
     78          1           0        7.073632    4.131266    0.644158
     79          1           0        8.608106    4.110943    1.542873
     80          1           0       -7.949962   -3.611546   -0.016797
     81          1           0       -8.115708   -3.009906   -1.753475
     82          1           0       -6.430007   -3.300459   -0.861467
     83          1           0        7.009234    0.568257   -0.462407
     84          1           0       -6.523182    0.433198    0.390732
     85          1           0        5.369387    3.038377    0.281185
     86          1           0       -5.038297   -2.067837   -1.034352
     87          1           0        4.589431    0.371682   -0.440399
     88          1           0       -4.092520    0.643543    0.250029
     89          1           0        3.275060    3.175952    1.499565
     90          1           0        1.801713    3.336513    0.631541
     91          1           0        3.611792    3.656425    0.047554
     92          1           0       -2.449807   -2.793625    0.139492
     93          1           0       -3.015103   -2.591219   -1.646738
     94          1           0       -1.209444   -2.508787   -1.468830
     95          1           0        2.413082   -0.178233   -0.623121
     96          1           0       -1.869227    1.237223    0.112886
     97          1           0        0.312456    1.791029    0.112965
     98          1           0        0.014181   -1.114023   -0.497123
 ---------------------------------------------------------------------

 SCF Done:  E(RCAM-B3LYP) =  -1706.86379255     A.U. after   14 cycles

 Excitation energies and oscillator strengths:

 Excited State   1:      Singlet-A      3.3067 eV  374.95 nm  f=3.6429  <S**2>=0.000
     155 ->158        -0.24659
     156 ->157         0.64368
 This state for optimization and/or second-order correction.
 Total Energy, E(TD-HF/TD-DFT) =  -1706.74227417
 Copying the excited state density for this state as the 1-particle RhoCI density.

 The electronic state is 1-A.
 Alpha  occ. eigenvalues --  -19.21346 -19.21344 -10.30453 -10.29237 -10.29010
 Alpha  occ. eigenvalues --  -10.28808 -10.28663 -10.28092 -10.28036 -10.28007
 Alpha  occ. eigenvalues --  -10.27724 -10.27360 -10.27340 -10.27293 -10.26966
 Alpha  occ. eigenvalues --  -10.26614 -10.26600 -10.26473 -10.26229 -10.26228
 Alpha  occ. eigenvalues --  -10.26190 -10.26142 -10.26126 -10.26106 -10.26057
 Alpha  occ. eigenvalues --  -10.26053 -10.25987 -10.25902 -10.25809 -10.25733
 Alpha  occ. eigenvalues --  -10.25447 -10.25392 -10.25369 -10.25328 -10.25169
 Alpha  occ. eigenvalues --  -10.25058 -10.25041 -10.24934 -10.24818 -10.24610
 Alpha  occ. eigenvalues --  -10.24530 -10.23094  -1.07763  -1.06803  -0.93942
 Alpha  occ. eigenvalues --   -0.93072  -0.92508  -0.91940  -0.90731  -0.88965
 Alpha  occ. eigenvalues --   -0.87356  -0.87076  -0.86189  -0.85470  -0.84736
 Alpha  occ. eigenvalues --   -0.83226  -0.82327  -0.80194  -0.79701  -0.78518
 Alpha  occ. eigenvalues --   -0.76608  -0.76185  -0.76002  -0.75590  -0.75394
 Alpha  occ. eigenvalues --   -0.75235  -0.74744  -0.74329  -0.73546  -0.70077
 Alpha  occ. eigenvalues --   -0.68459  -0.66826  -0.65494  -0.64574  -0.63782
 Alpha  occ. eigenvalues --   -0.63029  -0.62882  -0.61924  -0.61368  -0.59784
 Alpha  occ. eigenvalues --   -0.59174  -0.58960  -0.57770  -0.57406  -0.56228
 Alpha  occ. eigenvalues --   -0.55987  -0.55094  -0.54744  -0.54045  -0.53805
 Alpha  occ. eigenvalues --   -0.52669  -0.52434  -0.52119  -0.51771  -0.50757
 Alpha  occ. eigenvalues --   -0.50400  -0.50056  -0.49601  -0.49458  -0.49133
 Alpha  occ. eigenvalues --   -0.48604  -0.48331  -0.48258  -0.48165  -0.47573
 Alpha  occ. eigenvalues --   -0.47310  -0.47203  -0.46782  -0.46642  -0.46506
 Alpha  occ. eigenvalues --   -0.45887  -0.45525  -0.45210  -0.45172  -0.44672
 Alpha  occ. eigenvalues --   -0.44381  -0.44031  -0.43618  -0.43457  -0.43428
 Alpha  occ. eigenvalues --   -0.43194  -0.43016  -0.42852  -0.42325  -0.42075
 Alpha  occ. eigenvalues --   -0.41839  -0.41565  -0.41357  -0.40755  -0.40395
 Alpha  occ. eigenvalues --   -0.39965  -0.39934  -0.39529  -0.39296  -0.38911
 Alpha  occ. eigenvalues --   -0.38718  -0.38238  -0.38179  -0.37587  -0.37283
 Alpha  occ. eigenvalues --   -0.37006  -0.36457  -0.36245  -0.36025  -0.35597
 Alpha  occ. eigenvalues --   -0.34948  -0.34216  -0.32928  -0.31905  -0.31711
 Alpha  occ. eigenvalues --   -0.30290  -0.29566  -0.27956  -0.26727  -0.24002
 Alpha  occ. eigenvalues --   -0.22069
 Alpha virt. eigenvalues --   -0.02632  -0.00117   0.03455   0.06117   0.07485
 Alpha virt. eigenvalues --    0.09314   0.09439   0.09969   0.10436   0.10901
 Alpha virt. eigenvalues --    0.11784   0.12693   0.12709   0.12872   0.13146

 Mulliken charges:
               1
     1  O   -0.571170
     2  O   -0.578453
     3  C    0.005551
     4  C   -0.009158
     5  C   -0.169426
     6  C   -0.186941
     7  C    0.165291
     8  C    0.163830
     9  C    0.080700
    10  C    0.043762
    11  C   -0.213946
    12  C   -0.176116
    13  C    0.038688
    14  C    0.071985
    15  C   -0.318984
    16  C   -0.288675
    17  C   -0.294308
    18  C   -0.300798
    19  C   -0.138895
    20  C   -0.147289
    21  C   -0.358830
    22  C   -0.336797
    23  C   -0.119497
    24  C   -0.092441
    25  C    0.102408
    26  C    0.066027
    27  C   -0.369643
    28  C   -0.351926
    29  C   -0.103633
    30  C   -0.118560
    31  C   -0.071161
    32  C   -0.089029
    33  C   -0.079199
    34  C   -0.105013
    35  C    0.076732
    36  C    0.111184
    37  C   -0.356676
    38  C   -0.355802
    39  C   -0.130367
    40  C   -0.138207
    41  C   -0.070279
    42  C   -0.092817
    43  H    0.104171
    44  H    0.065671
    45  H    0.088474
    46  H    0.114204
    47  H    0.076121
    48  H    0.090666
    49  H    0.123278
    50  H    0.115746
    51  H    0.050339
    52  H    0.093966
    53  H    0.084090
    54  H    0.110924
    55  H    0.103952
    56  H    0.084154
    57  H    0.079849
    58  H    0.126251
    59  H    0.070123
    60  H    0.102247
    61  H    0.108680
    62  H    0.093070
    63  H    0.086000
    64  H    0.104764
    65  H    0.071317
    66  H    0.096318
    67  H    0.096230
    68  H    0.100569
    69  H    0.119701
    70  H    0.106431
    71  H    0.112671
    72  H    0.094276
    73  H    0.296447
    74  H    0.303433
    75  H    0.080701
    76  H    0.098069
    77  H    0.120383
    78  H    0.092344
    79  H    0.115582
    80  H    0.137797
    81  H    0.097142
    82  H    0.099983
    83  H    0.093523
    84  H    0.070336
    85  H    0.060726
    86  H    0.088609
    87  H    0.056974
    88  H    0.088595
    89  H    0.141255
    90  H    0.110867
    91  H    0.124269
    92  H    0.136186
    93  H    0.119375
    94  H    0.106930
    95  H    0.083234
    96  H    0.080777
    97  H    0.065405
    98  H    0.064683
 Sum of Mulliken charges =  -0.00000

 Dipole moment (field-independent basis, Debye):
    X=             -0.3466    Y=             -0.8551    Z=              2.1062  Tot=              2.2994
 Quadrupole moment (field-independent basis, Debye-Ang):
   XX=           -288.8886   YY=           -243.0251   ZZ=           -261.0021
   XY=              7.2858   XZ=            -13.8305   YZ=              4.7404

 Normal termination of Gaussian 16 at Sat Jun 29 11:28:47 2019.
