 Gaussian 16, Revision A.03,
 Gaussian 16:  ES64L-G16RevA.03 25-Dec-2016

 -------------------------------------
 # td=(NStates=1) CAM-B3LYP/6-31G(d,p)
 -------------------------------------

 --
 TD
 --
 Symbolic Z-matrix:
 Charge =  0 Multiplicity = 1

                         Standard orientation:
 ---------------------------------------------------------------------
 Center     Atomic      Atomic             Coordinates (Angstroms)
 Number     Number       Type             X           Y           Z
 ---------------------------------------------------------------------
      1          8           0       14.739980   -2.280120   -0.285777
      2          8           0      -14.941719    1.783076    0.947749
      3          6           0       11.449881   -1.168615    1.310557
      4          6           0      -12.330783   -0.988162    0.771704
      5          6           0       12.967491   -1.475303    1.167681
      6          6           0      -13.701305   -0.385349    0.787933
      7          6           0       13.324344   -2.032490   -0.187766
      8          6           0      -13.544767    1.209170    0.927935
      9          6           0       10.980735   -0.292495    0.035437
     10          6           0      -11.417259   -0.253705   -0.186023
     11          6           0       12.981015   -0.937511   -1.233532
     12          6           0      -12.885989    1.684128   -0.304811
     13          6           0       11.822161   -0.163504   -1.060500
     14          6           0      -11.675963    0.972583   -0.662644
     15          6           0       11.223374   -0.327246    2.620252
     16          6           0       10.590327   -2.401939    1.387048
     17          6           0      -11.603021   -0.908559    2.153981
     18          6           0      -12.420266   -2.495821    0.529816
     19          6           0        9.706086    0.362645    0.278716
     20          6           0      -10.055911   -0.995822   -0.512657
     21          6           0       11.209570    0.634326   -2.260224
     22          6           0      -10.677800    1.730995   -1.522429
     23          6           0        9.418862    1.591949    0.037160
     24          6           0       -8.797183   -0.557504   -0.182058
     25          6           0        8.046336    2.223945    0.108942
     26          6           0       -7.584010   -1.207432   -0.522216
     27          6           0        8.147178    3.737841    0.313303
     28          6           0       -7.801900   -2.590580   -1.186640
     29          6           0        6.959343    1.453860   -0.156640
     30          6           0       -6.427609   -0.618418   -0.299493
     31          6           0        5.611344    1.976511    0.028905
     32          6           0       -5.161594   -1.109215   -0.666267
     33          6           0        4.540529    1.259933   -0.210105
     34          6           0       -4.021787   -0.435947   -0.288283
     35          6           0        3.124379    1.692745   -0.006534
     36          6           0       -2.664849   -0.736696   -0.705446
     37          6           0        3.022568    3.171979    0.496430
     38          6           0       -2.514717   -2.047202   -1.265408
     39          6           0        2.140379    0.783468   -0.134233
     40          6           0       -1.654242    0.148333   -0.365291
     41          6           0        0.652459    0.923467    0.006772
     42          6           0       -0.271213   -0.020825   -0.475213
     43          1           0       13.430097   -0.474289    1.462833
     44          1           0       13.136300   -2.300783    1.845187
     45          1           0      -14.306626   -0.810982    1.635798
     46          1           0      -14.219877   -0.610253   -0.250784
     47          1           0       12.878259   -3.013499   -0.529225
     48          1           0      -13.116285    1.346436    1.846825
     49          1           0       13.638563   -0.164405   -1.363004
     50          1           0       12.847664   -1.469879   -2.285850
     51          1           0      -13.567077    1.818060   -1.123330
     52          1           0      -12.593766    2.835912   -0.156874
     53          1           0       11.559345   -0.978829    3.403457
     54          1           0       10.145399   -0.164672    2.714822
     55          1           0       11.876673    0.515918    2.571108
     56          1           0       10.728916   -3.042985    0.547869
     57          1           0       11.010998   -2.921030    2.304869
     58          1           0        9.534628   -2.283612    1.493621
     59          1           0      -11.332055    0.103264    2.482194
     60          1           0      -10.670258   -1.391314    2.215489
     61          1           0      -12.394686   -1.252824    2.745959
     62          1           0      -13.307820   -2.782037    1.038212
     63          1           0      -11.486738   -3.168896    0.682751
     64          1           0      -12.825329   -2.709914   -0.549063
     65          1           0        8.700987   -0.149805    0.723509
     66          1           0      -10.213630   -1.786301   -1.026250
     67          1           0       10.107722    0.899661   -2.357689
     68          1           0       11.525514    1.569611   -2.361039
     69          1           0       11.659466    0.068127   -3.233186
     70          1           0      -11.177272    2.325110   -2.370844
     71          1           0       -9.731436    1.217316   -1.876635
     72          1           0      -10.143944    2.525797   -0.704648
     73          1           0       14.942936   -3.063157    0.289490
     74          1           0      -15.461386    1.443982    1.706188
     75          1           0       10.284816    2.340091   -0.348151
     76          1           0       -8.833919    0.466862    0.102900
     77          1           0        8.642594    4.439464   -0.303005
     78          1           0        7.026662    3.966762    0.139626
     79          1           0        8.481905    4.147601    1.347224
     80          1           0       -8.170675   -3.475523   -0.519021
     81          1           0       -8.390701   -2.530106   -2.093040
     82          1           0       -6.959075   -3.371843   -1.450696
     83          1           0        7.140400    0.466246   -0.513984
     84          1           0       -6.299665    0.440201    0.092686
     85          1           0        5.478338    3.066721    0.250312
     86          1           0       -4.811322   -2.074596   -1.285767
     87          1           0        4.469764    0.103858   -0.699078
     88          1           0       -4.115689    0.442058    0.274930
     89          1           0        3.266245    2.972246    1.703987
     90          1           0        2.009172    3.469101    0.264860
     91          1           0        3.742503    4.012720    0.130326
     92          1           0       -2.967651   -2.603502   -0.657793
     93          1           0       -3.072206   -2.139996   -2.286615
     94          1           0       -1.389665   -2.237289   -1.503744
     95          1           0        2.284825   -0.354010   -0.397842
     96          1           0       -1.952305    0.920320    0.100515
     97          1           0        0.203710    1.703757    0.330715
     98          1           0        0.133417   -0.769769   -0.905827
 ---------------------------------------------------------------------

 SCF Done:  E(RCAM-B3LYP) =  -1706.92376711     A.U. after   13 cycles

 Excitation energies and oscillator strengths:

 Excited State   1:      Singlet-A      2.8587 eV  433.70 nm  f=3.5965  <S**2>=0.000
     155 ->158         0.15422
     156 ->157         0.68469
 This state for optimization and/or second-order correction.
 Total Energy, E(TD-HF/TD-DFT) =  -1706.81871031
 Copying the excited state density for this state as the 1-particle RhoCI density.

 The electronic state is 1-A.
 Alpha  occ. eigenvalues --  -19.20979 -19.20260 -10.31462 -10.30552 -10.28309
 Alpha  occ. eigenvalues --  -10.28128 -10.27656 -10.27632 -10.27464 -10.27191
 Alpha  occ. eigenvalues --  -10.27112 -10.27072 -10.26935 -10.26930 -10.26900
 Alpha  occ. eigenvalues --  -10.26803 -10.26735 -10.26485 -10.26386 -10.26347
 Alpha  occ. eigenvalues --  -10.26159 -10.26099 -10.25830 -10.25782 -10.25584
 Alpha  occ. eigenvalues --  -10.25576 -10.25549 -10.25526 -10.25516 -10.25514
 Alpha  occ. eigenvalues --  -10.25494 -10.25428 -10.25383 -10.25257 -10.25229
 Alpha  occ. eigenvalues --  -10.25193 -10.25163 -10.25034 -10.24741 -10.23962
 Alpha  occ. eigenvalues --  -10.23683 -10.23487  -1.08384  -1.05930  -0.93937
 Alpha  occ. eigenvalues --   -0.93154  -0.93010  -0.91456  -0.91146  -0.89577
 Alpha  occ. eigenvalues --   -0.87673  -0.87535  -0.87489  -0.85661  -0.84870
 Alpha  occ. eigenvalues --   -0.82718  -0.82109  -0.80076  -0.79179  -0.78862
 Alpha  occ. eigenvalues --   -0.76576  -0.76322  -0.76223  -0.76033  -0.75852
 Alpha  occ. eigenvalues --   -0.75466  -0.75012  -0.74520  -0.74190  -0.70928
 Alpha  occ. eigenvalues --   -0.68969  -0.68084  -0.66486  -0.65360  -0.64405
 Alpha  occ. eigenvalues --   -0.63422  -0.62886  -0.62184  -0.60897  -0.59972
 Alpha  occ. eigenvalues --   -0.59448  -0.58628  -0.58062  -0.57711  -0.56674
 Alpha  occ. eigenvalues --   -0.55146  -0.55076  -0.55054  -0.54197  -0.53904
 Alpha  occ. eigenvalues --   -0.53152  -0.52738  -0.52484  -0.51890  -0.51226
 Alpha  occ. eigenvalues --   -0.51009  -0.50548  -0.50175  -0.49967  -0.49487
 Alpha  occ. eigenvalues --   -0.48878  -0.48832  -0.48458  -0.48354  -0.47925
 Alpha  occ. eigenvalues --   -0.47516  -0.46663  -0.46482  -0.46219  -0.46097
 Alpha  occ. eigenvalues --   -0.45776  -0.45448  -0.45240  -0.45134  -0.44786
 Alpha  occ. eigenvalues --   -0.44696  -0.44428  -0.44135  -0.43949  -0.43686
 Alpha  occ. eigenvalues --   -0.43246  -0.43176  -0.42670  -0.42461  -0.42064
 Alpha  occ. eigenvalues --   -0.41891  -0.41797  -0.40949  -0.40808  -0.40654
 Alpha  occ. eigenvalues --   -0.40091  -0.39637  -0.39441  -0.39392  -0.39379
 Alpha  occ. eigenvalues --   -0.39112  -0.38609  -0.38539  -0.38001  -0.37808
 Alpha  occ. eigenvalues --   -0.37711  -0.36910  -0.36453  -0.36082  -0.35749
 Alpha  occ. eigenvalues --   -0.35492  -0.34725  -0.33187  -0.32236  -0.31810
 Alpha  occ. eigenvalues --   -0.31322  -0.28843  -0.27657  -0.26460  -0.24524
 Alpha  occ. eigenvalues --   -0.21166
 Alpha virt. eigenvalues --   -0.04178   0.00169   0.03092   0.06265   0.08060
 Alpha virt. eigenvalues --    0.09403   0.11116   0.11488   0.11786   0.12237
 Alpha virt. eigenvalues --    0.12451   0.12651   0.12739   0.12868   0.13591

 Mulliken charges:
               1
     1  O   -0.568196
     2  O   -0.590556
     3  C   -0.040282
     4  C   -0.013376
     5  C   -0.181458
     6  C   -0.217103
     7  C    0.168784
     8  C    0.177275
     9  C    0.038831
    10  C    0.022516
    11  C   -0.217313
    12  C   -0.226058
    13  C    0.053417
    14  C    0.095151
    15  C   -0.291202
    16  C   -0.294593
    17  C   -0.293208
    18  C   -0.306013
    19  C   -0.113653
    20  C   -0.125307
    21  C   -0.358144
    22  C   -0.351236
    23  C   -0.095279
    24  C   -0.095526
    25  C    0.061654
    26  C    0.140422
    27  C   -0.361445
    28  C   -0.380944
    29  C   -0.101765
    30  C   -0.147758
    31  C   -0.104649
    32  C   -0.070730
    33  C   -0.089422
    34  C   -0.125285
    35  C    0.100470
    36  C    0.121744
    37  C   -0.354839
    38  C   -0.381090
    39  C   -0.147870
    40  C   -0.094623
    41  C   -0.070821
    42  C   -0.047972
    43  H    0.108671
    44  H    0.076235
    45  H    0.075629
    46  H    0.099535
    47  H    0.090150
    48  H    0.104569
    49  H    0.135755
    50  H    0.095678
    51  H    0.136681
    52  H    0.088376
    53  H    0.094924
    54  H    0.110417
    55  H    0.104240
    56  H    0.102346
    57  H    0.081398
    58  H    0.110222
    59  H    0.092660
    60  H    0.120478
    61  H    0.096713
    62  H    0.106998
    63  H    0.106839
    64  H    0.080877
    65  H    0.078386
    66  H    0.083403
    67  H    0.125968
    68  H    0.128203
    69  H    0.070233
    70  H    0.103106
    71  H    0.122583
    72  H    0.074762
    73  H    0.303765
    74  H    0.301514
    75  H    0.066352
    76  H    0.083967
    77  H    0.133717
    78  H    0.084091
    79  H    0.111458
    80  H    0.108680
    81  H    0.132158
    82  H    0.094498
    83  H    0.102032
    84  H    0.094637
    85  H    0.092011
    86  H    0.080682
    87  H    0.064555
    88  H    0.069205
    89  H    0.113418
    90  H    0.118912
    91  H    0.117450
    92  H    0.143973
    93  H    0.111997
    94  H    0.099237
    95  H    0.083257
    96  H    0.054789
    97  H    0.055015
    98  H    0.050045
 Sum of Mulliken charges =  -0.00000

 Dipole moment (field-independent basis, Debye):
    X=             -0.1219    Y=             -1.6467    Z=              1.3226  Tot=              2.1156
 Quadrupole moment (field-independent basis, Debye-Ang):
   XX=           -288.0970   YY=           -243.1970   ZZ=           -260.1857
   XY=             13.3733   XZ=             -2.4080   YZ=              1.5767

 Normal termination of Gaussian 16 at Mon Jul  8 14:21:53 2019.
