 Gaussian 16, Revision A.03,
 Gaussian 16:  ES64L-G16RevA.03 25-Dec-2016

 -------------------------------------
 # td=(NStates=1) CAM-B3LYP/6-31G(d,p)
 -------------------------------------

 --
 TD
 --
 Symbolic Z-matrix:
 Charge =  0 Multiplicity = 1

                         Standard orientation:
 ---------------------------------------------------------------------
 Center     Atomic      Atomic             Coordinates (Angstroms)
 Number     Number       Type             X           Y           Z
 ---------------------------------------------------------------------
      1          8           0       14.648045   -2.181538   -0.418087
      2          8           0      -14.545276    2.131215    0.712176
      3          6           0       11.410616   -1.045013    1.318663
      4          6           0      -12.281665   -0.872389    0.856900
      5          6           0       12.890718   -1.345342    1.092255
      6          6           0      -13.627578   -0.076538    0.884337
      7          6           0       13.241896   -1.976071   -0.367311
      8          6           0      -13.287049    1.454122    0.657643
      9          6           0       10.883027   -0.346984    0.011291
     10          6           0      -11.335434   -0.403462   -0.194375
     11          6           0       12.845398   -1.026241   -1.423859
     12          6           0      -12.758538    1.636444   -0.683906
     13          6           0       11.502585   -0.326491   -1.187581
     14          6           0      -11.536245    0.716359   -0.941621
     15          6           0       11.399030   -0.181353    2.508007
     16          6           0       10.634926   -2.263848    1.355711
     17          6           0      -11.564207   -0.767718    2.268654
     18          6           0      -12.672821   -2.299827    0.578510
     19          6           0        9.589247    0.381496    0.239369
     20          6           0      -10.039766   -1.099875   -0.368581
     21          6           0       10.897261    0.289061   -2.290948
     22          6           0      -10.763193    1.094675   -2.099575
     23          6           0        9.277327    1.644703   -0.085314
     24          6           0       -8.773125   -0.558291   -0.209994
     25          6           0        8.043551    2.293398   -0.006096
     26          6           0       -7.578242   -1.342708   -0.360060
     27          6           0        8.070392    3.757603    0.279420
     28          6           0       -7.591909   -2.729351   -0.796322
     29          6           0        6.882777    1.585633   -0.094675
     30          6           0       -6.366491   -0.649291   -0.187692
     31          6           0        5.498211    2.132951    0.034528
     32          6           0       -4.989907   -1.174211   -0.449937
     33          6           0        4.466658    1.363835    0.043231
     34          6           0       -3.955549   -0.413298   -0.311092
     35          6           0        3.011646    1.746655    0.168251
     36          6           0       -2.560392   -0.745468   -0.512747
     37          6           0        2.743730    3.147067    0.573790
     38          6           0       -2.330002   -2.287706   -0.793848
     39          6           0        2.071127    0.753468    0.002470
     40          6           0       -1.607327    0.100458   -0.286205
     41          6           0        0.652584    0.876274    0.008417
     42          6           0       -0.203295   -0.118295   -0.305034
     43          1           0       13.439058   -0.484044    1.048625
     44          1           0       13.378953   -1.986964    1.633991
     45          1           0      -14.086729   -0.298310    1.793471
     46          1           0      -14.356696   -0.507640    0.124704
     47          1           0       12.579257   -2.768257   -0.478183
     48          1           0      -12.469693    1.820808    1.420977
     49          1           0       13.654353   -0.247144   -1.428806
     50          1           0       12.934837   -1.519575   -2.408274
     51          1           0      -13.526112    1.802144   -1.503604
     52          1           0      -12.216525    2.712011   -0.767571
     53          1           0       11.482560   -0.639776    3.599820
     54          1           0       10.502908   -0.037936    2.831922
     55          1           0       11.809030    0.720281    2.543193
     56          1           0       10.905259   -3.228596    0.565672
     57          1           0       10.850558   -2.846605    2.397087
     58          1           0        9.660727   -2.172494    1.614112
     59          1           0      -10.996189    0.223541    2.572180
     60          1           0      -10.701859   -1.603941    2.041670
     61          1           0      -12.235709   -1.060931    3.003227
     62          1           0      -13.588886   -2.664827    1.124313
     63          1           0      -11.708075   -2.939909    0.928436
     64          1           0      -12.949642   -2.404783   -0.643351
     65          1           0        8.999548   -0.334483    0.536280
     66          1           0      -10.193353   -2.210156   -0.515714
     67          1           0        9.736680    0.443003   -2.106834
     68          1           0       11.490614    1.477360   -2.494934
     69          1           0       11.099773   -0.525438   -3.158009
     70          1           0      -11.315997    1.276760   -3.127981
     71          1           0       -9.901764    0.469927   -2.349212
     72          1           0      -10.084378    1.947677   -1.891040
     73          1           0       14.956082   -2.808294    0.389790
     74          1           0      -14.790614    2.198460    1.748136
     75          1           0        9.929572    2.327780   -0.592295
     76          1           0       -8.826024    0.475260    0.081493
     77          1           0        8.865753    4.184327   -0.239421
     78          1           0        6.818170    4.278572   -0.090220
     79          1           0        8.288228    4.087357    1.298118
     80          1           0       -8.157870   -3.254259    0.070138
     81          1           0       -8.159357   -2.745474   -1.846992
     82          1           0       -6.607967   -3.184657   -0.779467
     83          1           0        6.962959    0.393495   -0.456245
     84          1           0       -6.265687    0.365815    0.112696
     85          1           0        5.344750    3.185712    0.177848
     86          1           0       -5.006249   -2.337134   -0.590390
     87          1           0        4.517268    0.448572   -0.404472
     88          1           0       -4.104511    0.550628   -0.335111
     89          1           0        3.045734    3.525598    1.494713
     90          1           0        1.561504    3.202316    0.501239
     91          1           0        3.293826    3.678278   -0.143399
     92          1           0       -2.944916   -2.875961   -0.157349
     93          1           0       -2.575389   -2.250071   -1.840745
     94          1           0       -1.249881   -2.521580   -0.707100
     95          1           0        2.444870   -0.285249   -0.247286
     96          1           0       -2.061936    1.016834    0.045132
     97          1           0        0.232818    1.896402    0.362759
     98          1           0        0.334367   -1.108445   -0.658490
 ---------------------------------------------------------------------

 SCF Done:  E(RCAM-B3LYP) =  -1706.85956390     A.U. after   14 cycles

 Excitation energies and oscillator strengths:

 Excited State   1:      Singlet-A      3.0368 eV  408.28 nm  f=3.6696  <S**2>=0.000
     155 ->158         0.20767
     156 ->157         0.66460
 This state for optimization and/or second-order correction.
 Total Energy, E(TD-HF/TD-DFT) =  -1706.74796501
 Copying the excited state density for this state as the 1-particle RhoCI density.

 The electronic state is 1-A.
 Alpha  occ. eigenvalues --  -19.22232 -19.21616 -10.30910 -10.28968 -10.27663
 Alpha  occ. eigenvalues --  -10.27592 -10.27558 -10.27552 -10.27467 -10.27404
 Alpha  occ. eigenvalues --  -10.27227 -10.27189 -10.27083 -10.27015 -10.26764
 Alpha  occ. eigenvalues --  -10.26549 -10.26509 -10.26498 -10.26417 -10.26377
 Alpha  occ. eigenvalues --  -10.26294 -10.26254 -10.26215 -10.26200 -10.26055
 Alpha  occ. eigenvalues --  -10.25894 -10.25756 -10.25646 -10.25581 -10.25526
 Alpha  occ. eigenvalues --  -10.25420 -10.25286 -10.24984 -10.24952 -10.24824
 Alpha  occ. eigenvalues --  -10.24768 -10.24768 -10.24665 -10.24620 -10.24226
 Alpha  occ. eigenvalues --  -10.22853 -10.22259  -1.07812  -1.07551  -0.94321
 Alpha  occ. eigenvalues --   -0.93549  -0.92647  -0.92022  -0.91008  -0.90419
 Alpha  occ. eigenvalues --   -0.88527  -0.87863  -0.86898  -0.85569  -0.84483
 Alpha  occ. eigenvalues --   -0.83690  -0.82451  -0.80518  -0.79698  -0.78674
 Alpha  occ. eigenvalues --   -0.78347  -0.76595  -0.76421  -0.76187  -0.75676
 Alpha  occ. eigenvalues --   -0.75077  -0.74915  -0.74298  -0.73989  -0.70185
 Alpha  occ. eigenvalues --   -0.69035  -0.67226  -0.65814  -0.65079  -0.64164
 Alpha  occ. eigenvalues --   -0.63094  -0.62854  -0.61460  -0.60551  -0.60184
 Alpha  occ. eigenvalues --   -0.59717  -0.59000  -0.58278  -0.57583  -0.56308
 Alpha  occ. eigenvalues --   -0.55947  -0.54769  -0.54158  -0.53756  -0.53491
 Alpha  occ. eigenvalues --   -0.53383  -0.52839  -0.52486  -0.52309  -0.51837
 Alpha  occ. eigenvalues --   -0.50901  -0.50848  -0.50334  -0.49702  -0.49509
 Alpha  occ. eigenvalues --   -0.49426  -0.49090  -0.49010  -0.48591  -0.48120
 Alpha  occ. eigenvalues --   -0.47752  -0.47540  -0.47262  -0.46793  -0.46015
 Alpha  occ. eigenvalues --   -0.45744  -0.45593  -0.45504  -0.45095  -0.44951
 Alpha  occ. eigenvalues --   -0.44436  -0.44385  -0.44118  -0.43978  -0.43454
 Alpha  occ. eigenvalues --   -0.43287  -0.42958  -0.42484  -0.42073  -0.41625
 Alpha  occ. eigenvalues --   -0.41000  -0.40835  -0.40707  -0.40557  -0.40185
 Alpha  occ. eigenvalues --   -0.39914  -0.39904  -0.39578  -0.39418  -0.38967
 Alpha  occ. eigenvalues --   -0.38871  -0.38586  -0.38385  -0.38126  -0.37768
 Alpha  occ. eigenvalues --   -0.37162  -0.36829  -0.36776  -0.36696  -0.36207
 Alpha  occ. eigenvalues --   -0.35169  -0.34728  -0.33516  -0.32053  -0.30618
 Alpha  occ. eigenvalues --   -0.30428  -0.29031  -0.28140  -0.26429  -0.24190
 Alpha  occ. eigenvalues --   -0.21522
 Alpha virt. eigenvalues --   -0.03448  -0.00337   0.02566   0.06298   0.07421
 Alpha virt. eigenvalues --    0.09038   0.10139   0.10262   0.10442   0.11192
 Alpha virt. eigenvalues --    0.11573   0.12136   0.12365   0.12865   0.12976

 Mulliken charges:
               1
     1  O   -0.571997
     2  O   -0.566403
     3  C    0.020645
     4  C   -0.033080
     5  C   -0.158250
     6  C   -0.175590
     7  C    0.156222
     8  C    0.169926
     9  C   -0.013615
    10  C    0.085869
    11  C   -0.217975
    12  C   -0.210511
    13  C    0.114603
    14  C    0.065924
    15  C   -0.298329
    16  C   -0.305908
    17  C   -0.282922
    18  C   -0.287127
    19  C   -0.092139
    20  C   -0.174242
    21  C   -0.345275
    22  C   -0.377799
    23  C   -0.097968
    24  C   -0.069394
    25  C    0.102612
    26  C    0.099906
    27  C   -0.339579
    28  C   -0.353385
    29  C   -0.122906
    30  C   -0.133498
    31  C   -0.084288
    32  C   -0.076996
    33  C   -0.077292
    34  C   -0.101846
    35  C    0.074732
    36  C    0.079982
    37  C   -0.357659
    38  C   -0.356814
    39  C   -0.132739
    40  C   -0.120720
    41  C   -0.068791
    42  C   -0.097095
    43  H    0.103969
    44  H    0.065097
    45  H    0.083841
    46  H    0.095976
    47  H    0.079755
    48  H    0.077113
    49  H    0.115214
    50  H    0.098538
    51  H    0.122308
    52  H    0.081191
    53  H    0.072867
    54  H    0.107291
    55  H    0.122179
    56  H    0.095639
    57  H    0.060645
    58  H    0.121232
    59  H    0.096345
    60  H    0.083061
    61  H    0.108026
    62  H    0.103144
    63  H    0.076590
    64  H    0.088010
    65  H    0.083263
    66  H    0.087174
    67  H    0.118763
    68  H    0.065042
    69  H    0.083931
    70  H    0.100749
    71  H    0.116577
    72  H    0.106609
    73  H    0.310808
    74  H    0.304116
    75  H    0.087214
    76  H    0.092206
    77  H    0.119072
    78  H    0.052749
    79  H    0.131886
    80  H    0.112646
    81  H    0.119515
    82  H    0.111845
    83  H    0.071913
    84  H    0.076490
    85  H    0.074863
    86  H    0.072938
    87  H    0.073117
    88  H    0.073794
    89  H    0.136271
    90  H    0.088748
    91  H    0.125387
    92  H    0.124197
    93  H    0.130778
    94  H    0.098156
    95  H    0.076181
    96  H    0.076511
    97  H    0.080741
    98  H    0.089430
 Sum of Mulliken charges =  -0.00000

 Dipole moment (field-independent basis, Debye):
    X=             -0.1150    Y=             -0.8210    Z=              2.7847  Tot=              2.9055
 Quadrupole moment (field-independent basis, Debye-Ang):
   XX=           -287.0023   YY=           -247.2156   ZZ=           -259.3099
   XY=              5.2777   XZ=              0.9860   YZ=              3.1403

 Normal termination of Gaussian 16 at Sun Jun 30 10:24:41 2019.
