 Gaussian 16, Revision A.03,
 Gaussian 16:  ES64L-G16RevA.03 25-Dec-2016

 -------------------------------------
 # td=(NStates=1) CAM-B3LYP/6-31G(d,p)
 -------------------------------------

 --
 TD
 --
 Symbolic Z-matrix:
 Charge =  0 Multiplicity = 1

                         Standard orientation:
 ---------------------------------------------------------------------
 Center     Atomic      Atomic             Coordinates (Angstroms)
 Number     Number       Type             X           Y           Z
 ---------------------------------------------------------------------
      1          8           0       14.707856   -2.070967   -0.546018
      2          8           0      -14.808726    2.028678    0.906819
      3          6           0       11.428881   -1.127002    1.172259
      4          6           0      -12.247558   -0.984091    0.680656
      5          6           0       12.928225   -1.485053    1.098768
      6          6           0      -13.605209   -0.140771    0.745717
      7          6           0       13.326541   -1.938327   -0.325376
      8          6           0      -13.539892    1.383717    0.823525
      9          6           0       10.889600   -0.310744    0.054884
     10          6           0      -11.301461   -0.305225   -0.323122
     11          6           0       12.897252   -0.920503   -1.341963
     12          6           0      -12.828299    1.824206   -0.437349
     13          6           0       11.508279   -0.147680   -1.116685
     14          6           0      -11.559186    0.922718   -0.764233
     15          6           0       11.296645   -0.388524    2.444925
     16          6           0       10.667382   -2.393830    1.254666
     17          6           0      -11.699687   -0.930310    2.203400
     18          6           0      -12.588218   -2.422444    0.281476
     19          6           0        9.632414    0.453789    0.267760
     20          6           0      -10.040745   -1.064451   -0.509242
     21          6           0       11.064562    0.602969   -2.374907
     22          6           0      -10.650948    1.574511   -1.877786
     23          6           0        9.337605    1.615328   -0.108255
     24          6           0       -8.828332   -0.533628   -0.408022
     25          6           0        8.103039    2.349767    0.082150
     26          6           0       -7.618299   -1.259970   -0.705695
     27          6           0        8.123410    3.776511    0.440129
     28          6           0       -7.651924   -2.754421   -0.967586
     29          6           0        6.959714    1.581008   -0.051747
     30          6           0       -6.479010   -0.661375   -0.380286
     31          6           0        5.548279    1.994186    0.164910
     32          6           0       -5.096764   -1.116537   -0.444734
     33          6           0        4.436207    1.213066    0.116736
     34          6           0       -3.985172   -0.377023   -0.275311
     35          6           0        3.041783    1.656122    0.115877
     36          6           0       -2.644358   -0.813209   -0.432147
     37          6           0        2.793225    3.138079    0.383227
     38          6           0       -2.236251   -2.292986   -0.598787
     39          6           0        2.147467    0.648294    0.012881
     40          6           0       -1.595262    0.081686   -0.231969
     41          6           0        0.717755    0.742164    0.005962
     42          6           0       -0.218364   -0.220322   -0.130019
     43          1           0       13.229050   -0.471766    1.209737
     44          1           0       13.175447   -2.152595    1.863222
     45          1           0      -14.008235   -0.500218    1.637421
     46          1           0      -14.203741   -0.385209   -0.102082
     47          1           0       12.829195   -2.887053   -0.381656
     48          1           0      -12.858260    1.673461    1.599843
     49          1           0       13.554392   -0.113466   -1.306230
     50          1           0       12.983661   -1.277409   -2.270131
     51          1           0      -13.428646    1.759019   -1.176346
     52          1           0      -12.390009    2.893188   -0.220623
     53          1           0       11.840204   -0.951037    3.261114
     54          1           0       10.246262   -0.290097    3.003636
     55          1           0       11.774223    0.507881    2.371749
     56          1           0       10.995834   -3.094371    0.508530
     57          1           0       10.901214   -3.128112    2.182972
     58          1           0        9.650836   -2.050608    1.202850
     59          1           0      -11.105458   -0.106396    2.563624
     60          1           0      -10.919176   -1.845613    2.291771
     61          1           0      -12.428698   -1.246056    2.850881
     62          1           0      -13.329356   -3.015799    0.818926
     63          1           0      -11.621593   -2.973457    0.464078
     64          1           0      -12.894011   -2.290787   -0.774613
     65          1           0        8.857574   -0.197028    0.862723
     66          1           0      -10.275463   -2.075205   -0.735608
     67          1           0        9.882936    0.716676   -2.482007
     68          1           0       11.498277    1.656560   -2.416744
     69          1           0       11.433165   -0.102485   -3.434516
     70          1           0      -11.306145    1.947917   -2.642861
     71          1           0       -9.955845    0.719439   -1.998863
     72          1           0      -10.130397    2.572132   -1.540714
     73          1           0       15.173991   -2.521121    0.203118
     74          1           0      -15.033202    1.983585    1.857072
     75          1           0       10.262873    2.159300   -0.618540
     76          1           0       -8.706772    0.424143    0.179662
     77          1           0        8.583304    4.390867   -0.222249
     78          1           0        7.303548    4.464955    0.332766
     79          1           0        8.390762    3.773409    1.640849
     80          1           0       -8.380478   -3.227838   -0.288717
     81          1           0       -8.181087   -3.048573   -1.959633
     82          1           0       -6.787618   -3.391870   -0.959135
     83          1           0        7.104812    0.568891   -0.266233
     84          1           0       -6.669003    0.354226   -0.047716
     85          1           0        5.484461    3.071160    0.404955
     86          1           0       -5.005861   -2.174466   -0.724818
     87          1           0        4.624382    0.195554   -0.283478
     88          1           0       -4.234817    0.719552   -0.092550
     89          1           0        3.104429    3.269222    1.421727
     90          1           0        1.695371    3.304264    0.371295
     91          1           0        3.362249    3.700189   -0.142581
     92          1           0       -2.613962   -2.820975    0.477231
     93          1           0       -3.138247   -2.769135   -1.395578
     94          1           0       -1.186164   -2.532405   -0.766344
     95          1           0        2.493766   -0.462663   -0.190332
     96          1           0       -1.987549    1.147045   -0.029156
     97          1           0        0.339236    1.846959   -0.094227
     98          1           0        0.211339   -1.195647   -0.171995
 ---------------------------------------------------------------------

 SCF Done:  E(RCAM-B3LYP) =  -1707.00078335     A.U. after   14 cycles

 Excitation energies and oscillator strengths:

 Excited State   1:      Singlet-A      2.7971 eV  443.26 nm  f=3.6689  <S**2>=0.000
     155 ->158        -0.16495
     156 ->157         0.68360
 This state for optimization and/or second-order correction.
 Total Energy, E(TD-HF/TD-DFT) =  -1706.89799169
 Copying the excited state density for this state as the 1-particle RhoCI density.

 The electronic state is 1-A.
 Alpha  occ. eigenvalues --  -19.21553 -19.21098 -10.29890 -10.29397 -10.28938
 Alpha  occ. eigenvalues --  -10.28821 -10.27863 -10.27823 -10.27652 -10.27607
 Alpha  occ. eigenvalues --  -10.27159 -10.26910 -10.26773 -10.26770 -10.26753
 Alpha  occ. eigenvalues --  -10.26694 -10.26544 -10.26473 -10.26249 -10.26205
 Alpha  occ. eigenvalues --  -10.26177 -10.26162 -10.26156 -10.26138 -10.25951
 Alpha  occ. eigenvalues --  -10.25738 -10.25674 -10.25579 -10.25534 -10.25473
 Alpha  occ. eigenvalues --  -10.25314 -10.25304 -10.25190 -10.25042 -10.24861
 Alpha  occ. eigenvalues --  -10.24839 -10.24605 -10.24469 -10.24405 -10.24043
 Alpha  occ. eigenvalues --  -10.23530 -10.23274  -1.09228  -1.09202  -0.94983
 Alpha  occ. eigenvalues --   -0.93010  -0.92006  -0.91601  -0.91092  -0.90217
 Alpha  occ. eigenvalues --   -0.87570  -0.87087  -0.85651  -0.85509  -0.85116
 Alpha  occ. eigenvalues --   -0.83198  -0.81946  -0.80911  -0.79720  -0.78493
 Alpha  occ. eigenvalues --   -0.77176  -0.77011  -0.76538  -0.76084  -0.75775
 Alpha  occ. eigenvalues --   -0.75368  -0.75205  -0.74610  -0.73789  -0.70905
 Alpha  occ. eigenvalues --   -0.68817  -0.67418  -0.66205  -0.65124  -0.64333
 Alpha  occ. eigenvalues --   -0.63817  -0.62271  -0.61023  -0.60211  -0.60099
 Alpha  occ. eigenvalues --   -0.59818  -0.59089  -0.58413  -0.58333  -0.56067
 Alpha  occ. eigenvalues --   -0.55813  -0.55262  -0.54851  -0.54566  -0.53808
 Alpha  occ. eigenvalues --   -0.53535  -0.53080  -0.52090  -0.51716  -0.51164
 Alpha  occ. eigenvalues --   -0.51025  -0.50744  -0.50369  -0.49698  -0.49568
 Alpha  occ. eigenvalues --   -0.49394  -0.49017  -0.48910  -0.48774  -0.48153
 Alpha  occ. eigenvalues --   -0.47572  -0.47490  -0.46601  -0.46479  -0.45881
 Alpha  occ. eigenvalues --   -0.45765  -0.45547  -0.45397  -0.45151  -0.44671
 Alpha  occ. eigenvalues --   -0.44584  -0.44360  -0.44069  -0.44018  -0.43895
 Alpha  occ. eigenvalues --   -0.43298  -0.42926  -0.42671  -0.42288  -0.42150
 Alpha  occ. eigenvalues --   -0.41680  -0.41594  -0.40703  -0.40302  -0.40211
 Alpha  occ. eigenvalues --   -0.40059  -0.39810  -0.39710  -0.39181  -0.39144
 Alpha  occ. eigenvalues --   -0.38670  -0.38510  -0.38063  -0.37969  -0.37826
 Alpha  occ. eigenvalues --   -0.37720  -0.37654  -0.36478  -0.36117  -0.35888
 Alpha  occ. eigenvalues --   -0.35388  -0.34859  -0.33522  -0.32334  -0.31940
 Alpha  occ. eigenvalues --   -0.31683  -0.30207  -0.28765  -0.26964  -0.24571
 Alpha  occ. eigenvalues --   -0.20928
 Alpha virt. eigenvalues --   -0.04218   0.00060   0.03295   0.06316   0.08311
 Alpha virt. eigenvalues --    0.10288   0.11051   0.11804   0.12009   0.12467
 Alpha virt. eigenvalues --    0.12621   0.12806   0.12902   0.13160   0.13464

 Mulliken charges:
               1
     1  O   -0.567369
     2  O   -0.552133
     3  C   -0.035897
     4  C   -0.024108
     5  C   -0.201386
     6  C   -0.174455
     7  C    0.191929
     8  C    0.146840
     9  C    0.069066
    10  C    0.069506
    11  C   -0.214071
    12  C   -0.190381
    13  C    0.026481
    14  C   -0.013088
    15  C   -0.292003
    16  C   -0.277817
    17  C   -0.312246
    18  C   -0.309888
    19  C   -0.068226
    20  C   -0.138566
    21  C   -0.352913
    22  C   -0.345056
    23  C   -0.121448
    24  C   -0.114578
    25  C    0.078857
    26  C    0.150900
    27  C   -0.362190
    28  C   -0.386808
    29  C   -0.113402
    30  C   -0.137784
    31  C   -0.097290
    32  C   -0.085608
    33  C   -0.110252
    34  C   -0.104059
    35  C    0.097187
    36  C    0.117973
    37  C   -0.351113
    38  C   -0.341535
    39  C   -0.128999
    40  C   -0.127984
    41  C   -0.086603
    42  C   -0.077422
    43  H    0.096633
    44  H    0.089260
    45  H    0.074694
    46  H    0.093431
    47  H    0.071739
    48  H    0.079213
    49  H    0.129291
    50  H    0.111595
    51  H    0.124980
    52  H    0.090697
    53  H    0.088232
    54  H    0.086709
    55  H    0.112995
    56  H    0.104709
    57  H    0.069872
    58  H    0.099809
    59  H    0.114066
    60  H    0.066607
    61  H    0.114136
    62  H    0.108408
    63  H    0.097514
    64  H    0.110812
    65  H    0.075593
    66  H    0.094468
    67  H    0.122775
    68  H    0.122819
    69  H    0.068722
    70  H    0.113116
    71  H    0.122638
    72  H    0.087023
    73  H    0.304647
    74  H    0.309158
    75  H    0.074675
    76  H    0.106169
    77  H    0.124431
    78  H    0.111333
    79  H    0.113082
    80  H    0.120029
    81  H    0.101169
    82  H    0.121177
    83  H    0.077167
    84  H    0.068329
    85  H    0.069926
    86  H    0.070325
    87  H    0.081563
    88  H    0.085263
    89  H    0.131882
    90  H    0.110902
    91  H    0.133200
    92  H    0.096716
    93  H    0.082126
    94  H    0.125590
    95  H    0.075259
    96  H    0.080336
    97  H    0.068711
    98  H    0.082226
 Sum of Mulliken charges =  -0.00000

 Dipole moment (field-independent basis, Debye):
    X=              1.5699    Y=             -0.4212    Z=              2.7551  Tot=              3.1988
 Quadrupole moment (field-independent basis, Debye-Ang):
   XX=           -271.0580   YY=           -241.6585   ZZ=           -261.0448
   XY=             13.5033   XZ=             -4.1708   YZ=             -0.1528

 Normal termination of Gaussian 16 at Sun Jun 30 13:42:17 2019.
