 Gaussian 16, Revision A.03,
 Gaussian 16:  ES64L-G16RevA.03 25-Dec-2016

 -------------------------------------
 # td=(NStates=1) CAM-B3LYP/6-31G(d,p)
 -------------------------------------

 --
 TD
 --
 Symbolic Z-matrix:
 Charge =  0 Multiplicity = 1

                         Standard orientation:
 ---------------------------------------------------------------------
 Center     Atomic      Atomic             Coordinates (Angstroms)
 Number     Number       Type             X           Y           Z
 ---------------------------------------------------------------------
      1          8           0       14.648593   -2.371499   -0.198654
      2          8           0      -14.712566    1.947936    0.995754
      3          6           0       11.490268   -1.045427    1.347485
      4          6           0      -12.272954   -0.966192    0.969455
      5          6           0       12.963107   -1.405110    1.195251
      6          6           0      -13.630613   -0.248202    0.834105
      7          6           0       13.301746   -1.974788   -0.093302
      8          6           0      -13.416812    1.284213    0.932350
      9          6           0       11.002952   -0.293935    0.058310
     10          6           0      -11.317381   -0.386960   -0.072405
     11          6           0       12.996286   -1.102934   -1.193529
     12          6           0      -12.765680    1.694211   -0.343080
     13          6           0       11.754302   -0.236674   -1.007619
     14          6           0      -11.541221    0.842180   -0.583673
     15          6           0       11.226001   -0.239264    2.587223
     16          6           0       10.539326   -2.350887    1.579726
     17          6           0      -11.712954   -1.071889    2.343815
     18          6           0      -12.761522   -2.393088    0.467645
     19          6           0        9.678560    0.462213    0.183427
     20          6           0      -10.064548   -1.117310   -0.220323
     21          6           0       11.181165    0.318969   -2.356193
     22          6           0      -10.713657    1.631886   -1.688889
     23          6           0        9.328886    1.651681   -0.023021
     24          6           0       -8.807955   -0.673140   -0.166082
     25          6           0        7.988733    2.337418    0.108322
     26          6           0       -7.537364   -1.372460   -0.502692
     27          6           0        8.069205    3.781516    0.363307
     28          6           0       -7.725495   -2.741293   -1.192265
     29          6           0        6.890822    1.548276   -0.071859
     30          6           0       -6.368209   -0.661884   -0.506445
     31          6           0        5.516225    2.055670   -0.036722
     32          6           0       -5.025686   -1.030112   -0.767668
     33          6           0        4.457383    1.285450   -0.214093
     34          6           0       -4.005774   -0.295252   -0.578463
     35          6           0        3.107772    1.750576   -0.054792
     36          6           0       -2.660823   -0.621599   -0.773207
     37          6           0        2.744467    3.082942    0.462943
     38          6           0       -2.250129   -2.087781   -1.240183
     39          6           0        2.052514    0.865969   -0.334613
     40          6           0       -1.637898    0.232537   -0.357013
     41          6           0        0.577720    1.033089   -0.144357
     42          6           0       -0.236591    0.097396   -0.443045
     43          1           0       13.491928   -0.558625    1.297775
     44          1           0       13.178899   -2.137327    2.078306
     45          1           0      -14.297384   -0.250311    1.672743
     46          1           0      -14.123327   -0.372295    0.112301
     47          1           0       12.659190   -2.993793   -0.219419
     48          1           0      -12.788888    1.518944    1.768483
     49          1           0       14.002896   -0.447494   -1.073985
     50          1           0       12.956065   -1.667499   -2.180951
     51          1           0      -13.274892    1.631080   -1.324048
     52          1           0      -12.439417    2.692018   -0.180294
     53          1           0       11.663215   -0.683725    3.521652
     54          1           0       10.118500   -0.077721    2.869231
     55          1           0       11.856894    0.786068    2.582967
     56          1           0       10.514965   -2.984436    0.713613
     57          1           0       10.864463   -3.052607    2.257965
     58          1           0        9.680537   -2.034680    1.796068
     59          1           0      -11.406974   -0.174481    2.923441
     60          1           0      -10.757072   -1.576529    2.114082
     61          1           0      -12.364648   -1.789010    2.946073
     62          1           0      -13.573270   -2.791689    1.198355
     63          1           0      -12.078920   -3.129888    0.523801
     64          1           0      -12.980828   -2.413630   -0.491381
     65          1           0        9.047631    0.002242    0.739913
     66          1           0      -10.096171   -2.265639   -0.654888
     67          1           0       10.195797    0.637969   -2.380785
     68          1           0       11.905994    1.153227   -2.461331
     69          1           0       11.190680   -0.391199   -3.056425
     70          1           0      -11.628816    2.042898   -2.284096
     71          1           0      -10.231320    0.739919   -2.234848
     72          1           0      -10.002186    2.454366   -1.306811
     73          1           0       14.882203   -3.364071    0.322945
     74          1           0      -14.972802    1.832536    1.919664
     75          1           0        9.995150    2.235267   -0.451037
     76          1           0       -8.642033    0.472213    0.264540
     77          1           0        8.563680    4.072726   -0.441007
     78          1           0        7.177914    4.398140    0.421900
     79          1           0        8.804929    3.962593    1.131066
     80          1           0       -8.353056   -3.368754   -0.640196
     81          1           0       -8.031884   -2.770953   -2.331434
     82          1           0       -6.738376   -3.233337   -1.486421
     83          1           0        7.012563    0.507999   -0.444958
     84          1           0       -6.434762    0.319244   -0.070668
     85          1           0        5.254260    3.009073    0.204990
     86          1           0       -4.827964   -1.952108   -1.364939
     87          1           0        4.491410    0.152893   -0.605421
     88          1           0       -4.162836    0.561688   -0.198342
     89          1           0        3.270691    3.277606    1.344933
     90          1           0        1.594773    2.976512    0.486232
     91          1           0        3.219848    3.772833   -0.410201
     92          1           0       -2.667971   -3.065600   -0.606301
     93          1           0       -2.761271   -2.249627   -2.233068
     94          1           0       -0.986552   -2.304530   -1.542615
     95          1           0        2.554350    0.023333   -0.645208
     96          1           0       -1.817827    1.168990   -0.172237
     97          1           0        0.169823    1.974765    0.148473
     98          1           0        0.148957   -0.727137   -1.051968
 ---------------------------------------------------------------------

 SCF Done:  E(RCAM-B3LYP) =  -1706.84535550     A.U. after   14 cycles

 Excitation energies and oscillator strengths:

 Excited State   1:      Singlet-A      2.9689 eV  417.61 nm  f=3.6248  <S**2>=0.000
     155 ->158        -0.16708
     156 ->157         0.68029
 This state for optimization and/or second-order correction.
 Total Energy, E(TD-HF/TD-DFT) =  -1706.73624972
 Copying the excited state density for this state as the 1-particle RhoCI density.

 The electronic state is 1-A.
 Alpha  occ. eigenvalues --  -19.22141 -19.20590 -10.30222 -10.29330 -10.28954
 Alpha  occ. eigenvalues --  -10.28214 -10.28188 -10.27751 -10.27487 -10.27475
 Alpha  occ. eigenvalues --  -10.27053 -10.26836 -10.26784 -10.26685 -10.26638
 Alpha  occ. eigenvalues --  -10.26464 -10.26346 -10.26303 -10.26299 -10.26212
 Alpha  occ. eigenvalues --  -10.26153 -10.26133 -10.26006 -10.25988 -10.25841
 Alpha  occ. eigenvalues --  -10.25770 -10.25427 -10.25336 -10.25241 -10.25239
 Alpha  occ. eigenvalues --  -10.24949 -10.24898 -10.24690 -10.24229 -10.24136
 Alpha  occ. eigenvalues --  -10.23933 -10.23829 -10.23551 -10.23489 -10.22862
 Alpha  occ. eigenvalues --  -10.22354 -10.21440  -1.08151  -1.07707  -0.93770
 Alpha  occ. eigenvalues --   -0.93726  -0.93149  -0.92231  -0.91265  -0.90148
 Alpha  occ. eigenvalues --   -0.88718  -0.86904  -0.86831  -0.86215  -0.85251
 Alpha  occ. eigenvalues --   -0.84035  -0.82491  -0.82042  -0.79852  -0.77728
 Alpha  occ. eigenvalues --   -0.77524  -0.77125  -0.77001  -0.76440  -0.76110
 Alpha  occ. eigenvalues --   -0.75880  -0.75237  -0.74749  -0.74348  -0.70891
 Alpha  occ. eigenvalues --   -0.68927  -0.67126  -0.65902  -0.64388  -0.64152
 Alpha  occ. eigenvalues --   -0.63850  -0.63380  -0.63167  -0.61830  -0.60569
 Alpha  occ. eigenvalues --   -0.60231  -0.59201  -0.58069  -0.57523  -0.56376
 Alpha  occ. eigenvalues --   -0.55537  -0.55056  -0.54840  -0.54610  -0.53851
 Alpha  occ. eigenvalues --   -0.53708  -0.53126  -0.52805  -0.52215  -0.51186
 Alpha  occ. eigenvalues --   -0.50802  -0.50461  -0.50212  -0.50024  -0.49619
 Alpha  occ. eigenvalues --   -0.49494  -0.49171  -0.48983  -0.48571  -0.48404
 Alpha  occ. eigenvalues --   -0.47679  -0.47458  -0.46692  -0.46401  -0.46121
 Alpha  occ. eigenvalues --   -0.45832  -0.45720  -0.45601  -0.45197  -0.45126
 Alpha  occ. eigenvalues --   -0.44489  -0.44440  -0.44222  -0.43644  -0.43517
 Alpha  occ. eigenvalues --   -0.42688  -0.42617  -0.42300  -0.42254  -0.42203
 Alpha  occ. eigenvalues --   -0.42158  -0.41946  -0.41480  -0.41080  -0.41025
 Alpha  occ. eigenvalues --   -0.40807  -0.40594  -0.40240  -0.39562  -0.39077
 Alpha  occ. eigenvalues --   -0.39006  -0.38685  -0.38586  -0.38212  -0.38061
 Alpha  occ. eigenvalues --   -0.37635  -0.37466  -0.36888  -0.35940  -0.35678
 Alpha  occ. eigenvalues --   -0.35437  -0.34462  -0.34277  -0.32295  -0.31989
 Alpha  occ. eigenvalues --   -0.30609  -0.29900  -0.28677  -0.27444  -0.24792
 Alpha  occ. eigenvalues --   -0.21430
 Alpha virt. eigenvalues --   -0.03880   0.00352   0.03777   0.06297   0.07710
 Alpha virt. eigenvalues --    0.08153   0.10051   0.10926   0.11903   0.12243
 Alpha virt. eigenvalues --    0.12687   0.12860   0.13137   0.13525   0.13738

 Mulliken charges:
               1
     1  O   -0.574767
     2  O   -0.565675
     3  C   -0.020453
     4  C   -0.027982
     5  C   -0.154836
     6  C   -0.099526
     7  C    0.194197
     8  C    0.104257
     9  C    0.087196
    10  C    0.073218
    11  C   -0.214288
    12  C   -0.201936
    13  C   -0.006017
    14  C   -0.002543
    15  C   -0.297251
    16  C   -0.305582
    17  C   -0.302939
    18  C   -0.303814
    19  C   -0.087407
    20  C   -0.157182
    21  C   -0.340032
    22  C   -0.335584
    23  C   -0.085512
    24  C   -0.066737
    25  C    0.079449
    26  C    0.100647
    27  C   -0.372659
    28  C   -0.373788
    29  C   -0.134782
    30  C   -0.131769
    31  C   -0.084752
    32  C   -0.066612
    33  C   -0.092209
    34  C   -0.038473
    35  C    0.086543
    36  C    0.089992
    37  C   -0.347772
    38  C   -0.355156
    39  C   -0.128705
    40  C   -0.125149
    41  C   -0.097432
    42  C   -0.041249
    43  H    0.101432
    44  H    0.072771
    45  H    0.059119
    46  H    0.089266
    47  H    0.036850
    48  H    0.085844
    49  H    0.101022
    50  H    0.112440
    51  H    0.125322
    52  H    0.113760
    53  H    0.096683
    54  H    0.100872
    55  H    0.078165
    56  H    0.097735
    57  H    0.103037
    58  H    0.109598
    59  H    0.101126
    60  H    0.112709
    61  H    0.095914
    62  H    0.086716
    63  H    0.095364
    64  H    0.112611
    65  H    0.057562
    66  H    0.071821
    67  H    0.117894
    68  H    0.112355
    69  H    0.115637
    70  H    0.094632
    71  H    0.116228
    72  H    0.117658
    73  H    0.308957
    74  H    0.300080
    75  H    0.062242
    76  H    0.064000
    77  H    0.142368
    78  H    0.118032
    79  H    0.127551
    80  H    0.128330
    81  H    0.110917
    82  H    0.102325
    83  H    0.090146
    84  H    0.075871
    85  H    0.069879
    86  H    0.069382
    87  H    0.070639
    88  H    0.056986
    89  H    0.130487
    90  H    0.101075
    91  H    0.097514
    92  H    0.104879
    93  H    0.116434
    94  H    0.080414
    95  H    0.061547
    96  H    0.066088
    97  H    0.095235
    98  H    0.081549
 Sum of Mulliken charges =  -0.00000

 Dipole moment (field-independent basis, Debye):
    X=              1.8345    Y=             -0.9381    Z=              1.1667  Tot=              2.3679
 Quadrupole moment (field-independent basis, Debye-Ang):
   XX=           -290.7670   YY=           -241.7650   ZZ=           -256.4750
   XY=              1.7891   XZ=             -2.2614   YZ=              4.2530

 Normal termination of Gaussian 16 at Tue Jul  2 16:55:17 2019.
