 Gaussian 16, Revision A.03,
 Gaussian 16:  ES64L-G16RevA.03 25-Dec-2016

 -------------------------------------
 # td=(NStates=1) CAM-B3LYP/6-31G(d,p)
 -------------------------------------

 --
 TD
 --
 Symbolic Z-matrix:
 Charge =  0 Multiplicity = 1

                         Standard orientation:
 ---------------------------------------------------------------------
 Center     Atomic      Atomic             Coordinates (Angstroms)
 Number     Number       Type             X           Y           Z
 ---------------------------------------------------------------------
      1          8           0       14.600073   -2.380213   -0.475356
      2          8           0      -14.855584    2.067189    0.422695
      3          6           0       11.434256   -1.000698    1.138900
      4          6           0      -12.357295   -0.871447    0.743848
      5          6           0       12.894096   -1.349665    0.963092
      6          6           0      -13.746632   -0.177178    0.622593
      7          6           0       13.298052   -2.069928   -0.377881
      8          6           0      -13.562226    1.389204    0.561393
      9          6           0       10.930401   -0.277334   -0.061555
     10          6           0      -11.360213   -0.345241   -0.288654
     11          6           0       12.873956   -1.052804   -1.482626
     12          6           0      -12.741616    1.660803   -0.757684
     13          6           0       11.495335   -0.340301   -1.307400
     14          6           0      -11.590722    0.861575   -0.848624
     15          6           0       11.294039   -0.095182    2.367836
     16          6           0       10.604100   -2.265012    1.547791
     17          6           0      -11.938510   -0.780696    2.121340
     18          6           0      -12.712690   -2.344724    0.396345
     19          6           0        9.551239    0.441358    0.229918
     20          6           0      -10.067683   -1.181859   -0.344412
     21          6           0       10.947071    0.299440   -2.539133
     22          6           0      -10.579689    1.302441   -1.875502
     23          6           0        9.443371    1.660026   -0.231738
     24          6           0       -8.855121   -0.593608   -0.134078
     25          6           0        8.089972    2.291840   -0.074508
     26          6           0       -7.549327   -1.371468   -0.364805
     27          6           0        8.163850    3.792371    0.263782
     28          6           0       -7.578891   -2.840167   -0.567137
     29          6           0        6.976539    1.549838    0.085974
     30          6           0       -6.409993   -0.647619   -0.307657
     31          6           0        5.601859    2.000670    0.277800
     32          6           0       -4.966011   -1.053643   -0.360958
     33          6           0        4.482758    1.279783    0.092846
     34          6           0       -3.900938   -0.350018   -0.229858
     35          6           0        3.111217    1.650277    0.246448
     36          6           0       -2.567704   -0.753742   -0.301135
     37          6           0        2.803429    3.124259    0.709342
     38          6           0       -2.321171   -2.188670   -0.639046
     39          6           0        2.135887    0.733840    0.065120
     40          6           0       -1.516327    0.162238   -0.187834
     41          6           0        0.796843    0.983443    0.209412
     42          6           0       -0.162751    0.017316   -0.093603
     43          1           0       13.599952   -0.474524    0.798002
     44          1           0       13.332903   -1.840331    1.827665
     45          1           0      -14.229056   -0.486066    1.453883
     46          1           0      -14.397664   -0.463451   -0.391622
     47          1           0       12.658285   -2.981371   -0.540888
     48          1           0      -13.033862    1.853062    1.438038
     49          1           0       13.715029   -0.395169   -1.567573
     50          1           0       13.025496   -1.686439   -2.370042
     51          1           0      -13.357288    1.709006   -1.661358
     52          1           0      -12.370825    2.731811   -0.962578
     53          1           0       11.789196   -0.579053    3.349014
     54          1           0       10.365507    0.231834    2.553629
     55          1           0       11.863925    0.691176    2.312915
     56          1           0       10.618466   -3.015209    0.709028
     57          1           0       10.953587   -2.706247    2.418517
     58          1           0        9.699834   -1.893936    1.650338
     59          1           0      -11.663408    0.241464    2.597257
     60          1           0      -10.679229   -0.958220    2.016954
     61          1           0      -12.421347   -1.512312    2.757339
     62          1           0      -13.668187   -2.753930    0.903447
     63          1           0      -12.037749   -3.117904    0.716552
     64          1           0      -12.898447   -2.375503   -0.671294
     65          1           0        8.927330    0.079821    1.077573
     66          1           0      -10.089106   -2.249109   -0.682176
     67          1           0        9.924008    0.700356   -2.544588
     68          1           0       11.712732    1.081737   -2.653624
     69          1           0       11.021272   -0.311993   -3.403323
     70          1           0      -11.199801    1.714639   -2.716967
     71          1           0      -10.151763    0.377307   -2.132701
     72          1           0       -9.604105    2.014574   -1.658308
     73          1           0       14.853408   -3.081145    0.155907
     74          1           0      -15.207077    2.031141    1.247276
     75          1           0       10.241928    2.168793   -0.691009
     76          1           0       -8.877885    0.303591    0.107000
     77          1           0        8.704790    4.225988   -0.569441
     78          1           0        7.097704    4.263936    0.373717
     79          1           0        8.907326    4.117331    1.089813
     80          1           0       -8.394896   -3.183037    0.108324
     81          1           0       -7.963027   -3.136176   -1.727997
     82          1           0       -6.574761   -3.512483   -0.317860
     83          1           0        7.124117    0.469248   -0.207612
     84          1           0       -6.365735    0.378802    0.194404
     85          1           0        5.249993    3.205351    0.474392
     86          1           0       -4.795536   -2.141837   -0.540448
     87          1           0        4.617872    0.147294   -0.167691
     88          1           0       -4.005312    0.708532    0.068925
     89          1           0        3.524436    3.219712    1.566081
     90          1           0        1.795314    3.288173    1.148699
     91          1           0        3.064462    3.926868   -0.201572
     92          1           0       -2.622183   -2.823641    0.235584
     93          1           0       -2.715462   -2.458357   -1.621601
     94          1           0       -1.288540   -2.491181   -0.721027
     95          1           0        2.560311   -0.210102   -0.331466
     96          1           0       -1.793011    1.269721    0.105109
     97          1           0        0.507156    1.721797    0.481387
     98          1           0        0.336468   -1.028455   -0.068441
 ---------------------------------------------------------------------

 SCF Done:  E(RCAM-B3LYP) =  -1706.91571494     A.U. after   14 cycles

 Excitation energies and oscillator strengths:

 Excited State   1:      Singlet-A      2.5966 eV  477.48 nm  f=3.5300  <S**2>=0.000
     155 ->158         0.13366
     156 ->157         0.69272
 This state for optimization and/or second-order correction.
 Total Energy, E(TD-HF/TD-DFT) =  -1706.82029056
 Copying the excited state density for this state as the 1-particle RhoCI density.

 The electronic state is 1-A.
 Alpha  occ. eigenvalues --  -19.22079 -19.20118 -10.31476 -10.30290 -10.28798
 Alpha  occ. eigenvalues --  -10.28395 -10.27765 -10.27708 -10.27525 -10.27426
 Alpha  occ. eigenvalues --  -10.27260 -10.27198 -10.27055 -10.26929 -10.26908
 Alpha  occ. eigenvalues --  -10.26614 -10.26540 -10.26477 -10.26440 -10.26418
 Alpha  occ. eigenvalues --  -10.26327 -10.26186 -10.26089 -10.25946 -10.25925
 Alpha  occ. eigenvalues --  -10.25880 -10.25816 -10.25722 -10.25553 -10.25530
 Alpha  occ. eigenvalues --  -10.25449 -10.25415 -10.25350 -10.25114 -10.25077
 Alpha  occ. eigenvalues --  -10.25015 -10.24721 -10.24611 -10.24049 -10.23963
 Alpha  occ. eigenvalues --  -10.23012 -10.22564  -1.12160  -1.09276  -0.94139
 Alpha  occ. eigenvalues --   -0.93198  -0.92797  -0.91853  -0.90490  -0.90040
 Alpha  occ. eigenvalues --   -0.88292  -0.87899  -0.86795  -0.85351  -0.84301
 Alpha  occ. eigenvalues --   -0.83014  -0.81661  -0.80293  -0.79772  -0.78214
 Alpha  occ. eigenvalues --   -0.76906  -0.76181  -0.75950  -0.75784  -0.75586
 Alpha  occ. eigenvalues --   -0.75385  -0.75187  -0.75075  -0.74205  -0.71153
 Alpha  occ. eigenvalues --   -0.68300  -0.67877  -0.66001  -0.65223  -0.64790
 Alpha  occ. eigenvalues --   -0.63824  -0.63596  -0.62547  -0.60646  -0.59822
 Alpha  occ. eigenvalues --   -0.59205  -0.58551  -0.57917  -0.57637  -0.56392
 Alpha  occ. eigenvalues --   -0.56047  -0.55106  -0.54885  -0.53993  -0.53832
 Alpha  occ. eigenvalues --   -0.53284  -0.52291  -0.52218  -0.51799  -0.50726
 Alpha  occ. eigenvalues --   -0.50435  -0.50301  -0.49966  -0.49871  -0.49651
 Alpha  occ. eigenvalues --   -0.48865  -0.48679  -0.48245  -0.48122  -0.47892
 Alpha  occ. eigenvalues --   -0.47625  -0.47514  -0.46923  -0.46646  -0.46268
 Alpha  occ. eigenvalues --   -0.46260  -0.45840  -0.45664  -0.45521  -0.45105
 Alpha  occ. eigenvalues --   -0.44753  -0.44436  -0.44114  -0.43936  -0.43296
 Alpha  occ. eigenvalues --   -0.43154  -0.42943  -0.42384  -0.42252  -0.42194
 Alpha  occ. eigenvalues --   -0.42046  -0.41525  -0.41310  -0.41055  -0.40822
 Alpha  occ. eigenvalues --   -0.40532  -0.40138  -0.40089  -0.39686  -0.39680
 Alpha  occ. eigenvalues --   -0.38770  -0.38715  -0.38526  -0.37858  -0.37606
 Alpha  occ. eigenvalues --   -0.37242  -0.36977  -0.36922  -0.36394  -0.35095
 Alpha  occ. eigenvalues --   -0.34757  -0.34526  -0.33276  -0.32437  -0.31273
 Alpha  occ. eigenvalues --   -0.31125  -0.29477  -0.28181  -0.26780  -0.25261
 Alpha  occ. eigenvalues --   -0.20479
 Alpha virt. eigenvalues --   -0.05065   0.00274   0.02651   0.05870   0.07423
 Alpha virt. eigenvalues --    0.09478   0.10701   0.11703   0.11904   0.12118
 Alpha virt. eigenvalues --    0.12276   0.13084   0.13658   0.13868   0.14282

 Mulliken charges:
               1
     1  O   -0.537961
     2  O   -0.552124
     3  C   -0.033022
     4  C    0.010278
     5  C   -0.194222
     6  C   -0.161577
     7  C    0.165718
     8  C    0.135881
     9  C    0.050436
    10  C    0.021409
    11  C   -0.240008
    12  C   -0.246472
    13  C    0.044167
    14  C    0.098306
    15  C   -0.285015
    16  C   -0.276577
    17  C   -0.304644
    18  C   -0.317491
    19  C   -0.133844
    20  C   -0.158479
    21  C   -0.364275
    22  C   -0.365255
    23  C   -0.087563
    24  C   -0.012661
    25  C    0.074511
    26  C    0.110651
    27  C   -0.358120
    28  C   -0.364602
    29  C   -0.136664
    30  C   -0.134900
    31  C   -0.103276
    32  C   -0.103784
    33  C   -0.100224
    34  C   -0.071201
    35  C    0.112557
    36  C    0.117888
    37  C   -0.370979
    38  C   -0.387076
    39  C   -0.121317
    40  C   -0.140500
    41  C    0.029878
    42  C   -0.088462
    43  H    0.085909
    44  H    0.063206
    45  H    0.088270
    46  H    0.083169
    47  H    0.057055
    48  H    0.088428
    49  H    0.119420
    50  H    0.102919
    51  H    0.135068
    52  H    0.102353
    53  H    0.064892
    54  H    0.103106
    55  H    0.111787
    56  H    0.089976
    57  H    0.108302
    58  H    0.103435
    59  H    0.099720
    60  H    0.069108
    61  H    0.110551
    62  H    0.082945
    63  H    0.099818
    64  H    0.111130
    65  H    0.117806
    66  H    0.098832
    67  H    0.125943
    68  H    0.116709
    69  H    0.116659
    70  H    0.092822
    71  H    0.133756
    72  H    0.090533
    73  H    0.316260
    74  H    0.294449
    75  H    0.104326
    76  H    0.063946
    77  H    0.114218
    78  H    0.103651
    79  H    0.113323
    80  H    0.127482
    81  H    0.096439
    82  H    0.107616
    83  H    0.091945
    84  H    0.075680
    85  H    0.067513
    86  H    0.071803
    87  H    0.068892
    88  H    0.069661
    89  H    0.124235
    90  H    0.116854
    91  H    0.105776
    92  H    0.118772
    93  H    0.129444
    94  H    0.111272
    95  H    0.079094
    96  H    0.067032
    97  H   -0.005874
    98  H    0.073176
 Sum of Mulliken charges =  -0.00000

 Dipole moment (field-independent basis, Debye):
    X=              0.9233    Y=             -1.4455    Z=              2.0862  Tot=              2.7008
 Quadrupole moment (field-independent basis, Debye-Ang):
   XX=           -269.4611   YY=           -245.1687   ZZ=           -259.8066
   XY=              6.1692   XZ=             -8.5035   YZ=              1.2630

 Normal termination of Gaussian 16 at Tue Jul  9 01:43:54 2019.
