 Gaussian 16, Revision A.03,
 Gaussian 16:  ES64L-G16RevA.03 25-Dec-2016

 -------------------------------------
 # td=(NStates=1) CAM-B3LYP/6-31G(d,p)
 -------------------------------------

 --
 TD
 --
 Symbolic Z-matrix:
 Charge =  0 Multiplicity = 1

                         Standard orientation:
 ---------------------------------------------------------------------
 Center     Atomic      Atomic             Coordinates (Angstroms)
 Number     Number       Type             X           Y           Z
 ---------------------------------------------------------------------
      1          8           0       14.597097   -2.351883   -0.623940
      2          8           0      -14.846497    1.904233    0.722941
      3          6           0       11.427052   -1.004882    1.167982
      4          6           0      -12.217999   -0.910187    0.664967
      5          6           0       12.974849   -1.464266    0.963291
      6          6           0      -13.631029   -0.187410    0.525487
      7          6           0       13.295751   -1.990298   -0.410092
      8          6           0      -13.592578    1.336508    0.647984
      9          6           0       10.878940   -0.275580   -0.050884
     10          6           0      -11.172781   -0.213790   -0.295111
     11          6           0       12.871529   -0.962562   -1.439950
     12          6           0      -12.670617    1.822753   -0.493460
     13          6           0       11.604498   -0.200971   -1.229935
     14          6           0      -11.553973    0.949795   -0.818300
     15          6           0       11.391772   -0.229231    2.547488
     16          6           0       10.669819   -2.302608    1.422122
     17          6           0      -11.699028   -0.977461    2.096411
     18          6           0      -12.446394   -2.363758    0.160298
     19          6           0        9.618739    0.471282    0.263999
     20          6           0       -9.986383   -0.994068   -0.461033
     21          6           0       11.044819    0.386504   -2.405257
     22          6           0      -10.630093    1.604546   -1.871332
     23          6           0        9.347228    1.757064   -0.123693
     24          6           0       -8.740741   -0.606685   -0.263683
     25          6           0        8.104596    2.342324    0.046406
     26          6           0       -7.583056   -1.375469   -0.462047
     27          6           0        7.975672    3.855591    0.423932
     28          6           0       -7.680398   -2.933173   -0.566645
     29          6           0        6.940159    1.666793   -0.062169
     30          6           0       -6.461062   -0.571841   -0.332547
     31          6           0        5.522787    2.078287    0.094836
     32          6           0       -5.069331   -1.152982   -0.372017
     33          6           0        4.434442    1.295832   -0.020458
     34          6           0       -3.976488   -0.417765   -0.185765
     35          6           0        2.995238    1.677199    0.278962
     36          6           0       -2.624762   -0.904762   -0.225849
     37          6           0        2.800634    3.176579    0.569252
     38          6           0       -2.323708   -2.275519   -0.544415
     39          6           0        2.092872    0.753757    0.033077
     40          6           0       -1.660977    0.067661   -0.139617
     41          6           0        0.669002    0.935732    0.078893
     42          6           0       -0.208598   -0.129245   -0.106394
     43          1           0       13.696584   -0.837398    1.090296
     44          1           0       12.930992   -2.286088    1.757119
     45          1           0      -14.422635   -0.686050    1.250521
     46          1           0      -13.987486   -0.537351   -0.441839
     47          1           0       12.590160   -2.671959   -0.448250
     48          1           0      -12.872906    1.471219    1.538929
     49          1           0       13.683884   -0.274192   -1.535725
     50          1           0       12.906173   -1.378775   -2.518988
     51          1           0      -13.303480    1.738475   -1.396892
     52          1           0      -12.453606    2.920375   -0.549557
     53          1           0       11.928545   -0.903631    3.284875
     54          1           0       10.411683    0.069069    2.908759
     55          1           0       11.671793    0.900446    2.435107
     56          1           0       10.967428   -3.161909    0.567430
     57          1           0       10.933977   -2.806137    2.349759
     58          1           0        9.672668   -2.315568    1.300647
     59          1           0      -11.562095   -0.079862    2.312512
     60          1           0      -10.796245   -1.519349    2.198446
     61          1           0      -12.493287   -1.497835    2.657303
     62          1           0      -13.488627   -2.546427    0.715682
     63          1           0      -11.600546   -2.961524    0.648537
     64          1           0      -12.522492   -2.475224   -0.924840
     65          1           0        8.935814   -0.104136    1.004728
     66          1           0      -10.200991   -1.962925   -1.095356
     67          1           0        9.914338    0.575473   -1.962685
     68          1           0       11.716900    1.268842   -2.955290
     69          1           0       10.714397   -0.518059   -3.242752
     70          1           0      -11.146210    1.769094   -2.781555
     71          1           0       -9.706122    1.092584   -1.961557
     72          1           0      -10.240137    2.699367   -1.256280
     73          1           0       14.803683   -3.359232   -0.331571
     74          1           0      -15.451636    1.286662    1.286152
     75          1           0       10.302244    2.270909   -0.718600
     76          1           0       -8.445017    0.466034    0.019763
     77          1           0        8.558926    4.472360   -0.179903
     78          1           0        6.902790    4.129541    0.687643
     79          1           0        8.365726    3.767806    1.505763
     80          1           0       -8.412875   -3.279070    0.367606
     81          1           0       -7.883656   -3.267658   -1.627875
     82          1           0       -6.768343   -3.572210    0.028457
     83          1           0        6.830775    0.577919   -0.414193
     84          1           0       -6.680451    0.683894   -0.407769
     85          1           0        5.248235    3.141691    0.403927
     86          1           0       -4.882358   -2.319716   -0.636526
     87          1           0        4.628817    0.167603   -0.480631
     88          1           0       -4.187528    0.734477    0.037120
     89          1           0        3.326583    3.455153    1.509089
     90          1           0        1.858568    3.497612    0.783336
     91          1           0        3.217167    3.967661   -0.177434
     92          1           0       -2.637136   -3.112855    0.240243
     93          1           0       -2.729250   -2.771682   -1.498982
     94          1           0       -1.137528   -2.676355   -0.554079
     95          1           0        2.393488   -0.156209   -0.142714
     96          1           0       -1.924608    1.288026   -0.002864
     97          1           0        0.302913    1.902520    0.193065
     98          1           0        0.134797   -1.096412   -0.258512
 ---------------------------------------------------------------------

 SCF Done:  E(RCAM-B3LYP) =  -1706.85621130     A.U. after   14 cycles

 Excitation energies and oscillator strengths:

 Excited State   1:      Singlet-A      2.9195 eV  424.67 nm  f=3.6080  <S**2>=0.000
     155 ->158        -0.20462
     156 ->157         0.66728
 This state for optimization and/or second-order correction.
 Total Energy, E(TD-HF/TD-DFT) =  -1706.74891989
 Copying the excited state density for this state as the 1-particle RhoCI density.

 The electronic state is 1-A.
 Alpha  occ. eigenvalues --  -19.22455 -19.22378 -10.30893 -10.29769 -10.28737
 Alpha  occ. eigenvalues --  -10.28667 -10.28244 -10.28040 -10.28038 -10.28002
 Alpha  occ. eigenvalues --  -10.27830 -10.27632 -10.27484 -10.27468 -10.27302
 Alpha  occ. eigenvalues --  -10.27236 -10.27170 -10.27164 -10.26681 -10.26678
 Alpha  occ. eigenvalues --  -10.26602 -10.26574 -10.26531 -10.26529 -10.26454
 Alpha  occ. eigenvalues --  -10.26272 -10.26264 -10.26046 -10.25831 -10.25767
 Alpha  occ. eigenvalues --  -10.25712 -10.25627 -10.25604 -10.25541 -10.25531
 Alpha  occ. eigenvalues --  -10.25365 -10.25061 -10.24820 -10.24795 -10.24510
 Alpha  occ. eigenvalues --  -10.23185 -10.21984  -1.10011  -1.09636  -0.93384
 Alpha  occ. eigenvalues --   -0.93188  -0.92211  -0.91473  -0.90708  -0.90373
 Alpha  occ. eigenvalues --   -0.87010  -0.86865  -0.86749  -0.85179  -0.84510
 Alpha  occ. eigenvalues --   -0.83114  -0.81759  -0.80012  -0.79314  -0.78479
 Alpha  occ. eigenvalues --   -0.76881  -0.75818  -0.75673  -0.75493  -0.75280
 Alpha  occ. eigenvalues --   -0.74849  -0.74576  -0.74323  -0.73601  -0.70325
 Alpha  occ. eigenvalues --   -0.68604  -0.67491  -0.65836  -0.65021  -0.63439
 Alpha  occ. eigenvalues --   -0.62985  -0.62347  -0.61385  -0.60769  -0.59330
 Alpha  occ. eigenvalues --   -0.58834  -0.58525  -0.57987  -0.57823  -0.56471
 Alpha  occ. eigenvalues --   -0.55901  -0.55154  -0.54479  -0.53851  -0.53351
 Alpha  occ. eigenvalues --   -0.52797  -0.52649  -0.51979  -0.51734  -0.51325
 Alpha  occ. eigenvalues --   -0.50643  -0.49877  -0.49415  -0.48977  -0.48867
 Alpha  occ. eigenvalues --   -0.48835  -0.48535  -0.48216  -0.48107  -0.47745
 Alpha  occ. eigenvalues --   -0.47495  -0.47288  -0.47069  -0.46286  -0.46097
 Alpha  occ. eigenvalues --   -0.45900  -0.45790  -0.44795  -0.44600  -0.44444
 Alpha  occ. eigenvalues --   -0.44280  -0.44195  -0.43835  -0.43695  -0.43243
 Alpha  occ. eigenvalues --   -0.42860  -0.42707  -0.42042  -0.41846  -0.41828
 Alpha  occ. eigenvalues --   -0.41375  -0.40856  -0.40582  -0.40321  -0.40082
 Alpha  occ. eigenvalues --   -0.39864  -0.39618  -0.39407  -0.39106  -0.38697
 Alpha  occ. eigenvalues --   -0.38578  -0.38269  -0.38061  -0.37897  -0.37850
 Alpha  occ. eigenvalues --   -0.37387  -0.36853  -0.36558  -0.36320  -0.35692
 Alpha  occ. eigenvalues --   -0.35272  -0.34123  -0.33126  -0.31861  -0.31666
 Alpha  occ. eigenvalues --   -0.31259  -0.29107  -0.27989  -0.26305  -0.23973
 Alpha  occ. eigenvalues --   -0.21479
 Alpha virt. eigenvalues --   -0.03945  -0.00474   0.02241   0.05892   0.08122
 Alpha virt. eigenvalues --    0.09208   0.09653   0.10060   0.10842   0.11154
 Alpha virt. eigenvalues --    0.11550   0.12100   0.12309   0.12358   0.12739

 Mulliken charges:
               1
     1  O   -0.563960
     2  O   -0.560653
     3  C   -0.034908
     4  C   -0.043758
     5  C   -0.166240
     6  C   -0.221247
     7  C    0.193790
     8  C    0.214695
     9  C    0.054336
    10  C    0.047418
    11  C   -0.238510
    12  C   -0.236562
    13  C    0.103862
    14  C    0.062950
    15  C   -0.291858
    16  C   -0.295496
    17  C   -0.267010
    18  C   -0.294735
    19  C   -0.125863
    20  C   -0.169555
    21  C   -0.372577
    22  C   -0.334019
    23  C   -0.130121
    24  C   -0.072127
    25  C    0.082025
    26  C    0.143284
    27  C   -0.355616
    28  C   -0.356669
    29  C   -0.112265
    30  C   -0.158873
    31  C   -0.081899
    32  C   -0.115310
    33  C   -0.127087
    34  C   -0.085697
    35  C    0.116202
    36  C    0.157597
    37  C   -0.384455
    38  C   -0.402114
    39  C   -0.087790
    40  C   -0.131733
    41  C   -0.082233
    42  C   -0.072125
    43  H    0.097391
    44  H    0.063129
    45  H    0.052962
    46  H    0.104475
    47  H    0.076624
    48  H    0.061037
    49  H    0.117927
    50  H    0.094892
    51  H    0.111529
    52  H    0.115449
    53  H    0.099165
    54  H    0.102308
    55  H    0.094545
    56  H    0.060750
    57  H    0.106229
    58  H    0.115475
    59  H    0.108732
    60  H    0.105100
    61  H    0.087782
    62  H    0.077743
    63  H    0.097960
    64  H    0.106404
    65  H    0.098573
    66  H    0.094063
    67  H    0.118817
    68  H    0.096939
    69  H    0.077319
    70  H    0.117970
    71  H    0.119553
    72  H    0.051808
    73  H    0.316033
    74  H    0.319143
    75  H    0.104140
    76  H    0.084152
    77  H    0.127366
    78  H    0.112009
    79  H    0.112404
    80  H    0.109109
    81  H    0.137006
    82  H    0.094683
    83  H    0.073159
    84  H    0.086159
    85  H    0.069566
    86  H    0.084835
    87  H    0.065073
    88  H    0.079455
    89  H    0.121499
    90  H    0.116390
    91  H    0.119744
    92  H    0.108691
    93  H    0.129274
    94  H    0.092152
    95  H    0.070197
    96  H    0.072180
    97  H    0.080290
    98  H    0.079545
 Sum of Mulliken charges =  -0.00000

 Dipole moment (field-independent basis, Debye):
    X=              0.0653    Y=             -2.5677    Z=              0.9083  Tot=              2.7244
 Quadrupole moment (field-independent basis, Debye-Ang):
   XX=           -282.9354   YY=           -241.9544   ZZ=           -264.6117
   XY=              7.0226   XZ=              4.8032   YZ=              1.2271

 Normal termination of Gaussian 16 at Sun Jul  7 20:27:55 2019.
