 Gaussian 16, Revision A.03,
 Gaussian 16:  ES64L-G16RevA.03 25-Dec-2016

 -------------------------------------
 # td=(NStates=1) CAM-B3LYP/6-31G(d,p)
 -------------------------------------

 --
 TD
 --
 Symbolic Z-matrix:
 Charge =  0 Multiplicity = 1

                         Standard orientation:
 ---------------------------------------------------------------------
 Center     Atomic      Atomic             Coordinates (Angstroms)
 Number     Number       Type             X           Y           Z
 ---------------------------------------------------------------------
      1          8           0       14.835522   -2.109696   -0.420061
      2          8           0      -14.633522    2.106179    0.716162
      3          6           0       11.549841   -1.070320    1.366667
      4          6           0      -12.371823   -0.906523    0.763119
      5          6           0       13.060817   -1.327835    1.175285
      6          6           0      -13.674496   -0.254259    0.886793
      7          6           0       13.434219   -1.933175   -0.262120
      8          6           0      -13.464481    1.304380    0.805779
      9          6           0       10.979752   -0.413457    0.028847
     10          6           0      -11.330342   -0.398230   -0.233148
     11          6           0       12.908390   -0.991783   -1.284245
     12          6           0      -12.721134    1.690365   -0.432735
     13          6           0       11.513027   -0.347747   -1.142511
     14          6           0      -11.510383    0.852076   -0.717021
     15          6           0       11.327664   -0.130107    2.464618
     16          6           0       10.644699   -2.337213    1.644514
     17          6           0      -11.728973   -0.840299    2.188445
     18          6           0      -12.743992   -2.362091    0.580534
     19          6           0        9.604739    0.328582    0.064666
     20          6           0      -10.109531   -1.195488   -0.409527
     21          6           0       11.163654    0.312558   -2.385938
     22          6           0      -10.605209    1.458828   -1.788661
     23          6           0        9.387281    1.577663   -0.077806
     24          6           0       -8.936233   -0.629482   -0.352693
     25          6           0        8.019674    2.224344    0.121903
     26          6           0       -7.697317   -1.289865   -0.510285
     27          6           0        8.171889    3.632948    0.379671
     28          6           0       -7.711987   -2.646150   -1.157165
     29          6           0        6.939543    1.402242   -0.030159
     30          6           0       -6.507039   -0.647573   -0.231386
     31          6           0        5.537885    2.078096    0.091304
     32          6           0       -5.081874   -1.110440   -0.496806
     33          6           0        4.447451    1.241459   -0.086388
     34          6           0       -4.079724   -0.292612   -0.260299
     35          6           0        3.064540    1.567606    0.071176
     36          6           0       -2.686596   -0.776685   -0.435224
     37          6           0        2.807501    3.081220    0.397098
     38          6           0       -2.437107   -2.090652   -0.902958
     39          6           0        2.067981    0.765065   -0.136393
     40          6           0       -1.713679    0.176450   -0.277386
     41          6           0        0.641168    0.964071   -0.168521
     42          6           0       -0.282132    0.005177   -0.430995
     43          1           0       13.532404   -0.336875    1.119350
     44          1           0       13.477503   -1.965767    1.885293
     45          1           0      -14.272547   -0.673475    1.681622
     46          1           0      -14.299130   -0.350569   -0.039743
     47          1           0       12.810012   -2.802364   -0.514937
     48          1           0      -12.855927    1.558777    1.726093
     49          1           0       13.610277   -0.158608   -1.172337
     50          1           0       13.274225   -1.403732   -2.345662
     51          1           0      -13.211310    1.735323   -1.431523
     52          1           0      -12.506745    2.775279   -0.248511
     53          1           0       11.993618   -0.504436    3.303368
     54          1           0       10.294017    0.010334    2.933745
     55          1           0       11.805595    0.950214    2.198390
     56          1           0       10.886389   -3.092337    0.827465
     57          1           0       10.811015   -2.921168    2.536667
     58          1           0        9.708382   -1.867710    1.714075
     59          1           0      -11.672786    0.215650    2.634435
     60          1           0      -10.734255   -1.326583    2.211017
     61          1           0      -12.490842   -1.421937    3.040088
     62          1           0      -13.607138   -2.868467    1.122418
     63          1           0      -11.887418   -3.097351    0.824681
     64          1           0      -13.060972   -2.460955   -0.515351
     65          1           0        8.744973   -0.532239    0.224230
     66          1           0      -10.201722   -2.263974   -0.668287
     67          1           0       10.084719    0.682012   -2.484834
     68          1           0       11.972476    1.197087   -2.616449
     69          1           0       11.309752   -0.386224   -3.224543
     70          1           0      -11.438987    1.803371   -2.568413
     71          1           0       -9.830115    0.908259   -2.459259
     72          1           0       -9.893520    2.260769   -1.304566
     73          1           0       15.151367   -2.767798    0.273482
     74          1           0      -15.123111    2.130214    1.568540
     75          1           0       10.331535    2.313992   -0.171619
     76          1           0       -8.875621    0.384272    0.090053
     77          1           0        9.143168    3.899789   -0.341346
     78          1           0        7.320159    4.322490    0.384465
     79          1           0        8.656875    3.864460    1.189972
     80          1           0       -8.183993   -3.464173   -0.496887
     81          1           0       -8.219419   -2.703408   -2.140602
     82          1           0       -6.761387   -3.353139   -1.005237
     83          1           0        6.873196    0.368338   -0.150046
     84          1           0       -6.487484    0.235234    0.392570
     85          1           0        5.578172    3.162072    0.275468
     86          1           0       -4.926055   -2.213463   -0.676275
     87          1           0        4.761352    0.241233   -0.298269
     88          1           0       -3.992891    0.809616    0.071415
     89          1           0        3.125328    3.611568    1.281435
     90          1           0        1.717066    3.360568    0.396042
     91          1           0        3.093954    3.852209   -0.433183
     92          1           0       -2.859185   -2.643032   -0.114915
     93          1           0       -2.796203   -2.550674   -1.923866
     94          1           0       -1.416314   -2.438058   -0.895108
     95          1           0        2.347786   -0.204212   -0.508353
     96          1           0       -2.049019    1.116220    0.121350
     97          1           0        0.104981    1.989803    0.196982
     98          1           0        0.251804   -0.985166   -0.763683
 ---------------------------------------------------------------------

 SCF Done:  E(RCAM-B3LYP) =  -1706.99769032     A.U. after   13 cycles

 Excitation energies and oscillator strengths:

 Excited State   1:      Singlet-A      3.0870 eV  401.64 nm  f=3.5905  <S**2>=0.000
     155 ->158         0.18590
     156 ->157         0.67458
 This state for optimization and/or second-order correction.
 Total Energy, E(TD-HF/TD-DFT) =  -1706.88424635
 Copying the excited state density for this state as the 1-particle RhoCI density.

 The electronic state is 1-A.
 Alpha  occ. eigenvalues --  -19.22344 -19.21192 -10.30592 -10.30309 -10.28306
 Alpha  occ. eigenvalues --  -10.27704 -10.27154 -10.26996 -10.26989 -10.26987
 Alpha  occ. eigenvalues --  -10.26974 -10.26903 -10.26871 -10.26834 -10.26712
 Alpha  occ. eigenvalues --  -10.26593 -10.26588 -10.26532 -10.26479 -10.26437
 Alpha  occ. eigenvalues --  -10.26257 -10.26242 -10.26147 -10.26095 -10.26076
 Alpha  occ. eigenvalues --  -10.25989 -10.25920 -10.25843 -10.25669 -10.25598
 Alpha  occ. eigenvalues --  -10.25592 -10.25570 -10.25335 -10.25334 -10.25321
 Alpha  occ. eigenvalues --  -10.25260 -10.25183 -10.24992 -10.24989 -10.24932
 Alpha  occ. eigenvalues --  -10.24821 -10.24309  -1.09125  -1.08897  -0.94028
 Alpha  occ. eigenvalues --   -0.93542  -0.92295  -0.91367  -0.90734  -0.90395
 Alpha  occ. eigenvalues --   -0.87823  -0.87141  -0.86673  -0.85198  -0.84538
 Alpha  occ. eigenvalues --   -0.83101  -0.81929  -0.81016  -0.79358  -0.78266
 Alpha  occ. eigenvalues --   -0.76514  -0.76372  -0.76020  -0.75473  -0.75240
 Alpha  occ. eigenvalues --   -0.74770  -0.74638  -0.74470  -0.73877  -0.69920
 Alpha  occ. eigenvalues --   -0.68052  -0.66760  -0.65498  -0.64071  -0.63521
 Alpha  occ. eigenvalues --   -0.63139  -0.62495  -0.61111  -0.60295  -0.59798
 Alpha  occ. eigenvalues --   -0.59442  -0.58733  -0.58521  -0.57855  -0.56182
 Alpha  occ. eigenvalues --   -0.55666  -0.55210  -0.54661  -0.54439  -0.53530
 Alpha  occ. eigenvalues --   -0.53440  -0.52797  -0.52380  -0.52026  -0.50723
 Alpha  occ. eigenvalues --   -0.50283  -0.49804  -0.49662  -0.49557  -0.49249
 Alpha  occ. eigenvalues --   -0.49195  -0.48853  -0.48745  -0.48287  -0.47802
 Alpha  occ. eigenvalues --   -0.47357  -0.47220  -0.46943  -0.46254  -0.45808
 Alpha  occ. eigenvalues --   -0.45711  -0.45497  -0.45033  -0.44848  -0.44704
 Alpha  occ. eigenvalues --   -0.44534  -0.44085  -0.43897  -0.43267  -0.42913
 Alpha  occ. eigenvalues --   -0.42803  -0.41928  -0.41653  -0.41537  -0.41445
 Alpha  occ. eigenvalues --   -0.41345  -0.41011  -0.40872  -0.40325  -0.39846
 Alpha  occ. eigenvalues --   -0.39733  -0.39633  -0.39585  -0.39247  -0.38944
 Alpha  occ. eigenvalues --   -0.38499  -0.37973  -0.37674  -0.37583  -0.37323
 Alpha  occ. eigenvalues --   -0.37120  -0.37042  -0.36738  -0.36212  -0.35840
 Alpha  occ. eigenvalues --   -0.35409  -0.34598  -0.34139  -0.32469  -0.31927
 Alpha  occ. eigenvalues --   -0.30841  -0.29616  -0.28886  -0.26883  -0.24303
 Alpha  occ. eigenvalues --   -0.21413
 Alpha virt. eigenvalues --   -0.03173   0.00521   0.03654   0.07006   0.08202
 Alpha virt. eigenvalues --    0.08904   0.10179   0.11429   0.11784   0.12059
 Alpha virt. eigenvalues --    0.12220   0.12753   0.12903   0.13141   0.13519

 Mulliken charges:
               1
     1  O   -0.557146
     2  O   -0.565988
     3  C    0.008538
     4  C   -0.004864
     5  C   -0.197157
     6  C   -0.182727
     7  C    0.157680
     8  C    0.157315
     9  C   -0.019626
    10  C    0.074069
    11  C   -0.245195
    12  C   -0.209065
    13  C    0.137389
    14  C    0.021358
    15  C   -0.289868
    16  C   -0.298803
    17  C   -0.280583
    18  C   -0.304388
    19  C   -0.136572
    20  C   -0.127845
    21  C   -0.357017
    22  C   -0.337421
    23  C   -0.094757
    24  C   -0.079998
    25  C    0.117595
    26  C    0.133010
    27  C   -0.377601
    28  C   -0.384345
    29  C   -0.120247
    30  C   -0.154735
    31  C   -0.072638
    32  C   -0.120625
    33  C   -0.139971
    34  C   -0.064513
    35  C    0.161790
    36  C    0.131803
    37  C   -0.390440
    38  C   -0.386672
    39  C   -0.153888
    40  C   -0.152826
    41  C   -0.071316
    42  C   -0.080452
    43  H    0.106350
    44  H    0.082181
    45  H    0.092919
    46  H    0.092743
    47  H    0.077891
    48  H    0.072528
    49  H    0.110413
    50  H    0.083795
    51  H    0.122548
    52  H    0.118378
    53  H    0.093292
    54  H    0.107515
    55  H    0.081444
    56  H    0.097497
    57  H    0.101343
    58  H    0.112581
    59  H    0.091631
    60  H    0.111349
    61  H    0.050624
    62  H    0.099377
    63  H    0.083289
    64  H    0.091590
    65  H    0.079046
    66  H    0.096383
    67  H    0.115144
    68  H    0.097548
    69  H    0.116792
    70  H    0.083863
    71  H    0.115497
    72  H    0.103540
    73  H    0.314141
    74  H    0.304357
    75  H    0.079789
    76  H    0.086732
    77  H    0.093891
    78  H    0.115789
    79  H    0.149944
    80  H    0.106498
    81  H    0.130753
    82  H    0.090128
    83  H    0.088127
    84  H    0.084207
    85  H    0.084819
    86  H    0.096990
    87  H    0.074857
    88  H    0.088803
    89  H    0.120672
    90  H    0.098766
    91  H    0.101888
    92  H    0.128233
    93  H    0.116027
    94  H    0.111745
    95  H    0.076686
    96  H    0.076853
    97  H    0.070772
    98  H    0.078179
 Sum of Mulliken charges =  -0.00000

 Dipole moment (field-independent basis, Debye):
    X=              0.9580    Y=             -1.3912    Z=              2.7395  Tot=              3.2184
 Quadrupole moment (field-independent basis, Debye-Ang):
   XX=           -261.6777   YY=           -242.0002   ZZ=           -261.5274
   XY=              3.0769   XZ=              2.3521   YZ=              4.0580

 Normal termination of Gaussian 16 at Tue Jul  2 20:17:01 2019.
