 Gaussian 16, Revision A.03,
 Gaussian 16:  ES64L-G16RevA.03 25-Dec-2016

 -------------------------------------
 # td=(NStates=1) CAM-B3LYP/6-31G(d,p)
 -------------------------------------

 --
 TD
 --
 Symbolic Z-matrix:
 Charge =  0 Multiplicity = 1

                         Standard orientation:
 ---------------------------------------------------------------------
 Center     Atomic      Atomic             Coordinates (Angstroms)
 Number     Number       Type             X           Y           Z
 ---------------------------------------------------------------------
      1          8           0       14.764864   -2.046290   -0.488218
      2          8           0      -14.529100    2.326946    0.744891
      3          6           0       11.559995   -0.819319    1.247397
      4          6           0      -12.433562   -0.816146    0.752956
      5          6           0       13.054388   -1.205478    1.119830
      6          6           0      -13.697929    0.033741    0.683187
      7          6           0       13.371527   -1.795662   -0.328446
      8          6           0      -13.443979    1.536417    0.643668
      9          6           0       10.990529   -0.197683   -0.032688
     10          6           0      -11.349787   -0.244527   -0.204395
     11          6           0       13.001413   -0.932988   -1.443419
     12          6           0      -12.629613    1.865345   -0.523580
     13          6           0       11.597354   -0.273413   -1.341804
     14          6           0      -11.496216    0.980766   -0.776775
     15          6           0       11.534459   -0.035412    2.479310
     16          6           0       10.779326   -2.163649    1.664978
     17          6           0      -11.877386   -0.950501    2.170835
     18          6           0      -12.795817   -2.236448    0.223670
     19          6           0        9.673188    0.395238    0.141614
     20          6           0      -10.164038   -1.129876   -0.516751
     21          6           0       10.984061    0.276104   -2.502373
     22          6           0      -10.497265    1.516301   -1.786689
     23          6           0        9.256635    1.614219   -0.232010
     24          6           0       -8.845439   -0.654934   -0.224014
     25          6           0        7.960085    2.212834   -0.069088
     26          6           0       -7.683971   -1.426545   -0.420627
     27          6           0        7.980786    3.685748    0.319741
     28          6           0       -7.751478   -2.834826   -0.948235
     29          6           0        6.822930    1.449382   -0.145701
     30          6           0       -6.475516   -0.820378   -0.320405
     31          6           0        5.548357    1.877143    0.013114
     32          6           0       -5.104820   -1.313444   -0.550861
     33          6           0        4.417692    1.072281    0.025216
     34          6           0       -3.950386   -0.558375   -0.206198
     35          6           0        3.015958    1.535070    0.169980
     36          6           0       -2.609309   -0.959563   -0.214290
     37          6           0        2.752438    3.056210    0.262251
     38          6           0       -2.191221   -2.407366   -0.530259
     39          6           0        2.019135    0.589785    0.106310
     40          6           0       -1.741329   -0.037993    0.012198
     41          6           0        0.607569    0.828987    0.218213
     42          6           0       -0.285714   -0.172446    0.032088
     43          1           0       13.921489   -0.282279    1.257601
     44          1           0       13.330349   -1.903657    1.860977
     45          1           0      -14.330947   -0.218167    1.524705
     46          1           0      -14.236240   -0.221054   -0.353111
     47          1           0       12.919698   -2.803376   -0.364199
     48          1           0      -12.605946    1.705060    1.558880
     49          1           0       13.795860   -0.179344   -1.528347
     50          1           0       12.976465   -1.685640   -2.262683
     51          1           0      -13.141382    1.726083   -1.601558
     52          1           0      -12.377879    2.886494   -0.603228
     53          1           0       12.103299   -0.587347    3.344837
     54          1           0       10.482326    0.356208    2.878187
     55          1           0       12.063190    1.060382    2.297753
     56          1           0       10.890849   -3.010353    1.060603
     57          1           0       11.382914   -2.347404    2.541231
     58          1           0        9.666915   -2.063735    1.946684
     59          1           0      -12.069756   -0.173956    3.060934
     60          1           0      -10.915292   -1.499207    2.092422
     61          1           0      -12.384833   -1.944357    2.701534
     62          1           0      -13.840954   -2.493908    0.801108
     63          1           0      -11.943559   -2.922011    0.373053
     64          1           0      -12.893977   -2.258188   -0.932590
     65          1           0        8.996117   -0.085378    0.874405
     66          1           0      -10.485722   -2.164640   -1.034356
     67          1           0        9.826711    0.910889   -2.370695
     68          1           0       11.674374    1.040876   -2.902965
     69          1           0       10.939476   -0.552165   -3.378202
     70          1           0      -11.208609    1.826104   -2.592068
     71          1           0      -10.003229    0.785282   -2.279278
     72          1           0       -9.982834    2.354981   -1.493416
     73          1           0       15.304964   -2.660343    0.195299
     74          1           0      -14.922909    2.049693    1.688335
     75          1           0       10.041434    2.275840   -0.913423
     76          1           0       -8.810771    0.448534    0.104432
     77          1           0        8.974290    4.087773   -0.236429
     78          1           0        7.034195    4.246220   -0.076152
     79          1           0        8.012719    3.935137    1.399756
     80          1           0       -8.700071   -3.465244   -0.506118
     81          1           0       -8.124135   -2.857696   -2.087696
     82          1           0       -6.848920   -3.446106   -0.937912
     83          1           0        6.937163    0.366401   -0.340474
     84          1           0       -6.557467    0.243840   -0.054032
     85          1           0        5.319722    3.011038    0.154966
     86          1           0       -4.900199   -2.303374   -0.656254
     87          1           0        4.627115   -0.199045    0.048469
     88          1           0       -4.021128    0.604770    0.012219
     89          1           0        2.912832    3.221027    1.360970
     90          1           0        1.815071    3.407619    0.086931
     91          1           0        3.615471    3.497910   -0.373982
     92          1           0       -2.364574   -3.113020    0.399874
     93          1           0       -2.630782   -2.959986   -1.363064
     94          1           0       -1.078334   -2.287882   -0.790269
     95          1           0        2.260126   -0.389440   -0.038218
     96          1           0       -1.943825    0.982160    0.296348
     97          1           0        0.098778    1.675236    0.458004
     98          1           0        0.095966   -1.104080   -0.170883
 ---------------------------------------------------------------------

 SCF Done:  E(RCAM-B3LYP) =  -1706.95894374     A.U. after   14 cycles

 Excitation energies and oscillator strengths:

 Excited State   1:      Singlet-A      2.6175 eV  473.68 nm  f=3.8361  <S**2>=0.000
     155 ->158         0.19363
     156 ->157         0.67308
 This state for optimization and/or second-order correction.
 Total Energy, E(TD-HF/TD-DFT) =  -1706.86275327
 Copying the excited state density for this state as the 1-particle RhoCI density.

 The electronic state is 1-A.
 Alpha  occ. eigenvalues --  -19.23013 -19.20949 -10.30912 -10.30460 -10.28627
 Alpha  occ. eigenvalues --  -10.28280 -10.28064 -10.27916 -10.27565 -10.27517
 Alpha  occ. eigenvalues --  -10.27422 -10.27413 -10.27398 -10.27299 -10.27229
 Alpha  occ. eigenvalues --  -10.27170 -10.27107 -10.26940 -10.26928 -10.26822
 Alpha  occ. eigenvalues --  -10.26720 -10.26708 -10.26678 -10.26433 -10.26379
 Alpha  occ. eigenvalues --  -10.26364 -10.26358 -10.26337 -10.26191 -10.25930
 Alpha  occ. eigenvalues --  -10.25792 -10.25779 -10.25704 -10.25702 -10.25645
 Alpha  occ. eigenvalues --  -10.25541 -10.25348 -10.25334 -10.25067 -10.24970
 Alpha  occ. eigenvalues --  -10.24779 -10.22962  -1.11586  -1.07096  -0.93168
 Alpha  occ. eigenvalues --   -0.93135  -0.92966  -0.91635  -0.90562  -0.90043
 Alpha  occ. eigenvalues --   -0.87826  -0.87152  -0.87105  -0.85259  -0.84159
 Alpha  occ. eigenvalues --   -0.82818  -0.81915  -0.80088  -0.78984  -0.77906
 Alpha  occ. eigenvalues --   -0.76388  -0.75857  -0.75665  -0.75491  -0.75323
 Alpha  occ. eigenvalues --   -0.74947  -0.74511  -0.74103  -0.73745  -0.70499
 Alpha  occ. eigenvalues --   -0.68435  -0.67027  -0.65452  -0.64320  -0.63695
 Alpha  occ. eigenvalues --   -0.63160  -0.62763  -0.62330  -0.60071  -0.59232
 Alpha  occ. eigenvalues --   -0.58989  -0.58220  -0.57913  -0.57861  -0.56095
 Alpha  occ. eigenvalues --   -0.55610  -0.55081  -0.54925  -0.54427  -0.53635
 Alpha  occ. eigenvalues --   -0.53142  -0.52532  -0.52215  -0.51304  -0.50705
 Alpha  occ. eigenvalues --   -0.50603  -0.50446  -0.49834  -0.49102  -0.48755
 Alpha  occ. eigenvalues --   -0.48624  -0.48433  -0.48179  -0.47864  -0.47592
 Alpha  occ. eigenvalues --   -0.47371  -0.47240  -0.46481  -0.46219  -0.45578
 Alpha  occ. eigenvalues --   -0.45451  -0.45293  -0.44898  -0.44436  -0.44319
 Alpha  occ. eigenvalues --   -0.44198  -0.44049  -0.43895  -0.43598  -0.43504
 Alpha  occ. eigenvalues --   -0.43073  -0.42297  -0.42250  -0.41962  -0.41890
 Alpha  occ. eigenvalues --   -0.41612  -0.41322  -0.41259  -0.41188  -0.40857
 Alpha  occ. eigenvalues --   -0.40438  -0.40303  -0.39931  -0.39363  -0.39201
 Alpha  occ. eigenvalues --   -0.38980  -0.38715  -0.38604  -0.38151  -0.37595
 Alpha  occ. eigenvalues --   -0.37425  -0.37310  -0.36904  -0.36374  -0.35796
 Alpha  occ. eigenvalues --   -0.35195  -0.34677  -0.33464  -0.31871  -0.31093
 Alpha  occ. eigenvalues --   -0.30911  -0.29210  -0.27314  -0.26014  -0.23268
 Alpha  occ. eigenvalues --   -0.20607
 Alpha virt. eigenvalues --   -0.04692  -0.01074   0.02818   0.05395   0.08098
 Alpha virt. eigenvalues --    0.09286   0.09826   0.10169   0.10405   0.11442
 Alpha virt. eigenvalues --    0.12097   0.12241   0.12475   0.13548   0.14071

 Mulliken charges:
               1
     1  O   -0.597177
     2  O   -0.537350
     3  C   -0.021437
     4  C    0.023090
     5  C   -0.184873
     6  C   -0.191732
     7  C    0.185841
     8  C    0.198616
     9  C    0.052748
    10  C    0.031487
    11  C   -0.201830
    12  C   -0.207317
    13  C    0.080493
    14  C    0.052421
    15  C   -0.271154
    16  C   -0.293396
    17  C   -0.304850
    18  C   -0.299917
    19  C   -0.108104
    20  C   -0.170193
    21  C   -0.368861
    22  C   -0.348294
    23  C   -0.128449
    24  C   -0.112313
    25  C    0.075942
    26  C    0.164034
    27  C   -0.353659
    28  C   -0.367472
    29  C   -0.093657
    30  C   -0.133385
    31  C   -0.082528
    32  C   -0.108433
    33  C   -0.117023
    34  C   -0.116946
    35  C    0.083566
    36  C    0.158227
    37  C   -0.354197
    38  C   -0.369780
    39  C   -0.119785
    40  C   -0.128831
    41  C   -0.060205
    42  C   -0.091940
    43  H    0.069024
    44  H    0.086044
    45  H    0.075650
    46  H    0.085159
    47  H    0.077563
    48  H    0.027000
    49  H    0.131092
    50  H    0.113293
    51  H    0.088540
    52  H    0.115479
    53  H    0.094003
    54  H    0.084886
    55  H    0.079861
    56  H    0.108690
    57  H    0.096873
    58  H    0.099668
    59  H    0.102155
    60  H    0.120722
    61  H    0.057533
    62  H    0.086284
    63  H    0.103623
    64  H    0.094899
    65  H    0.088808
    66  H    0.091802
    67  H    0.103077
    68  H    0.121017
    69  H    0.091941
    70  H    0.086495
    71  H    0.128065
    72  H    0.121644
    73  H    0.311676
    74  H    0.315354
    75  H    0.075668
    76  H    0.104551
    77  H    0.094599
    78  H    0.100512
    79  H    0.134286
    80  H    0.087445
    81  H    0.103718
    82  H    0.117047
    83  H    0.086270
    84  H    0.076207
    85  H    0.077947
    86  H    0.078771
    87  H    0.065588
    88  H    0.073643
    89  H    0.125983
    90  H    0.124137
    91  H    0.113610
    92  H    0.113953
    93  H    0.124633
    94  H    0.107405
    95  H    0.079801
    96  H    0.080562
    97  H    0.067192
    98  H    0.067171
 Sum of Mulliken charges =  -0.00000

 Dipole moment (field-independent basis, Debye):
    X=              1.7798    Y=             -1.2902    Z=              1.8947  Tot=              2.9021
 Quadrupole moment (field-independent basis, Debye-Ang):
   XX=           -266.4605   YY=           -247.4900   ZZ=           -261.4202
   XY=             -1.5423   XZ=              2.8787   YZ=              1.9470

 Normal termination of Gaussian 16 at Thu Jul  4 08:01:07 2019.
