 Gaussian 16, Revision A.03,
 Gaussian 16:  ES64L-G16RevA.03 25-Dec-2016

 -------------------------------------
 # td=(NStates=1) CAM-B3LYP/6-31G(d,p)
 -------------------------------------

 --
 TD
 --
 Symbolic Z-matrix:
 Charge =  0 Multiplicity = 1

                         Standard orientation:
 ---------------------------------------------------------------------
 Center     Atomic      Atomic             Coordinates (Angstroms)
 Number     Number       Type             X           Y           Z
 ---------------------------------------------------------------------
      1          8           0       14.790085   -2.244937   -0.483618
      2          8           0      -14.860083    1.985154    0.778202
      3          6           0       11.570643   -1.096670    1.181747
      4          6           0      -12.342215   -0.995649    0.631104
      5          6           0       13.053234   -1.480557    1.062035
      6          6           0      -13.686870   -0.219569    0.743905
      7          6           0       13.465794   -1.871720   -0.347712
      8          6           0      -13.641715    1.270251    0.848108
      9          6           0       11.090678   -0.197505   -0.040444
     10          6           0      -11.316957   -0.228337   -0.207329
     11          6           0       13.249337   -0.592188   -1.232425
     12          6           0      -12.928702    1.742306   -0.479475
     13          6           0       11.844403    0.006219   -1.174887
     14          6           0      -11.615415    1.004545   -0.777425
     15          6           0       11.236434   -0.472646    2.501047
     16          6           0       10.643485   -2.466699    1.086551
     17          6           0      -11.786373   -1.133656    2.150117
     18          6           0      -12.717285   -2.385431    0.037212
     19          6           0        9.773220    0.383298    0.137994
     20          6           0      -10.158044   -0.973242   -0.381878
     21          6           0       11.516578    0.819249   -2.423474
     22          6           0      -10.819264    1.750088   -1.739435
     23          6           0        9.289775    1.670205   -0.153727
     24          6           0       -8.864948   -0.459903   -0.250501
     25          6           0        7.965363    2.171165    0.189592
     26          6           0       -7.580044   -1.244149   -0.391265
     27          6           0        7.988295    3.619310    0.510604
     28          6           0       -7.695690   -2.645562   -0.909293
     29          6           0        6.960741    1.353453    0.064349
     30          6           0       -6.465252   -0.623967   -0.338070
     31          6           0        5.535591    1.836204    0.243442
     32          6           0       -5.119621   -1.119701   -0.429408
     33          6           0        4.377780    1.175853    0.010542
     34          6           0       -4.062449   -0.383544   -0.235103
     35          6           0        3.099137    1.570056    0.171453
     36          6           0       -2.680932   -0.787557   -0.298243
     37          6           0        2.715934    2.920404    0.665108
     38          6           0       -2.415758   -2.209766   -0.822388
     39          6           0        2.154208    0.694545   -0.162186
     40          6           0       -1.687844    0.130256   -0.141775
     41          6           0        0.741802    0.860024    0.079874
     42          6           0       -0.259283   -0.028727   -0.353214
     43          1           0       13.451966   -0.671296    1.422425
     44          1           0       13.371433   -2.291084    1.713068
     45          1           0      -14.337230   -0.845959    1.572496
     46          1           0      -14.429561   -0.466435   -0.160435
     47          1           0       12.732005   -2.624574   -0.664269
     48          1           0      -12.957861    1.503467    1.776302
     49          1           0       13.876187    0.137849   -1.074561
     50          1           0       13.610290   -0.919301   -2.242013
     51          1           0      -13.678314    1.368922   -1.271653
     52          1           0      -12.854973    2.787548   -0.448388
     53          1           0       11.755102   -1.066787    3.419663
     54          1           0       10.185640   -0.266146    2.670771
     55          1           0       11.871212    0.413027    2.765282
     56          1           0       10.632227   -2.946524    0.092659
     57          1           0       10.980795   -3.031783    1.796825
     58          1           0        9.627725   -2.301887    1.333391
     59          1           0      -11.710307   -0.019859    2.511159
     60          1           0      -10.784383   -1.800827    2.003566
     61          1           0      -12.446355   -1.562685    2.573227
     62          1           0      -13.601335   -3.001689    0.271024
     63          1           0      -11.779984   -3.127774    0.213941
     64          1           0      -12.843677   -2.478314   -1.007716
     65          1           0        8.968637   -0.381843    0.560670
     66          1           0      -10.129071   -2.000213   -0.559711
     67          1           0       10.339009    1.103754   -2.335988
     68          1           0       12.166456    1.533372   -2.571314
     69          1           0       11.760571    0.098276   -3.234812
     70          1           0      -11.258157    2.079000   -2.690214
     71          1           0      -10.085791    0.976883   -2.176186
     72          1           0      -10.422276    2.617164   -1.231898
     73          1           0       14.888965   -2.858230    0.204234
     74          1           0      -15.500865    1.683639    1.523488
     75          1           0       10.023302    2.363317   -0.339058
     76          1           0       -8.773822    0.559450    0.094304
     77          1           0        8.513146    4.395093   -0.011216
     78          1           0        7.077249    4.130844    0.822592
     79          1           0        8.460282    3.739711    1.551756
     80          1           0       -7.826729   -3.401969   -0.154188
     81          1           0       -8.248969   -2.654034   -1.740822
     82          1           0       -6.507858   -3.038131   -1.066659
     83          1           0        6.890514    0.309737   -0.390703
     84          1           0       -6.262804    0.415397   -0.028019
     85          1           0        5.336589    2.884532    0.664713
     86          1           0       -5.049362   -2.317286   -0.581799
     87          1           0        4.628957    0.213183   -0.484790
     88          1           0       -4.119279    0.704299    0.156805
     89          1           0        3.256963    3.165932    1.544290
     90          1           0        1.840502    3.481336    0.547559
     91          1           0        3.370760    3.690255   -0.205204
     92          1           0       -3.012535   -3.039353   -0.207764
     93          1           0       -2.620991   -2.270164   -1.908688
     94          1           0       -1.307964   -2.605659   -0.793577
     95          1           0        2.378328   -0.426688   -0.331103
     96          1           0       -2.194912    1.072739    0.013058
     97          1           0        0.334788    1.845430    0.379265
     98          1           0        0.409138   -0.943509   -0.793228
 ---------------------------------------------------------------------

 SCF Done:  E(RCAM-B3LYP) =  -1706.90284810     A.U. after   14 cycles

 Excitation energies and oscillator strengths:

 Excited State   1:      Singlet-A      2.8255 eV  438.80 nm  f=3.7222  <S**2>=0.000
     155 ->158        -0.17098
     156 ->157         0.67650
 This state for optimization and/or second-order correction.
 Total Energy, E(TD-HF/TD-DFT) =  -1706.79901200
 Copying the excited state density for this state as the 1-particle RhoCI density.

 The electronic state is 1-A.
 Alpha  occ. eigenvalues --  -19.22312 -19.21754 -10.31142 -10.30382 -10.28538
 Alpha  occ. eigenvalues --  -10.28237 -10.27903 -10.27350 -10.27341 -10.27191
 Alpha  occ. eigenvalues --  -10.27077 -10.26944 -10.26783 -10.26757 -10.26706
 Alpha  occ. eigenvalues --  -10.26632 -10.26547 -10.26516 -10.26415 -10.26370
 Alpha  occ. eigenvalues --  -10.26362 -10.26353 -10.26259 -10.26237 -10.26094
 Alpha  occ. eigenvalues --  -10.26048 -10.26020 -10.25913 -10.25650 -10.25628
 Alpha  occ. eigenvalues --  -10.25583 -10.25557 -10.25084 -10.25058 -10.24950
 Alpha  occ. eigenvalues --  -10.24947 -10.24779 -10.24586 -10.24552 -10.23933
 Alpha  occ. eigenvalues --  -10.23902 -10.23263  -1.12347  -1.08811  -0.93178
 Alpha  occ. eigenvalues --   -0.93094  -0.92817  -0.92114  -0.91108  -0.90067
 Alpha  occ. eigenvalues --   -0.86928  -0.86610  -0.86387  -0.85263  -0.84559
 Alpha  occ. eigenvalues --   -0.83221  -0.81545  -0.80174  -0.79969  -0.77657
 Alpha  occ. eigenvalues --   -0.77450  -0.77006  -0.76599  -0.76396  -0.76222
 Alpha  occ. eigenvalues --   -0.75803  -0.75259  -0.74377  -0.74166  -0.70549
 Alpha  occ. eigenvalues --   -0.69092  -0.67721  -0.66192  -0.65093  -0.64673
 Alpha  occ. eigenvalues --   -0.63990  -0.62270  -0.60477  -0.59996  -0.59741
 Alpha  occ. eigenvalues --   -0.59577  -0.59343  -0.58369  -0.57774  -0.56375
 Alpha  occ. eigenvalues --   -0.56090  -0.55299  -0.54862  -0.54588  -0.53742
 Alpha  occ. eigenvalues --   -0.52924  -0.52563  -0.52420  -0.51784  -0.51269
 Alpha  occ. eigenvalues --   -0.50923  -0.50497  -0.50229  -0.49841  -0.49580
 Alpha  occ. eigenvalues --   -0.49150  -0.48697  -0.48673  -0.48039  -0.47902
 Alpha  occ. eigenvalues --   -0.47822  -0.47573  -0.47433  -0.47029  -0.46942
 Alpha  occ. eigenvalues --   -0.46335  -0.46234  -0.45440  -0.45169  -0.44853
 Alpha  occ. eigenvalues --   -0.44140  -0.43918  -0.43862  -0.43354  -0.43167
 Alpha  occ. eigenvalues --   -0.42985  -0.42736  -0.42584  -0.42436  -0.41893
 Alpha  occ. eigenvalues --   -0.41785  -0.41663  -0.41116  -0.40930  -0.40652
 Alpha  occ. eigenvalues --   -0.40221  -0.39689  -0.39531  -0.39330  -0.39083
 Alpha  occ. eigenvalues --   -0.39033  -0.38135  -0.37675  -0.37597  -0.37275
 Alpha  occ. eigenvalues --   -0.36825  -0.36504  -0.36490  -0.35873  -0.35353
 Alpha  occ. eigenvalues --   -0.34934  -0.33949  -0.33404  -0.33156  -0.32461
 Alpha  occ. eigenvalues --   -0.31939  -0.30188  -0.28116  -0.25781  -0.23785
 Alpha  occ. eigenvalues --   -0.20906
 Alpha virt. eigenvalues --   -0.03953  -0.00020   0.02454   0.05604   0.08350
 Alpha virt. eigenvalues --    0.09579   0.10564   0.11157   0.11818   0.12031
 Alpha virt. eigenvalues --    0.12604   0.12978   0.13025   0.13303   0.14068

 Mulliken charges:
               1
     1  O   -0.532834
     2  O   -0.557222
     3  C   -0.013398
     4  C   -0.027062
     5  C   -0.188414
     6  C   -0.192184
     7  C    0.167187
     8  C    0.179656
     9  C    0.065701
    10  C    0.093904
    11  C   -0.230270
    12  C   -0.211166
    13  C    0.032477
    14  C    0.049776
    15  C   -0.310534
    16  C   -0.311863
    17  C   -0.253500
    18  C   -0.321223
    19  C   -0.126473
    20  C   -0.146464
    21  C   -0.344868
    22  C   -0.369232
    23  C   -0.127286
    24  C   -0.098377
    25  C    0.138110
    26  C    0.081935
    27  C   -0.397477
    28  C   -0.364908
    29  C   -0.132658
    30  C   -0.084770
    31  C   -0.114450
    32  C   -0.074510
    33  C   -0.112488
    34  C   -0.133360
    35  C    0.181144
    36  C    0.138837
    37  C   -0.370597
    38  C   -0.368815
    39  C   -0.154960
    40  C   -0.141524
    41  C   -0.079175
    42  C   -0.097182
    43  H    0.108378
    44  H    0.068448
    45  H    0.051407
    46  H    0.077459
    47  H    0.080115
    48  H    0.059501
    49  H    0.126834
    50  H    0.093067
    51  H    0.115914
    52  H    0.112977
    53  H    0.075305
    54  H    0.122632
    55  H    0.101842
    56  H    0.103472
    57  H    0.109179
    58  H    0.100124
    59  H    0.091082
    60  H    0.091060
    61  H    0.108778
    62  H    0.107089
    63  H    0.071015
    64  H    0.119793
    65  H    0.078473
    66  H    0.087020
    67  H    0.107885
    68  H    0.128867
    69  H    0.109058
    70  H    0.115490
    71  H    0.107948
    72  H    0.121166
    73  H    0.299264
    74  H    0.308099
    75  H    0.087733
    76  H    0.081309
    77  H    0.136192
    78  H    0.118454
    79  H    0.112801
    80  H    0.129800
    81  H    0.137580
    82  H    0.067266
    83  H    0.099099
    84  H    0.074147
    85  H    0.060497
    86  H    0.074187
    87  H    0.072511
    88  H    0.078270
    89  H    0.135522
    90  H    0.141012
    91  H    0.056391
    92  H    0.097232
    93  H    0.129973
    94  H    0.098127
    95  H    0.080936
    96  H    0.082844
    97  H    0.074334
    98  H    0.075560
 Sum of Mulliken charges =  -0.00000

 Dipole moment (field-independent basis, Debye):
    X=              0.5396    Y=             -0.6499    Z=              1.9266  Tot=              2.1037
 Quadrupole moment (field-independent basis, Debye-Ang):
   XX=           -245.2078   YY=           -243.0625   ZZ=           -261.3185
   XY=             16.3412   XZ=              7.6860   YZ=              2.2109

 Normal termination of Gaussian 16 at Sat Jun 29 19:43:16 2019.
