 Gaussian 16, Revision A.03,
 Gaussian 16:  ES64L-G16RevA.03 25-Dec-2016

 -------------------------------------
 # td=(NStates=1) CAM-B3LYP/6-31G(d,p)
 -------------------------------------

 --
 TD
 --
 Symbolic Z-matrix:
 Charge =  0 Multiplicity = 1

                         Standard orientation:
 ---------------------------------------------------------------------
 Center     Atomic      Atomic             Coordinates (Angstroms)
 Number     Number       Type             X           Y           Z
 ---------------------------------------------------------------------
      1          8           0       14.756920   -2.095538   -0.405974
      2          8           0      -14.748011    2.188385    0.598979
      3          6           0       11.528761   -0.907873    1.262241
      4          6           0      -12.328016   -0.734569    0.801996
      5          6           0       13.019972   -1.220895    1.099845
      6          6           0      -13.681301    0.034203    0.699201
      7          6           0       13.446472   -1.816213   -0.329770
      8          6           0      -13.516111    1.482327    0.651329
      9          6           0       11.026208   -0.117624   -0.071951
     10          6           0      -11.380557   -0.258150   -0.255792
     11          6           0       13.091421   -0.874071   -1.405024
     12          6           0      -12.767309    1.798868   -0.678202
     13          6           0       11.691309   -0.313599   -1.288531
     14          6           0      -11.561013    0.879724   -0.915174
     15          6           0       11.328981    0.094219    2.409729
     16          6           0       10.829235   -2.198922    1.587569
     17          6           0      -11.754635   -0.640916    2.223038
     18          6           0      -12.600942   -2.178883    0.500932
     19          6           0        9.723410    0.392976    0.120768
     20          6           0      -10.169362   -1.038174   -0.504916
     21          6           0       11.078443    0.211660   -2.538843
     22          6           0      -10.615366    1.546632   -1.967840
     23          6           0        9.332294    1.629107   -0.146248
     24          6           0       -8.920274   -0.523640   -0.336682
     25          6           0        8.050699    2.295103    0.032159
     26          6           0       -7.678571   -1.400795   -0.418002
     27          6           0        8.037256    3.743526    0.261212
     28          6           0       -7.782597   -2.880879   -0.649944
     29          6           0        6.895162    1.544080    0.003590
     30          6           0       -6.511471   -0.741455   -0.251230
     31          6           0        5.591910    1.982473   -0.016162
     32          6           0       -5.098570   -1.313296   -0.404711
     33          6           0        4.443751    1.161893   -0.162154
     34          6           0       -4.037629   -0.570520   -0.290872
     35          6           0        3.083317    1.495716    0.116915
     36          6           0       -2.666370   -1.091403   -0.265860
     37          6           0        2.803749    2.936967    0.602612
     38          6           0       -2.397792   -2.544216   -0.739234
     39          6           0        2.076858    0.615517   -0.098693
     40          6           0       -1.626078   -0.188288   -0.071808
     41          6           0        0.650862    0.675389    0.143988
     42          6           0       -0.227333   -0.402334   -0.021836
     43          1           0       13.753968   -0.310561    1.149182
     44          1           0       13.273415   -1.874967    1.929095
     45          1           0      -14.168501   -0.180261    1.602618
     46          1           0      -14.273361   -0.355782   -0.218514
     47          1           0       12.799117   -2.667511   -0.549460
     48          1           0      -12.761490    1.821972    1.452594
     49          1           0       13.848973   -0.144431   -1.115336
     50          1           0       13.047481   -1.317325   -2.398119
     51          1           0      -13.485342    1.617301   -1.356242
     52          1           0      -12.549637    2.781013   -0.703211
     53          1           0       11.950597   -0.218785    3.364924
     54          1           0       10.444389    0.187214    2.737190
     55          1           0       11.533959    1.222185    2.149031
     56          1           0       11.262352   -3.081549    1.078597
     57          1           0       11.164082   -2.548041    2.473991
     58          1           0        9.738874   -2.227520    1.544789
     59          1           0      -11.860206    0.338116    2.519437
     60          1           0      -10.713011   -0.956631    2.414773
     61          1           0      -12.496924   -1.246038    2.842248
     62          1           0      -13.363370   -2.623837    0.969035
     63          1           0      -11.896686   -2.741083    0.824367
     64          1           0      -12.928525   -2.608099   -0.526010
     65          1           0        8.942901   -0.234435    0.569268
     66          1           0      -10.368277   -1.996393   -0.775957
     67          1           0       10.027490    0.776841   -2.347497
     68          1           0       11.434965    1.003881   -3.121511
     69          1           0       11.244062   -0.335269   -3.331162
     70          1           0      -11.315384    2.093547   -2.719086
     71          1           0       -9.954481    0.665968   -2.342744
     72          1           0       -9.992457    2.295129   -1.361470
     73          1           0       15.107516   -2.533585    0.396104
     74          1           0      -15.104055    1.693236    1.452671
     75          1           0       10.148990    2.398136   -0.451880
     76          1           0       -8.707537    0.467820    0.244760
     77          1           0        8.541007    4.459691   -0.307155
     78          1           0        7.086365    4.033715    0.441961
     79          1           0        8.611408    4.024211    1.199363
     80          1           0       -8.515705   -3.273070    0.122644
     81          1           0       -8.418938   -2.882616   -1.461888
     82          1           0       -6.879664   -3.379078   -0.990597
     83          1           0        6.986313    0.523694   -0.095227
     84          1           0       -6.613863    0.432696   -0.163882
     85          1           0        5.369184    3.086978    0.156192
     86          1           0       -5.123518   -2.339715   -0.499407
     87          1           0        4.662939    0.019944   -0.421737
     88          1           0       -4.185079    0.408029   -0.183264
     89          1           0        3.280189    3.126971    1.601411
     90          1           0        1.704823    2.950018    0.853967
     91          1           0        3.167548    3.864044    0.005895
     92          1           0       -3.281424   -3.241819   -0.138531
     93          1           0       -2.620571   -2.711832   -1.843894
     94          1           0       -1.277234   -2.967211   -0.345068
     95          1           0        2.421864   -0.298836   -0.498657
     96          1           0       -1.883835    0.838431    0.081255
     97          1           0        0.319439    1.503918    0.467802
     98          1           0        0.340948   -1.463203   -0.047567
 ---------------------------------------------------------------------

 SCF Done:  E(RCAM-B3LYP) =  -1706.95052440     A.U. after   14 cycles

 Excitation energies and oscillator strengths:

 Excited State   1:      Singlet-A      2.5236 eV  491.29 nm  f=3.3919  <S**2>=0.000
     155 ->158        -0.14733
     156 ->157         0.68973
 This state for optimization and/or second-order correction.
 Total Energy, E(TD-HF/TD-DFT) =  -1706.85778235
 Copying the excited state density for this state as the 1-particle RhoCI density.

 The electronic state is 1-A.
 Alpha  occ. eigenvalues --  -19.22535 -19.21796 -10.29918 -10.29663 -10.29405
 Alpha  occ. eigenvalues --  -10.28073 -10.27873 -10.27584 -10.27516 -10.27481
 Alpha  occ. eigenvalues --  -10.27461 -10.27361 -10.27292 -10.27276 -10.27191
 Alpha  occ. eigenvalues --  -10.26734 -10.26644 -10.26570 -10.26308 -10.26291
 Alpha  occ. eigenvalues --  -10.25954 -10.25821 -10.25663 -10.25654 -10.25630
 Alpha  occ. eigenvalues --  -10.25618 -10.25575 -10.25573 -10.25380 -10.25349
 Alpha  occ. eigenvalues --  -10.25169 -10.24961 -10.24872 -10.24865 -10.24587
 Alpha  occ. eigenvalues --  -10.24518 -10.24387 -10.23974 -10.23845 -10.23473
 Alpha  occ. eigenvalues --  -10.22638 -10.22524  -1.12039  -1.09422  -0.94330
 Alpha  occ. eigenvalues --   -0.93058  -0.91760  -0.91397  -0.90544  -0.89640
 Alpha  occ. eigenvalues --   -0.87548  -0.87342  -0.86870  -0.85937  -0.85110
 Alpha  occ. eigenvalues --   -0.83438  -0.81733  -0.81130  -0.80140  -0.78063
 Alpha  occ. eigenvalues --   -0.77751  -0.77361  -0.76754  -0.76440  -0.75901
 Alpha  occ. eigenvalues --   -0.75731  -0.75388  -0.74848  -0.73555  -0.70869
 Alpha  occ. eigenvalues --   -0.69300  -0.67141  -0.66065  -0.65583  -0.64576
 Alpha  occ. eigenvalues --   -0.64106  -0.63009  -0.62684  -0.60935  -0.60348
 Alpha  occ. eigenvalues --   -0.59617  -0.59134  -0.58035  -0.57751  -0.57235
 Alpha  occ. eigenvalues --   -0.55986  -0.55441  -0.55322  -0.55111  -0.53838
 Alpha  occ. eigenvalues --   -0.53484  -0.52934  -0.52585  -0.51969  -0.51087
 Alpha  occ. eigenvalues --   -0.50819  -0.50446  -0.50190  -0.49320  -0.49118
 Alpha  occ. eigenvalues --   -0.49042  -0.48617  -0.48377  -0.48226  -0.48045
 Alpha  occ. eigenvalues --   -0.47344  -0.47050  -0.46890  -0.46690  -0.46434
 Alpha  occ. eigenvalues --   -0.46148  -0.45867  -0.45740  -0.45563  -0.45384
 Alpha  occ. eigenvalues --   -0.45323  -0.44574  -0.44470  -0.44248  -0.43747
 Alpha  occ. eigenvalues --   -0.43612  -0.43294  -0.42893  -0.42718  -0.42438
 Alpha  occ. eigenvalues --   -0.42245  -0.41312  -0.41060  -0.40898  -0.40801
 Alpha  occ. eigenvalues --   -0.40280  -0.40136  -0.39992  -0.39668  -0.39405
 Alpha  occ. eigenvalues --   -0.39198  -0.38842  -0.38795  -0.38682  -0.38298
 Alpha  occ. eigenvalues --   -0.37948  -0.37417  -0.36569  -0.36510  -0.35971
 Alpha  occ. eigenvalues --   -0.35405  -0.34183  -0.33325  -0.32595  -0.31923
 Alpha  occ. eigenvalues --   -0.31411  -0.29369  -0.27786  -0.26444  -0.24195
 Alpha  occ. eigenvalues --   -0.20198
 Alpha virt. eigenvalues --   -0.04885   0.00006   0.03011   0.05691   0.08292
 Alpha virt. eigenvalues --    0.09817   0.10938   0.11214   0.11816   0.12187
 Alpha virt. eigenvalues --    0.12753   0.13121   0.13277   0.13634   0.13831

 Mulliken charges:
               1
     1  O   -0.542697
     2  O   -0.545048
     3  C    0.020879
     4  C   -0.022827
     5  C   -0.222794
     6  C   -0.187412
     7  C    0.179991
     8  C    0.137464
     9  C    0.009916
    10  C    0.079260
    11  C   -0.199766
    12  C   -0.212646
    13  C    0.080171
    14  C    0.018134
    15  C   -0.286957
    16  C   -0.314169
    17  C   -0.307767
    18  C   -0.315885
    19  C   -0.109783
    20  C   -0.156168
    21  C   -0.374126
    22  C   -0.340155
    23  C   -0.116011
    24  C   -0.090971
    25  C    0.100705
    26  C    0.102327
    27  C   -0.378150
    28  C   -0.374850
    29  C   -0.096201
    30  C   -0.155533
    31  C   -0.088134
    32  C   -0.077753
    33  C   -0.140886
    34  C   -0.063538
    35  C    0.135764
    36  C    0.090223
    37  C   -0.378618
    38  C   -0.341884
    39  C   -0.132157
    40  C   -0.122434
    41  C   -0.059146
    42  C   -0.082240
    43  H    0.084383
    44  H    0.074303
    45  H    0.074346
    46  H    0.104109
    47  H    0.062921
    48  H    0.070085
    49  H    0.121918
    50  H    0.105248
    51  H    0.123035
    52  H    0.107705
    53  H    0.069180
    54  H    0.116865
    55  H    0.089824
    56  H    0.097323
    57  H    0.111792
    58  H    0.108291
    59  H    0.110647
    60  H    0.117095
    61  H    0.091451
    62  H    0.101563
    63  H    0.109612
    64  H    0.087840
    65  H    0.091119
    66  H    0.093272
    67  H    0.108208
    68  H    0.115143
    69  H    0.105951
    70  H    0.100347
    71  H    0.113116
    72  H    0.111247
    73  H    0.312789
    74  H    0.303096
    75  H    0.076406
    76  H    0.098832
    77  H    0.128980
    78  H    0.117202
    79  H    0.110023
    80  H    0.121188
    81  H    0.137161
    82  H    0.120331
    83  H    0.076199
    84  H    0.064864
    85  H    0.077619
    86  H    0.069394
    87  H    0.070377
    88  H    0.074716
    89  H    0.117646
    90  H    0.101448
    91  H    0.117418
    92  H    0.077495
    93  H    0.133993
    94  H    0.095768
    95  H    0.071420
    96  H    0.085446
    97  H    0.061618
    98  H    0.082504
 Sum of Mulliken charges =  -0.00000

 Dipole moment (field-independent basis, Debye):
    X=              0.1191    Y=             -1.8520    Z=              2.4309  Tot=              3.0583
 Quadrupole moment (field-independent basis, Debye-Ang):
   XX=           -261.3073   YY=           -245.5003   ZZ=           -259.9025
   XY=             22.1201   XZ=              0.3719   YZ=              0.4660

 Normal termination of Gaussian 16 at Wed Jul  3 06:04:06 2019.
