 Gaussian 16, Revision A.03,
 Gaussian 16:  ES64L-G16RevA.03 25-Dec-2016

 -------------------------------------
 # td=(NStates=1) CAM-B3LYP/6-31G(d,p)
 -------------------------------------

 --
 TD
 --
 Symbolic Z-matrix:
 Charge =  0 Multiplicity = 1

                         Standard orientation:
 ---------------------------------------------------------------------
 Center     Atomic      Atomic             Coordinates (Angstroms)
 Number     Number       Type             X           Y           Z
 ---------------------------------------------------------------------
      1          8           0       14.623248   -2.340978   -0.477371
      2          8           0      -14.776271    1.965266    0.841086
      3          6           0       11.573487   -1.045464    1.238659
      4          6           0      -12.339754   -0.930110    0.701007
      5          6           0       13.042867   -1.293270    0.955981
      6          6           0      -13.617281   -0.203059    0.611247
      7          6           0       13.251804   -2.012468   -0.382183
      8          6           0      -13.535909    1.327297    0.659126
      9          6           0       10.929090   -0.343642   -0.018121
     10          6           0      -11.358845   -0.223903   -0.333472
     11          6           0       12.899872   -0.989036   -1.492168
     12          6           0      -12.725979    1.716182   -0.546968
     13          6           0       11.610184   -0.303805   -1.237413
     14          6           0      -11.665338    0.932642   -0.953087
     15          6           0       11.385859   -0.054853    2.408460
     16          6           0       10.874448   -2.373061    1.315202
     17          6           0      -11.771312   -0.933358    2.157393
     18          6           0      -12.590386   -2.408641    0.323519
     19          6           0        9.608214    0.334761    0.207953
     20          6           0      -10.126876   -1.067893   -0.581532
     21          6           0       11.090859    0.414181   -2.428882
     22          6           0      -10.657608    1.531310   -1.970187
     23          6           0        9.350560    1.608511   -0.011075
     24          6           0       -8.831474   -0.609182   -0.405993
     25          6           0        7.991195    2.217845    0.055129
     26          6           0       -7.589332   -1.327159   -0.471072
     27          6           0        8.162982    3.760427    0.279084
     28          6           0       -7.713100   -2.694942   -0.849105
     29          6           0        6.883842    1.494553   -0.029136
     30          6           0       -6.400795   -0.759307   -0.247726
     31          6           0        5.563039    1.968982    0.157453
     32          6           0       -5.084138   -1.221258   -0.264411
     33          6           0        4.473291    1.272087   -0.042907
     34          6           0       -3.988539   -0.425581   -0.126043
     35          6           0        3.112473    1.697686    0.365157
     36          6           0       -2.626915   -0.829474   -0.244285
     37          6           0        2.922428    3.217377    0.425505
     38          6           0       -2.363662   -2.280042   -0.506299
     39          6           0        2.106928    0.771041    0.202343
     40          6           0       -1.626866    0.199944   -0.059840
     41          6           0        0.589538    0.946076    0.175319
     42          6           0       -0.253454   -0.032992   -0.099485
     43          1           0       13.683156   -0.390082    0.893088
     44          1           0       13.692696   -1.939920    1.733527
     45          1           0      -14.349504   -0.503868    1.429706
     46          1           0      -14.249834   -0.501351   -0.306662
     47          1           0       12.536491   -2.926464   -0.461507
     48          1           0      -12.992127    1.531317    1.703344
     49          1           0       13.684352   -0.120047   -1.482316
     50          1           0       12.868139   -1.324655   -2.641014
     51          1           0      -13.588591    1.969306   -1.269738
     52          1           0      -12.225743    2.876255   -0.419305
     53          1           0       11.876685   -0.549363    3.434220
     54          1           0       10.215948   -0.086860    2.660601
     55          1           0       12.005491    0.945775    2.425023
     56          1           0       10.880184   -2.751208    0.413862
     57          1           0       11.112650   -3.068667    2.076435
     58          1           0        9.874265   -2.263826    1.735874
     59          1           0      -11.772990   -0.004708    2.588842
     60          1           0      -10.800298   -1.334413    2.239481
     61          1           0      -12.288245   -1.579764    2.740438
     62          1           0      -13.646115   -2.726641    0.543048
     63          1           0      -11.621543   -2.920192    0.542809
     64          1           0      -12.987658   -2.336664   -0.855165
     65          1           0        9.010459   -0.427872    0.753055
     66          1           0      -10.040240   -2.116209   -0.441114
     67          1           0       10.274708    0.734770   -2.375071
     68          1           0       11.825887    1.214843   -2.760528
     69          1           0       10.916176   -0.256583   -3.422513
     70          1           0      -11.136339    2.017766   -2.884899
     71          1           0       -9.980288    0.811366   -2.291177
     72          1           0      -10.202724    2.491865   -1.557656
     73          1           0       15.069778   -2.760452    0.429689
     74          1           0      -15.302774    1.666180    1.498899
     75          1           0       10.083635    2.280614   -0.491603
     76          1           0       -8.683058    0.474164   -0.122833
     77          1           0        8.676241    4.233595   -0.496417
     78          1           0        7.034757    4.326285    0.341243
     79          1           0        8.539984    3.921388    1.332621
     80          1           0       -8.482622   -3.229174   -0.023360
     81          1           0       -8.414092   -2.769796   -1.661444
     82          1           0       -6.885607   -3.339178   -0.936248
     83          1           0        7.106557    0.328434   -0.266545
     84          1           0       -6.654095    0.256807    0.139062
     85          1           0        5.211672    3.048741    0.381247
     86          1           0       -4.956600   -2.252519   -0.572521
     87          1           0        4.419245    0.303902   -0.486083
     88          1           0       -4.022463    0.596235    0.183414
     89          1           0        3.688435    3.694849    1.161358
     90          1           0        1.911748    3.456841    0.880499
     91          1           0        3.112113    3.655697   -0.724975
     92          1           0       -2.735242   -2.903085    0.235841
     93          1           0       -3.024504   -2.482893   -1.389728
     94          1           0       -1.293953   -2.485316   -0.905429
     95          1           0        2.428335   -0.171374    0.128387
     96          1           0       -2.021400    1.213513    0.115664
     97          1           0        0.337182    2.012283    0.492247
     98          1           0        0.173476   -0.824369   -0.520288
 ---------------------------------------------------------------------

 SCF Done:  E(RCAM-B3LYP) =  -1706.91875134     A.U. after   14 cycles

 Excitation energies and oscillator strengths:

 Excited State   1:      Singlet-A      2.7137 eV  456.88 nm  f=3.6116  <S**2>=0.000
     155 ->158        -0.16282
     156 ->157         0.68288
 This state for optimization and/or second-order correction.
 Total Energy, E(TD-HF/TD-DFT) =  -1706.81902361
 Copying the excited state density for this state as the 1-particle RhoCI density.

 The electronic state is 1-A.
 Alpha  occ. eigenvalues --  -19.21603 -19.20375 -10.31312 -10.31290 -10.28355
 Alpha  occ. eigenvalues --  -10.27936 -10.27814 -10.27770 -10.27545 -10.27321
 Alpha  occ. eigenvalues --  -10.27282 -10.27235 -10.27189 -10.27101 -10.26806
 Alpha  occ. eigenvalues --  -10.26733 -10.26647 -10.26523 -10.26503 -10.26493
 Alpha  occ. eigenvalues --  -10.26384 -10.26335 -10.26271 -10.26230 -10.26162
 Alpha  occ. eigenvalues --  -10.26137 -10.26133 -10.26121 -10.26012 -10.26000
 Alpha  occ. eigenvalues --  -10.25882 -10.25839 -10.25789 -10.25488 -10.25362
 Alpha  occ. eigenvalues --  -10.25247 -10.25154 -10.25065 -10.24985 -10.23997
 Alpha  occ. eigenvalues --  -10.23302 -10.22404  -1.10716  -1.07354  -0.94027
 Alpha  occ. eigenvalues --   -0.93626  -0.92714  -0.91849  -0.91230  -0.89760
 Alpha  occ. eigenvalues --   -0.88226  -0.87627  -0.87364  -0.85372  -0.84702
 Alpha  occ. eigenvalues --   -0.82974  -0.82174  -0.80217  -0.79755  -0.78039
 Alpha  occ. eigenvalues --   -0.77302  -0.77059  -0.76991  -0.75987  -0.75752
 Alpha  occ. eigenvalues --   -0.75399  -0.74878  -0.74490  -0.73906  -0.71197
 Alpha  occ. eigenvalues --   -0.68989  -0.68192  -0.66195  -0.64735  -0.63690
 Alpha  occ. eigenvalues --   -0.63431  -0.62914  -0.62785  -0.60190  -0.59162
 Alpha  occ. eigenvalues --   -0.59048  -0.58354  -0.58050  -0.57841  -0.57032
 Alpha  occ. eigenvalues --   -0.56122  -0.55499  -0.54995  -0.54769  -0.54075
 Alpha  occ. eigenvalues --   -0.53426  -0.53138  -0.52100  -0.51961  -0.51786
 Alpha  occ. eigenvalues --   -0.51638  -0.50859  -0.50619  -0.49880  -0.49821
 Alpha  occ. eigenvalues --   -0.49308  -0.48602  -0.48573  -0.48271  -0.47798
 Alpha  occ. eigenvalues --   -0.47478  -0.47229  -0.47001  -0.46555  -0.46323
 Alpha  occ. eigenvalues --   -0.45973  -0.45458  -0.45387  -0.45136  -0.45018
 Alpha  occ. eigenvalues --   -0.44907  -0.44089  -0.43871  -0.43577  -0.43423
 Alpha  occ. eigenvalues --   -0.43118  -0.43016  -0.42444  -0.42160  -0.41899
 Alpha  occ. eigenvalues --   -0.41685  -0.41436  -0.41191  -0.40857  -0.40759
 Alpha  occ. eigenvalues --   -0.40072  -0.39974  -0.39732  -0.39239  -0.39186
 Alpha  occ. eigenvalues --   -0.38939  -0.38882  -0.38515  -0.38187  -0.38083
 Alpha  occ. eigenvalues --   -0.37836  -0.37387  -0.36018  -0.35665  -0.35305
 Alpha  occ. eigenvalues --   -0.35195  -0.34150  -0.33443  -0.32059  -0.31719
 Alpha  occ. eigenvalues --   -0.31164  -0.29785  -0.27828  -0.26356  -0.24225
 Alpha  occ. eigenvalues --   -0.20869
 Alpha virt. eigenvalues --   -0.04592  -0.00336   0.02758   0.05569   0.07537
 Alpha virt. eigenvalues --    0.08830   0.09425   0.10966   0.11505   0.11648
 Alpha virt. eigenvalues --    0.12511   0.12681   0.12697   0.13563   0.13658

 Mulliken charges:
               1
     1  O   -0.585647
     2  O   -0.558839
     3  C    0.003229
     4  C    0.012938
     5  C   -0.182182
     6  C   -0.217593
     7  C    0.201932
     8  C    0.202097
     9  C   -0.002247
    10  C    0.052775
    11  C   -0.214748
    12  C   -0.237953
    13  C    0.068599
    14  C    0.119659
    15  C   -0.290728
    16  C   -0.294906
    17  C   -0.308807
    18  C   -0.298988
    19  C   -0.112766
    20  C   -0.151201
    21  C   -0.313509
    22  C   -0.357232
    23  C   -0.084795
    24  C   -0.115556
    25  C    0.079323
    26  C    0.174247
    27  C   -0.355906
    28  C   -0.401832
    29  C   -0.127261
    30  C   -0.122041
    31  C   -0.075725
    32  C   -0.107750
    33  C   -0.096332
    34  C   -0.077950
    35  C    0.088438
    36  C    0.095611
    37  C   -0.363636
    38  C   -0.377221
    39  C   -0.135922
    40  C   -0.139406
    41  C   -0.081195
    42  C   -0.045604
    43  H    0.103882
    44  H    0.049112
    45  H    0.062839
    46  H    0.084083
    47  H    0.074916
    48  H    0.053402
    49  H    0.109180
    50  H    0.097157
    51  H    0.118894
    52  H    0.071600
    53  H    0.061173
    54  H    0.095673
    55  H    0.113697
    56  H    0.124180
    57  H    0.102946
    58  H    0.090719
    59  H    0.109102
    60  H    0.104378
    61  H    0.109277
    62  H    0.114474
    63  H    0.108468
    64  H    0.071657
    65  H    0.095531
    66  H    0.069320
    67  H    0.108305
    68  H    0.101990
    69  H    0.073861
    70  H    0.096499
    71  H    0.131158
    72  H    0.104854
    73  H    0.307786
    74  H    0.299019
    75  H    0.092441
    76  H    0.079923
    77  H    0.132685
    78  H    0.071118
    79  H    0.129243
    80  H    0.077929
    81  H    0.134703
    82  H    0.112387
    83  H    0.084202
    84  H    0.064579
    85  H    0.078560
    86  H    0.079392
    87  H    0.075650
    88  H    0.081330
    89  H    0.114015
    90  H    0.106446
    91  H    0.115575
    92  H    0.139814
    93  H    0.119232
    94  H    0.103346
    95  H    0.071476
    96  H    0.090528
    97  H    0.076943
    98  H    0.085979
 Sum of Mulliken charges =  -0.00000

 Dipole moment (field-independent basis, Debye):
    X=              1.2718    Y=             -1.0486    Z=              1.9954  Tot=              2.5882
 Quadrupole moment (field-independent basis, Debye-Ang):
   XX=           -272.4959   YY=           -250.0041   ZZ=           -261.6114
   XY=             19.5436   XZ=              2.7560   YZ=             -2.9889

 Normal termination of Gaussian 16 at Sun Jun 30 18:13:17 2019.
