 Gaussian 16, Revision A.03,
 Gaussian 16:  ES64L-G16RevA.03 25-Dec-2016

 -------------------------------------
 # td=(NStates=1) CAM-B3LYP/6-31G(d,p)
 -------------------------------------

 --
 TD
 --
 Symbolic Z-matrix:
 Charge =  0 Multiplicity = 1

                         Standard orientation:
 ---------------------------------------------------------------------
 Center     Atomic      Atomic             Coordinates (Angstroms)
 Number     Number       Type             X           Y           Z
 ---------------------------------------------------------------------
      1          8           0       14.676033   -2.339990   -0.367122
      2          8           0      -14.846828    1.879237    0.713880
      3          6           0       11.459242   -1.127929    1.157042
      4          6           0      -12.298277   -0.817552    0.955549
      5          6           0       12.918555   -1.448366    1.064506
      6          6           0      -13.633055   -0.184202    0.999347
      7          6           0       13.314441   -1.949124   -0.333223
      8          6           0      -13.524788    1.321726    0.665068
      9          6           0       11.075203   -0.335540   -0.026568
     10          6           0      -11.373837   -0.325454   -0.137375
     11          6           0       13.018479   -0.963040   -1.363850
     12          6           0      -12.895607    1.503394   -0.693416
     13          6           0       11.725965   -0.254979   -1.176847
     14          6           0      -11.714714    0.751939   -0.903181
     15          6           0       11.263276   -0.325442    2.466426
     16          6           0       10.650054   -2.435430    1.294137
     17          6           0      -11.501890   -0.639056    2.350075
     18          6           0      -12.573928   -2.329174    0.848940
     19          6           0        9.672343    0.334765    0.166132
     20          6           0      -10.122317   -1.006393   -0.439174
     21          6           0       11.278019    0.538214   -2.382964
     22          6           0      -10.929624    1.285331   -2.181369
     23          6           0        9.425917    1.670599    0.041946
     24          6           0       -8.866825   -0.536920   -0.377623
     25          6           0        8.125384    2.300503    0.319784
     26          6           0       -7.560578   -1.335213   -0.540217
     27          6           0        8.242231    3.748647    0.722354
     28          6           0       -7.666578   -2.849790   -0.668379
     29          6           0        6.919349    1.624546   -0.020603
     30          6           0       -6.457939   -0.553809   -0.599641
     31          6           0        5.618157    2.129683    0.231279
     32          6           0       -5.173790   -1.121853   -0.602083
     33          6           0        4.518896    1.393746   -0.117372
     34          6           0       -4.123605   -0.381574   -0.472051
     35          6           0        3.091312    1.789750    0.032737
     36          6           0       -2.648248   -0.774566   -0.458871
     37          6           0        2.774333    3.104142    0.566712
     38          6           0       -2.321366   -2.182534   -0.832126
     39          6           0        2.071828    0.829110   -0.150920
     40          6           0       -1.631731    0.208023   -0.289503
     41          6           0        0.622548    0.909877   -0.052016
     42          6           0       -0.247115   -0.104637   -0.361697
     43          1           0       13.399847   -0.400773    1.323423
     44          1           0       13.419689   -2.181081    1.621254
     45          1           0      -13.930228   -0.483295    2.014503
     46          1           0      -14.307277   -0.566622    0.285519
     47          1           0       12.809070   -2.814159   -0.556735
     48          1           0      -12.915801    1.795390    1.368101
     49          1           0       13.868188   -0.232013   -1.394772
     50          1           0       12.839869   -1.439455   -2.301072
     51          1           0      -13.632369    1.268076   -1.679089
     52          1           0      -12.768725    2.518182   -0.790104
     53          1           0       11.417478   -0.848127    3.441008
     54          1           0       10.334437    0.183871    2.494638
     55          1           0       11.967560    0.567617    2.554740
     56          1           0       10.941050   -3.104177    0.385495
     57          1           0       10.762234   -2.836020    2.295663
     58          1           0        9.702890   -2.324051    1.449321
     59          1           0      -11.142179    0.470587    2.358762
     60          1           0      -10.733110   -1.299829    2.238687
     61          1           0      -12.078133   -0.937717    3.092759
     62          1           0      -13.177350   -2.665891    1.655537
     63          1           0      -11.668887   -2.860682    1.045268
     64          1           0      -12.925847   -2.717456   -0.111356
     65          1           0        9.038674   -0.320230    0.559375
     66          1           0      -10.349293   -2.097238   -0.410232
     67          1           0       10.301498    0.760112   -2.291544
     68          1           0       11.963315    1.287000   -2.659499
     69          1           0       11.231212   -0.250756   -3.289216
     70          1           0      -11.660393    1.562193   -2.844101
     71          1           0      -10.286646    0.557330   -2.696915
     72          1           0      -10.394731    2.323923   -1.862386
     73          1           0       14.683975   -3.425584   -0.006527
     74          1           0      -15.294380    1.482269    1.559980
     75          1           0       10.071722    2.235972   -0.415650
     76          1           0       -8.724745    0.607824   -0.422827
     77          1           0        8.473873    4.297335   -0.280393
     78          1           0        7.359200    4.275482    0.857422
     79          1           0        8.580420    3.880126    1.654915
     80          1           0       -8.057102   -3.237096    0.487723
     81          1           0       -8.425456   -3.130090   -1.402060
     82          1           0       -6.671638   -3.252618   -0.769844
     83          1           0        7.021356    0.686566   -0.544070
     84          1           0       -6.349607    0.472654   -0.408612
     85          1           0        5.693834    3.084124    0.418243
     86          1           0       -4.911027   -2.222265   -0.764155
     87          1           0        4.451331    0.335288   -0.432220
     88          1           0       -4.354463    0.786087   -0.431866
     89          1           0        3.307746    3.209273    1.489105
     90          1           0        1.642670    3.274396    0.760618
     91          1           0        3.324090    3.862905    0.048308
     92          1           0       -2.843542   -2.664020   -0.092718
     93          1           0       -2.884793   -2.350353   -1.802022
     94          1           0       -1.175301   -2.346447   -0.868945
     95          1           0        2.603626   -0.094243   -0.564967
     96          1           0       -1.819262    1.287325   -0.114684
     97          1           0        0.378126    1.962914    0.308569
     98          1           0        0.141334   -1.015026   -0.540216
 ---------------------------------------------------------------------

 SCF Done:  E(RCAM-B3LYP) =  -1706.97421734     A.U. after   14 cycles

 Excitation energies and oscillator strengths:

 Excited State   1:      Singlet-A      2.7469 eV  451.35 nm  f=3.4889  <S**2>=0.000
     155 ->158         0.15970
     156 ->157         0.68421
 This state for optimization and/or second-order correction.
 Total Energy, E(TD-HF/TD-DFT) =  -1706.87326912
 Copying the excited state density for this state as the 1-particle RhoCI density.

 The electronic state is 1-A.
 Alpha  occ. eigenvalues --  -19.21899 -19.20889 -10.29531 -10.28381 -10.28128
 Alpha  occ. eigenvalues --  -10.27953 -10.27733 -10.27512 -10.27234 -10.27211
 Alpha  occ. eigenvalues --  -10.26927 -10.26836 -10.26757 -10.26704 -10.26541
 Alpha  occ. eigenvalues --  -10.26511 -10.26508 -10.26028 -10.25984 -10.25848
 Alpha  occ. eigenvalues --  -10.25682 -10.25675 -10.25511 -10.25508 -10.25492
 Alpha  occ. eigenvalues --  -10.25427 -10.25401 -10.25318 -10.25249 -10.25236
 Alpha  occ. eigenvalues --  -10.25164 -10.25088 -10.24994 -10.24801 -10.24563
 Alpha  occ. eigenvalues --  -10.24146 -10.24091 -10.23999 -10.23991 -10.23923
 Alpha  occ. eigenvalues --  -10.23863 -10.23647  -1.07395  -1.07254  -0.94179
 Alpha  occ. eigenvalues --   -0.94023  -0.92091  -0.91387  -0.90264  -0.89279
 Alpha  occ. eigenvalues --   -0.87776  -0.87610  -0.87247  -0.85655  -0.84719
 Alpha  occ. eigenvalues --   -0.83285  -0.82584  -0.80537  -0.79599  -0.78272
 Alpha  occ. eigenvalues --   -0.77357  -0.76762  -0.76579  -0.76308  -0.75954
 Alpha  occ. eigenvalues --   -0.75915  -0.75615  -0.75541  -0.73321  -0.70511
 Alpha  occ. eigenvalues --   -0.68941  -0.67788  -0.65819  -0.65456  -0.64713
 Alpha  occ. eigenvalues --   -0.64224  -0.63541  -0.62413  -0.61137  -0.60595
 Alpha  occ. eigenvalues --   -0.59465  -0.59153  -0.57487  -0.57181  -0.56432
 Alpha  occ. eigenvalues --   -0.55856  -0.54933  -0.54488  -0.53880  -0.53241
 Alpha  occ. eigenvalues --   -0.52922  -0.52601  -0.52391  -0.52063  -0.51895
 Alpha  occ. eigenvalues --   -0.51362  -0.50417  -0.50142  -0.49824  -0.49655
 Alpha  occ. eigenvalues --   -0.49499  -0.49339  -0.49216  -0.49072  -0.48198
 Alpha  occ. eigenvalues --   -0.48031  -0.47640  -0.47341  -0.46911  -0.46759
 Alpha  occ. eigenvalues --   -0.46560  -0.46211  -0.45672  -0.45461  -0.44840
 Alpha  occ. eigenvalues --   -0.44706  -0.44553  -0.44114  -0.43913  -0.43382
 Alpha  occ. eigenvalues --   -0.43221  -0.43142  -0.42827  -0.42480  -0.42332
 Alpha  occ. eigenvalues --   -0.41791  -0.41455  -0.41299  -0.41254  -0.41163
 Alpha  occ. eigenvalues --   -0.40628  -0.40308  -0.39818  -0.39719  -0.39562
 Alpha  occ. eigenvalues --   -0.39544  -0.38914  -0.38454  -0.38383  -0.38239
 Alpha  occ. eigenvalues --   -0.37684  -0.37042  -0.36415  -0.35919  -0.35582
 Alpha  occ. eigenvalues --   -0.35489  -0.34290  -0.33621  -0.31882  -0.31486
 Alpha  occ. eigenvalues --   -0.31169  -0.29177  -0.28133  -0.26082  -0.24030
 Alpha  occ. eigenvalues --   -0.20472
 Alpha virt. eigenvalues --   -0.03962   0.00244   0.03255   0.06389   0.07729
 Alpha virt. eigenvalues --    0.08038   0.09670   0.10710   0.11635   0.12146
 Alpha virt. eigenvalues --    0.12437   0.12812   0.13331   0.13379   0.13589

 Mulliken charges:
               1
     1  O   -0.572846
     2  O   -0.580712
     3  C   -0.021078
     4  C   -0.057690
     5  C   -0.151801
     6  C   -0.188846
     7  C    0.165928
     8  C    0.176286
     9  C    0.057814
    10  C    0.066067
    11  C   -0.201170
    12  C   -0.220134
    13  C    0.031128
    14  C    0.053225
    15  C   -0.322612
    16  C   -0.287770
    17  C   -0.290024
    18  C   -0.317890
    19  C   -0.121340
    20  C   -0.158144
    21  C   -0.341901
    22  C   -0.343367
    23  C   -0.065526
    24  C   -0.079603
    25  C    0.015284
    26  C    0.087662
    27  C   -0.373683
    28  C   -0.344941
    29  C   -0.102162
    30  C   -0.112011
    31  C   -0.059553
    32  C   -0.055541
    33  C   -0.108702
    34  C   -0.119933
    35  C    0.113550
    36  C    0.045991
    37  C   -0.383469
    38  C   -0.360791
    39  C   -0.149951
    40  C   -0.113221
    41  C   -0.086932
    42  C   -0.054810
    43  H    0.080757
    44  H    0.074847
    45  H    0.077638
    46  H    0.111459
    47  H    0.075152
    48  H    0.087488
    49  H    0.114867
    50  H    0.099947
    51  H    0.085178
    52  H    0.121763
    53  H    0.098003
    54  H    0.111209
    55  H    0.091409
    56  H    0.089342
    57  H    0.096882
    58  H    0.108235
    59  H    0.096270
    60  H    0.117504
    61  H    0.102252
    62  H    0.100219
    63  H    0.096700
    64  H    0.107914
    65  H    0.085894
    66  H    0.072629
    67  H    0.125850
    68  H    0.125673
    69  H    0.077679
    70  H    0.116665
    71  H    0.120091
    72  H    0.091334
    73  H    0.299562
    74  H    0.308131
    75  H    0.084310
    76  H    0.083071
    77  H    0.125166
    78  H    0.110899
    79  H    0.137168
    80  H    0.088567
    81  H    0.135405
    82  H    0.118213
    83  H    0.082768
    84  H    0.090276
    85  H    0.070171
    86  H    0.073143
    87  H    0.081338
    88  H    0.063761
    89  H    0.127943
    90  H    0.100406
    91  H    0.119567
    92  H    0.137669
    93  H    0.124044
    94  H    0.107043
    95  H    0.057060
    96  H    0.088397
    97  H    0.076379
    98  H    0.083913
 Sum of Mulliken charges =  -0.00000

 Dipole moment (field-independent basis, Debye):
    X=             -0.3874    Y=             -1.9156    Z=              1.3595  Tot=              2.3808
 Quadrupole moment (field-independent basis, Debye-Ang):
   XX=           -298.5655   YY=           -238.8251   ZZ=           -258.3725
   XY=             14.0592   XZ=             -9.7178   YZ=              1.4507

 Normal termination of Gaussian 16 at Wed Jul  3 17:09:54 2019.
