 Gaussian 16, Revision A.03,
 Gaussian 16:  ES64L-G16RevA.03 25-Dec-2016

 -------------------------------------
 # td=(NStates=1) CAM-B3LYP/6-31G(d,p)
 -------------------------------------

 --
 TD
 --
 Symbolic Z-matrix:
 Charge =  0 Multiplicity = 1

                         Standard orientation:
 ---------------------------------------------------------------------
 Center     Atomic      Atomic             Coordinates (Angstroms)
 Number     Number       Type             X           Y           Z
 ---------------------------------------------------------------------
      1          8           0       14.550915   -2.332741   -0.497722
      2          8           0      -14.989462    1.746150    0.551544
      3          6           0       11.368419   -1.224419    1.168680
      4          6           0      -12.307426   -0.969820    0.868715
      5          6           0       12.844029   -1.549825    1.019640
      6          6           0      -13.638718   -0.306577    0.745851
      7          6           0       13.158314   -2.087446   -0.284880
      8          6           0      -13.618708    1.174376    0.597533
      9          6           0       10.859877   -0.414827    0.013335
     10          6           0      -11.288190   -0.411871   -0.167506
     11          6           0       12.770618   -1.076155   -1.354946
     12          6           0      -12.790352    1.695909   -0.497060
     13          6           0       11.472428   -0.369927   -1.220784
     14          6           0      -11.551706    0.767956   -0.859027
     15          6           0       11.051766   -0.299015    2.527289
     16          6           0       10.453259   -2.409691    1.293729
     17          6           0      -11.631416   -0.787577    2.250371
     18          6           0      -12.425063   -2.539383    0.560882
     19          6           0        9.591911    0.331888    0.337200
     20          6           0      -10.033844   -1.112722   -0.423264
     21          6           0       11.022777    0.388010   -2.448872
     22          6           0      -10.796848    1.385115   -1.982416
     23          6           0        9.407027    1.691806   -0.072967
     24          6           0       -8.754682   -0.610959   -0.282742
     25          6           0        8.131791    2.315946    0.254592
     26          6           0       -7.459367   -1.283913   -0.387542
     27          6           0        8.227327    3.798482    0.590939
     28          6           0       -7.475592   -2.706194   -0.854021
     29          6           0        6.940370    1.715249   -0.061995
     30          6           0       -6.366550   -0.555769   -0.302905
     31          6           0        5.619648    2.165670    0.166354
     32          6           0       -4.956271   -0.956976   -0.434837
     33          6           0        4.503365    1.432702   -0.012768
     34          6           0       -3.897932   -0.245815   -0.247484
     35          6           0        3.116449    1.807537    0.088060
     36          6           0       -2.481728   -0.634092   -0.412452
     37          6           0        2.700673    3.204271    0.519212
     38          6           0       -2.217201   -2.095487   -0.839922
     39          6           0        2.161568    0.870286   -0.125374
     40          6           0       -1.510737    0.287000   -0.177068
     41          6           0        0.819754    1.027009   -0.076142
     42          6           0       -0.058037    0.058166   -0.237274
     43          1           0       13.562534   -0.713094    0.917209
     44          1           0       13.362233   -2.206670    1.787655
     45          1           0      -14.241429   -0.411880    1.610604
     46          1           0      -14.146930   -0.570196   -0.178310
     47          1           0       12.784019   -3.085812   -0.552212
     48          1           0      -13.243634    1.650264    1.601731
     49          1           0       13.539149   -0.336212   -1.448998
     50          1           0       12.861633   -1.657166   -2.304414
     51          1           0      -13.464682    1.705739   -1.485950
     52          1           0      -12.544379    2.742794   -0.348013
     53          1           0       11.492080   -0.821024    3.346009
     54          1           0       10.008657   -0.156110    2.752065
     55          1           0       11.704696    0.732712    2.480640
     56          1           0       10.381091   -2.865966    0.276369
     57          1           0       11.025483   -2.902322    2.121211
     58          1           0        9.379021   -2.180898    1.789284
     59          1           0      -11.392507    0.340709    2.308419
     60          1           0      -10.712296   -1.431624    2.268261
     61          1           0      -12.341754   -1.172372    3.098377
     62          1           0      -13.118704   -3.007991    1.351771
     63          1           0      -11.439270   -2.985082    0.777182
     64          1           0      -12.914857   -2.716386   -0.324174
     65          1           0        8.811726   -0.355080    0.723839
     66          1           0       -9.938965   -2.122611   -0.778180
     67          1           0       10.000455    0.581156   -2.317209
     68          1           0       11.520582    1.399897   -2.593451
     69          1           0       11.378668   -0.214915   -3.355559
     70          1           0      -11.522519    1.844500   -2.760616
     71          1           0      -10.029107    0.777099   -2.341201
     72          1           0      -10.141580    2.286114   -1.632518
     73          1           0       14.865699   -3.058392    0.133948
     74          1           0      -15.462044    1.427040    1.413698
     75          1           0       10.338644    2.159183   -0.588491
     76          1           0       -8.755577    0.594443    0.055563
     77          1           0        8.839176    4.406786   -0.085526
     78          1           0        7.229370    4.372347    0.839485
     79          1           0        8.504047    3.909266    1.627435
     80          1           0       -8.263505   -3.306714   -0.166088
     81          1           0       -8.068072   -2.617214   -1.774363
     82          1           0       -6.505949   -3.195072   -0.993544
     83          1           0        6.998800    0.720786   -0.635510
     84          1           0       -6.885811    0.478152   -0.107861
     85          1           0        5.595354    3.263443    0.455869
     86          1           0       -4.840453   -2.024013   -0.951669
     87          1           0        4.759512    0.445802   -0.307668
     88          1           0       -4.226376    0.706945    0.071242
     89          1           0        3.395103    3.575267    1.397200
     90          1           0        1.551106    3.253951    0.569745
     91          1           0        2.935707    3.872060   -0.220742
     92          1           0       -2.587888   -2.968108   -0.188969
     93          1           0       -2.720220   -2.240867   -1.809777
     94          1           0       -1.180941   -2.248893   -0.846142
     95          1           0        2.603290   -0.090822   -0.434461
     96          1           0       -1.658037    1.142633    0.057330
     97          1           0        0.506663    2.044942    0.116019
     98          1           0        0.155371   -0.891299   -0.275900
 ---------------------------------------------------------------------

 SCF Done:  E(RCAM-B3LYP) =  -1707.02292209     A.U. after   14 cycles

 Excitation energies and oscillator strengths:

 Excited State   1:      Singlet-A      2.9181 eV  424.87 nm  f=3.5630  <S**2>=0.000
     155 ->158        -0.17080
     156 ->157         0.67779
 This state for optimization and/or second-order correction.
 Total Energy, E(TD-HF/TD-DFT) =  -1706.91568256
 Copying the excited state density for this state as the 1-particle RhoCI density.

 The electronic state is 1-A.
 Alpha  occ. eigenvalues --  -19.21081 -19.20954 -10.30260 -10.29659 -10.28118
 Alpha  occ. eigenvalues --  -10.28003 -10.27932 -10.27851 -10.27799 -10.27658
 Alpha  occ. eigenvalues --  -10.27491 -10.27203 -10.27150 -10.26878 -10.26871
 Alpha  occ. eigenvalues --  -10.26750 -10.26538 -10.26413 -10.26336 -10.26315
 Alpha  occ. eigenvalues --  -10.26249 -10.26244 -10.26223 -10.26213 -10.26183
 Alpha  occ. eigenvalues --  -10.26161 -10.26086 -10.26079 -10.25770 -10.25659
 Alpha  occ. eigenvalues --  -10.25514 -10.25461 -10.25460 -10.25401 -10.25392
 Alpha  occ. eigenvalues --  -10.25360 -10.25090 -10.24890 -10.24824 -10.24511
 Alpha  occ. eigenvalues --  -10.24387 -10.24336  -1.08638  -1.06194  -0.93925
 Alpha  occ. eigenvalues --   -0.93252  -0.92990  -0.91959  -0.90973  -0.90100
 Alpha  occ. eigenvalues --   -0.87898  -0.86719  -0.86386  -0.85690  -0.85013
 Alpha  occ. eigenvalues --   -0.84073  -0.82514  -0.80242  -0.79740  -0.78700
 Alpha  occ. eigenvalues --   -0.76993  -0.76523  -0.76357  -0.76211  -0.75624
 Alpha  occ. eigenvalues --   -0.75493  -0.74952  -0.74932  -0.74300  -0.70799
 Alpha  occ. eigenvalues --   -0.68875  -0.67446  -0.65259  -0.64800  -0.64016
 Alpha  occ. eigenvalues --   -0.63750  -0.63345  -0.62552  -0.60310  -0.59892
 Alpha  occ. eigenvalues --   -0.58978  -0.58491  -0.58068  -0.57275  -0.56984
 Alpha  occ. eigenvalues --   -0.56013  -0.55166  -0.54394  -0.54237  -0.53720
 Alpha  occ. eigenvalues --   -0.53426  -0.53022  -0.52497  -0.52298  -0.51065
 Alpha  occ. eigenvalues --   -0.50430  -0.50331  -0.50215  -0.49220  -0.48961
 Alpha  occ. eigenvalues --   -0.48530  -0.48418  -0.48352  -0.48107  -0.47705
 Alpha  occ. eigenvalues --   -0.47564  -0.47362  -0.47259  -0.46836  -0.46626
 Alpha  occ. eigenvalues --   -0.46157  -0.45975  -0.45897  -0.45387  -0.45346
 Alpha  occ. eigenvalues --   -0.45140  -0.44587  -0.44319  -0.43938  -0.43548
 Alpha  occ. eigenvalues --   -0.43170  -0.43157  -0.43060  -0.42575  -0.41843
 Alpha  occ. eigenvalues --   -0.41514  -0.41374  -0.41215  -0.41062  -0.40781
 Alpha  occ. eigenvalues --   -0.40671  -0.40045  -0.39853  -0.39629  -0.39554
 Alpha  occ. eigenvalues --   -0.39087  -0.38791  -0.38607  -0.37925  -0.37765
 Alpha  occ. eigenvalues --   -0.37712  -0.37313  -0.36863  -0.36527  -0.36158
 Alpha  occ. eigenvalues --   -0.35559  -0.34976  -0.33256  -0.32237  -0.31672
 Alpha  occ. eigenvalues --   -0.31276  -0.29306  -0.27934  -0.26363  -0.24620
 Alpha  occ. eigenvalues --   -0.21343
 Alpha virt. eigenvalues --   -0.03964  -0.00129   0.02712   0.05748   0.07482
 Alpha virt. eigenvalues --    0.09180   0.10078   0.10835   0.11488   0.11907
 Alpha virt. eigenvalues --    0.12273   0.12416   0.12481   0.12962   0.13824

 Mulliken charges:
               1
     1  O   -0.577870
     2  O   -0.579414
     3  C   -0.023614
     4  C   -0.018700
     5  C   -0.182470
     6  C   -0.161146
     7  C    0.157089
     8  C    0.154728
     9  C    0.038821
    10  C    0.050228
    11  C   -0.229510
    12  C   -0.218757
    13  C    0.062860
    14  C    0.060816
    15  C   -0.305770
    16  C   -0.284322
    17  C   -0.288369
    18  C   -0.303678
    19  C   -0.113157
    20  C   -0.166322
    21  C   -0.359999
    22  C   -0.352347
    23  C   -0.138626
    24  C   -0.106309
    25  C    0.070982
    26  C    0.142216
    27  C   -0.376869
    28  C   -0.379213
    29  C   -0.108652
    30  C   -0.121437
    31  C   -0.070526
    32  C   -0.104183
    33  C   -0.120525
    34  C   -0.076030
    35  C    0.116174
    36  C    0.073529
    37  C   -0.373147
    38  C   -0.368151
    39  C   -0.109421
    40  C   -0.051679
    41  C   -0.072235
    42  C   -0.070076
    43  H    0.115013
    44  H    0.067796
    45  H    0.079518
    46  H    0.108061
    47  H    0.076440
    48  H    0.058293
    49  H    0.124794
    50  H    0.098580
    51  H    0.098112
    52  H    0.122017
    53  H    0.097166
    54  H    0.117031
    55  H    0.086634
    56  H    0.113619
    57  H    0.101045
    58  H    0.093242
    59  H    0.103230
    60  H    0.110524
    61  H    0.084131
    62  H    0.083404
    63  H    0.105548
    64  H    0.117637
    65  H    0.103223
    66  H    0.083481
    67  H    0.132174
    68  H    0.106486
    69  H    0.100482
    70  H    0.105584
    71  H    0.122655
    72  H    0.099443
    73  H    0.302910
    74  H    0.303982
    75  H    0.109332
    76  H    0.069052
    77  H    0.127433
    78  H    0.089087
    79  H    0.127581
    80  H    0.096626
    81  H    0.132107
    82  H    0.116353
    83  H    0.080131
    84  H    0.071579
    85  H    0.069279
    86  H    0.063295
    87  H    0.076058
    88  H    0.082643
    89  H    0.110684
    90  H    0.101676
    91  H    0.137862
    92  H    0.113847
    93  H    0.126314
    94  H    0.114302
    95  H    0.075416
    96  H    0.033557
    97  H    0.076205
    98  H    0.062406
 Sum of Mulliken charges =  -0.00000

 Dipole moment (field-independent basis, Debye):
    X=              1.6707    Y=             -1.4490    Z=              1.5539  Tot=              2.7029
 Quadrupole moment (field-independent basis, Debye-Ang):
   XX=           -283.8166   YY=           -245.1405   ZZ=           -261.4451
   XY=             10.0270   XZ=              0.5554   YZ=             -0.0494

 Normal termination of Gaussian 16 at Mon Jul  1 16:20:39 2019.
