 Gaussian 16, Revision A.03,
 Gaussian 16:  ES64L-G16RevA.03 25-Dec-2016

 -------------------------------------
 # td=(NStates=1) CAM-B3LYP/6-31G(d,p)
 -------------------------------------

 --
 TD
 --
 Symbolic Z-matrix:
 Charge =  0 Multiplicity = 1

                         Standard orientation:
 ---------------------------------------------------------------------
 Center     Atomic      Atomic             Coordinates (Angstroms)
 Number     Number       Type             X           Y           Z
 ---------------------------------------------------------------------
      1          8           0       14.602041   -2.278821   -0.396873
      2          8           0      -14.802069    1.945615    0.701886
      3          6           0       11.426543   -1.055703    1.306779
      4          6           0      -12.268540   -0.923783    0.877609
      5          6           0       12.850571   -1.518486    1.183959
      6          6           0      -13.636242   -0.253392    0.876138
      7          6           0       13.233802   -2.014724   -0.287304
      8          6           0      -13.568762    1.292256    0.717847
      9          6           0       10.896555   -0.231045    0.036401
     10          6           0      -11.345508   -0.350051   -0.191853
     11          6           0       12.980454   -0.918424   -1.333005
     12          6           0      -12.695169    1.697713   -0.492516
     13          6           0       11.673582   -0.228467   -1.138356
     14          6           0      -11.577329    0.879216   -0.831379
     15          6           0       11.209141   -0.221016    2.531396
     16          6           0       10.443179   -2.369703    1.399334
     17          6           0      -11.762744   -0.744760    2.299453
     18          6           0      -12.509437   -2.453642    0.532126
     19          6           0        9.661711    0.380359    0.135712
     20          6           0      -10.068996   -1.082948   -0.456877
     21          6           0       11.198087    0.289947   -2.416877
     22          6           0      -10.735359    1.383280   -1.967554
     23          6           0        9.423452    1.667881   -0.062672
     24          6           0       -8.847979   -0.537877   -0.409600
     25          6           0        8.028627    2.290786   -0.033796
     26          6           0       -7.596940   -1.308013   -0.638530
     27          6           0        8.250372    3.702931    0.421515
     28          6           0       -7.611090   -2.774649   -1.038389
     29          6           0        6.884647    1.683309   -0.257760
     30          6           0       -6.361155   -0.645112   -0.464050
     31          6           0        5.564448    2.160206   -0.033630
     32          6           0       -5.077969   -1.179439   -0.436419
     33          6           0        4.499634    1.290998   -0.010581
     34          6           0       -4.037270   -0.312488   -0.259700
     35          6           0        3.109342    1.720924    0.198955
     36          6           0       -2.657963   -0.702602   -0.406843
     37          6           0        2.755450    3.037622    0.627185
     38          6           0       -2.327936   -2.145964   -0.782632
     39          6           0        2.159861    0.847149   -0.106886
     40          6           0       -1.638644    0.164446   -0.107899
     41          6           0        0.747406    1.001556   -0.027387
     42          6           0       -0.191076   -0.062777   -0.199290
     43          1           0       13.640786   -0.874803    1.370308
     44          1           0       13.060839   -2.337131    1.841213
     45          1           0      -14.075823   -0.573412    1.896974
     46          1           0      -14.058698   -0.576408    0.036972
     47          1           0       12.660432   -2.935006   -0.689839
     48          1           0      -12.930154    1.598249    1.516617
     49          1           0       13.988296   -0.197545   -1.170506
     50          1           0       13.118883   -1.496594   -2.357104
     51          1           0      -13.211443    1.812067   -1.468964
     52          1           0      -12.449290    2.611934   -0.329452
     53          1           0       11.686176   -0.846312    3.431182
     54          1           0       10.233417    0.004011    2.910333
     55          1           0       11.779689    0.806861    2.344378
     56          1           0       10.223322   -2.923665    0.378039
     57          1           0       11.005952   -3.068834    2.160688
     58          1           0        9.490399   -2.165163    1.938512
     59          1           0      -11.587421    0.434337    2.520116
     60          1           0      -10.701940   -1.141358    2.560134
     61          1           0      -12.444891   -1.098698    2.902537
     62          1           0      -13.215864   -2.868656    1.125940
     63          1           0      -11.805793   -3.034682    0.790552
     64          1           0      -12.940417   -2.505300   -0.398474
     65          1           0        8.941994   -0.265475    0.557086
     66          1           0      -10.117689   -1.956649   -0.725909
     67          1           0       10.229504    0.742616   -2.356224
     68          1           0       11.995779    0.854770   -2.980118
     69          1           0       11.072278   -0.550271   -3.127776
     70          1           0      -11.686863    1.520754   -2.697496
     71          1           0      -10.063672    0.832486   -2.516621
     72          1           0      -10.323552    2.231139   -1.773183
     73          1           0       14.973512   -2.833308    0.346854
     74          1           0      -15.249040    1.666850    1.636388
     75          1           0       10.351743    2.230635   -0.265268
     76          1           0       -8.600912    0.440143   -0.099963
     77          1           0        9.018179    4.336525   -0.266504
     78          1           0        7.238759    4.087058    0.270704
     79          1           0        8.556138    3.735878    1.459877
     80          1           0       -8.285965   -3.481485   -0.443099
     81          1           0       -7.848590   -2.894859   -2.121557
     82          1           0       -6.707297   -3.374586   -0.915455
     83          1           0        7.068147    0.743034   -0.812375
     84          1           0       -6.684724    0.345268   -0.106575
     85          1           0        5.361677    3.251893    0.406421
     86          1           0       -5.050678   -2.362468   -0.334066
     87          1           0        4.628180    0.238464   -0.473277
     88          1           0       -4.213505    1.026351   -0.048830
     89          1           0        3.320872    3.140996    1.575106
     90          1           0        1.638961    3.199191    0.807608
     91          1           0        2.875178    3.803129   -0.120723
     92          1           0       -2.601976   -2.659328    0.016312
     93          1           0       -2.814511   -2.339068   -1.791656
     94          1           0       -1.216725   -2.483687   -1.029715
     95          1           0        2.672042   -0.150650   -0.325548
     96          1           0       -1.760881    1.257307    0.215974
     97          1           0        0.225983    1.988417    0.394873
     98          1           0        0.306887   -1.012398   -0.621266
 ---------------------------------------------------------------------

 SCF Done:  E(RCAM-B3LYP) =  -1706.92111078     A.U. after   14 cycles

 Excitation energies and oscillator strengths:

 Excited State   1:      Singlet-A      2.6457 eV  468.63 nm  f=3.6101  <S**2>=0.000
     155 ->158         0.16027
     156 ->157         0.68381
 This state for optimization and/or second-order correction.
 Total Energy, E(TD-HF/TD-DFT) =  -1706.82388484
 Copying the excited state density for this state as the 1-particle RhoCI density.

 The electronic state is 1-A.
 Alpha  occ. eigenvalues --  -19.22505 -19.21334 -10.30783 -10.29902 -10.28835
 Alpha  occ. eigenvalues --  -10.28411 -10.27862 -10.27550 -10.27540 -10.27505
 Alpha  occ. eigenvalues --  -10.27355 -10.27261 -10.27173 -10.26980 -10.26945
 Alpha  occ. eigenvalues --  -10.26879 -10.26693 -10.26639 -10.26523 -10.26298
 Alpha  occ. eigenvalues --  -10.26244 -10.26028 -10.25912 -10.25823 -10.25792
 Alpha  occ. eigenvalues --  -10.25706 -10.25616 -10.25588 -10.25541 -10.25538
 Alpha  occ. eigenvalues --  -10.25424 -10.25342 -10.25236 -10.24804 -10.24737
 Alpha  occ. eigenvalues --  -10.24352 -10.24068 -10.23968 -10.23760 -10.23666
 Alpha  occ. eigenvalues --  -10.23453 -10.21719  -1.09351  -1.08914  -0.93471
 Alpha  occ. eigenvalues --   -0.93140  -0.92404  -0.91313  -0.90429  -0.89488
 Alpha  occ. eigenvalues --   -0.88352  -0.87165  -0.86477  -0.85866  -0.84451
 Alpha  occ. eigenvalues --   -0.82760  -0.81781  -0.80204  -0.79897  -0.78237
 Alpha  occ. eigenvalues --   -0.78024  -0.76465  -0.76402  -0.76157  -0.75754
 Alpha  occ. eigenvalues --   -0.75415  -0.74871  -0.74340  -0.73693  -0.70528
 Alpha  occ. eigenvalues --   -0.68503  -0.67635  -0.66253  -0.64775  -0.64041
 Alpha  occ. eigenvalues --   -0.63263  -0.62820  -0.60696  -0.59513  -0.59125
 Alpha  occ. eigenvalues --   -0.58826  -0.58272  -0.57584  -0.57140  -0.55805
 Alpha  occ. eigenvalues --   -0.55513  -0.55153  -0.55037  -0.54034  -0.53952
 Alpha  occ. eigenvalues --   -0.53196  -0.52784  -0.52403  -0.51992  -0.51697
 Alpha  occ. eigenvalues --   -0.51102  -0.50840  -0.50667  -0.50287  -0.49737
 Alpha  occ. eigenvalues --   -0.49297  -0.48625  -0.48377  -0.48355  -0.48280
 Alpha  occ. eigenvalues --   -0.48000  -0.47451  -0.47261  -0.47043  -0.46331
 Alpha  occ. eigenvalues --   -0.45917  -0.45747  -0.45055  -0.44742  -0.44543
 Alpha  occ. eigenvalues --   -0.44314  -0.43873  -0.43829  -0.43633  -0.43260
 Alpha  occ. eigenvalues --   -0.42936  -0.42570  -0.42434  -0.42156  -0.41949
 Alpha  occ. eigenvalues --   -0.41597  -0.41243  -0.41155  -0.40591  -0.40173
 Alpha  occ. eigenvalues --   -0.39944  -0.39677  -0.39618  -0.39212  -0.39142
 Alpha  occ. eigenvalues --   -0.39017  -0.38562  -0.38476  -0.38193  -0.38016
 Alpha  occ. eigenvalues --   -0.37580  -0.37210  -0.36978  -0.36499  -0.36300
 Alpha  occ. eigenvalues --   -0.35385  -0.34905  -0.33191  -0.32094  -0.31824
 Alpha  occ. eigenvalues --   -0.31398  -0.29013  -0.27193  -0.25780  -0.23807
 Alpha  occ. eigenvalues --   -0.20372
 Alpha virt. eigenvalues --   -0.04379  -0.00091   0.02941   0.05769   0.07748
 Alpha virt. eigenvalues --    0.09184   0.10291   0.10341   0.11255   0.11559
 Alpha virt. eigenvalues --    0.11986   0.12504   0.12948   0.13115   0.13625

 Mulliken charges:
               1
     1  O   -0.562956
     2  O   -0.556706
     3  C    0.008963
     4  C   -0.036485
     5  C   -0.196727
     6  C   -0.178084
     7  C    0.169339
     8  C    0.175482
     9  C    0.037259
    10  C    0.025987
    11  C   -0.220619
    12  C   -0.223485
    13  C    0.081239
    14  C    0.042028
    15  C   -0.291398
    16  C   -0.313780
    17  C   -0.286853
    18  C   -0.303412
    19  C   -0.108865
    20  C   -0.094516
    21  C   -0.369632
    22  C   -0.327060
    23  C   -0.109483
    24  C   -0.077157
    25  C    0.062755
    26  C    0.082631
    27  C   -0.352911
    28  C   -0.384943
    29  C   -0.102957
    30  C   -0.108609
    31  C   -0.106191
    32  C   -0.109352
    33  C   -0.123830
    34  C   -0.088841
    35  C    0.150411
    36  C    0.083197
    37  C   -0.382195
    38  C   -0.356372
    39  C   -0.129211
    40  C   -0.127318
    41  C   -0.109847
    42  C   -0.080955
    43  H    0.111728
    44  H    0.084945
    45  H    0.066010
    46  H    0.101723
    47  H    0.067137
    48  H    0.073424
    49  H    0.097956
    50  H    0.101812
    51  H    0.102104
    52  H    0.123687
    53  H    0.072672
    54  H    0.116906
    55  H    0.093769
    56  H    0.104911
    57  H    0.083768
    58  H    0.107189
    59  H    0.079122
    60  H    0.093199
    61  H    0.109159
    62  H    0.095458
    63  H    0.106228
    64  H    0.111994
    65  H    0.088380
    66  H    0.063939
    67  H    0.114775
    68  H    0.107458
    69  H    0.107547
    70  H    0.073861
    71  H    0.127901
    72  H    0.124158
    73  H    0.305960
    74  H    0.311218
    75  H    0.092972
    76  H    0.076518
    77  H    0.101596
    78  H    0.098709
    79  H    0.129696
    80  H    0.104685
    81  H    0.123337
    82  H    0.104987
    83  H    0.088663
    84  H    0.072063
    85  H    0.093443
    86  H    0.109883
    87  H    0.085856
    88  H    0.070087
    89  H    0.119070
    90  H    0.101458
    91  H    0.129798
    92  H    0.140418
    93  H    0.118352
    94  H    0.097702
    95  H    0.072705
    96  H    0.075736
    97  H    0.080485
    98  H    0.083136
 Sum of Mulliken charges =  -0.00000

 Dipole moment (field-independent basis, Debye):
    X=              0.0377    Y=             -1.8703    Z=              2.4935  Tot=              3.1172
 Quadrupole moment (field-independent basis, Debye-Ang):
   XX=           -265.6842   YY=           -245.8490   ZZ=           -258.8334
   XY=              7.2467   XZ=             -1.0906   YZ=              1.0464

 Normal termination of Gaussian 16 at Wed Jul  3 21:37:12 2019.
