 Gaussian 16, Revision A.03,
 Gaussian 16:  ES64L-G16RevA.03 25-Dec-2016

 -------------------------------------
 # td=(NStates=1) CAM-B3LYP/6-31G(d,p)
 -------------------------------------

 --
 TD
 --
 Symbolic Z-matrix:
 Charge =  0 Multiplicity = 1

                         Standard orientation:
 ---------------------------------------------------------------------
 Center     Atomic      Atomic             Coordinates (Angstroms)
 Number     Number       Type             X           Y           Z
 ---------------------------------------------------------------------
      1          8           0       14.666984   -2.143464   -0.486811
      2          8           0      -14.754020    1.995033    0.609553
      3          6           0       11.542125   -1.113134    1.212142
      4          6           0      -12.331122   -0.904557    0.738940
      5          6           0       13.056401   -1.398014    0.982731
      6          6           0      -13.667261   -0.194683    0.666790
      7          6           0       13.329019   -1.920607   -0.409748
      8          6           0      -13.481352    1.244367    0.678454
      9          6           0       10.940552   -0.302899   -0.035140
     10          6           0      -11.347546   -0.238104   -0.152189
     11          6           0       12.986673   -0.845527   -1.382628
     12          6           0      -12.623343    1.853160   -0.393758
     13          6           0       11.593180   -0.145781   -1.156193
     14          6           0      -11.483820    0.986133   -0.796728
     15          6           0       11.404791   -0.188352    2.373876
     16          6           0       10.739264   -2.388547    1.534654
     17          6           0      -11.788372   -0.831901    2.150978
     18          6           0      -12.452175   -2.437422    0.394578
     19          6           0        9.566880    0.270337    0.174816
     20          6           0      -10.143254   -1.038332   -0.346743
     21          6           0       11.112204    0.553257   -2.459724
     22          6           0      -10.597770    1.577464   -1.898851
     23          6           0        9.283191    1.591924   -0.137609
     24          6           0       -8.848810   -0.515795   -0.351884
     25          6           0        7.977500    2.261938    0.121069
     26          6           0       -7.654073   -1.305665   -0.469652
     27          6           0        7.989279    3.750473    0.218044
     28          6           0       -7.741111   -2.727296   -1.074132
     29          6           0        6.837799    1.513990    0.058137
     30          6           0       -6.470853   -0.603100   -0.237453
     31          6           0        5.519470    2.060042    0.240408
     32          6           0       -5.051722   -1.127290   -0.375859
     33          6           0        4.496038    1.176818    0.101693
     34          6           0       -3.957879   -0.387938   -0.124497
     35          6           0        3.057600    1.635160    0.152496
     36          6           0       -2.592162   -0.812257   -0.350043
     37          6           0        2.752017    3.023735    0.694759
     38          6           0       -2.511207   -2.253142   -0.879798
     39          6           0        2.175023    0.668647   -0.000676
     40          6           0       -1.607486    0.028639   -0.041545
     41          6           0        0.682376    0.755925    0.172408
     42          6           0       -0.241148   -0.233539   -0.248240
     43          1           0       13.526646   -0.253194    1.063292
     44          1           0       13.346080   -2.119848    1.736586
     45          1           0      -14.355186   -0.814571    1.364757
     46          1           0      -13.905929   -0.575414   -0.433436
     47          1           0       12.600844   -2.649859   -0.595263
     48          1           0      -13.008236    1.755450    1.765512
     49          1           0       13.712139   -0.044576   -1.117780
     50          1           0       12.922998   -1.336335   -2.456928
     51          1           0      -13.440400    1.963915   -1.250638
     52          1           0      -12.376813    2.940213   -0.249439
     53          1           0       11.836658   -0.486471    3.509111
     54          1           0       10.251628    0.109344    2.378310
     55          1           0       11.831606    0.728304    2.170692
     56          1           0       10.807729   -3.218013    0.807723
     57          1           0       11.088887   -2.886497    2.541604
     58          1           0        9.573845   -2.206745    1.457532
     59          1           0      -12.039378    0.122973    2.638554
     60          1           0      -10.507968   -0.856280    2.093178
     61          1           0      -12.127138   -1.878276    2.788571
     62          1           0      -13.342560   -3.062191    0.847233
     63          1           0      -11.489385   -2.967013    0.799222
     64          1           0      -12.585579   -2.717679   -0.570642
     65          1           0        8.771727   -0.196632    0.876836
     66          1           0      -10.126737   -1.988483   -0.809200
     67          1           0        9.998183    0.793460   -2.367873
     68          1           0       11.572814    1.481213   -2.681949
     69          1           0       11.351953   -0.098092   -3.308323
     70          1           0      -11.059558    1.814779   -2.552370
     71          1           0       -9.900411    0.947386   -2.272492
     72          1           0      -10.008850    2.510718   -1.632076
     73          1           0       14.788257   -2.931354    0.127362
     74          1           0      -15.298817    1.535212    1.373069
     75          1           0       10.002541    2.315123   -0.720827
     76          1           0       -8.626424    0.660825   -0.302646
     77          1           0        8.634300    4.172020   -0.676114
     78          1           0        7.036777    4.042551    0.109089
     79          1           0        8.688987    4.097286    1.079984
     80          1           0       -8.327794   -3.400029   -0.612297
     81          1           0       -8.109045   -2.615972   -2.056027
     82          1           0       -6.635784   -3.115273   -1.078853
     83          1           0        7.066736    0.508781   -0.107090
     84          1           0       -6.526982    0.332317   -0.075957
     85          1           0        5.457080    3.025271    0.427749
     86          1           0       -4.923259   -2.176500   -0.754582
     87          1           0        4.487617    0.073739   -0.239318
     88          1           0       -4.138580    0.611737    0.390839
     89          1           0        3.376733    3.034384    1.563255
     90          1           0        1.610242    3.042603    0.910042
     91          1           0        2.947117    3.827476    0.010780
     92          1           0       -3.223534   -3.051197   -0.266512
     93          1           0       -2.541951   -2.379693   -1.932961
     94          1           0       -1.539953   -2.639752   -0.691450
     95          1           0        2.562992   -0.270660   -0.380048
     96          1           0       -1.868340    1.072096    0.410377
     97          1           0        0.115043    1.458485    0.580383
     98          1           0        0.069230   -1.082361   -0.673787
 ---------------------------------------------------------------------

 SCF Done:  E(RCAM-B3LYP) =  -1706.89079234     A.U. after   14 cycles

 Excitation energies and oscillator strengths:

 Excited State   1:      Singlet-A      2.9003 eV  427.49 nm  f=3.6793  <S**2>=0.000
     155 ->158        -0.20290
     156 ->157         0.66887
 This state for optimization and/or second-order correction.
 Total Energy, E(TD-HF/TD-DFT) =  -1706.78420927
 Copying the excited state density for this state as the 1-particle RhoCI density.

 The electronic state is 1-A.
 Alpha  occ. eigenvalues --  -19.22096 -19.21055 -10.31984 -10.28833 -10.27530
 Alpha  occ. eigenvalues --  -10.27452 -10.27386 -10.27371 -10.27310 -10.27256
 Alpha  occ. eigenvalues --  -10.27119 -10.27110 -10.26834 -10.26800 -10.26696
 Alpha  occ. eigenvalues --  -10.26655 -10.26534 -10.26532 -10.26530 -10.26508
 Alpha  occ. eigenvalues --  -10.26412 -10.26394 -10.26302 -10.26246 -10.26208
 Alpha  occ. eigenvalues --  -10.26169 -10.26074 -10.26045 -10.26020 -10.25987
 Alpha  occ. eigenvalues --  -10.25786 -10.25725 -10.25696 -10.25670 -10.25568
 Alpha  occ. eigenvalues --  -10.25461 -10.25457 -10.25240 -10.25130 -10.25086
 Alpha  occ. eigenvalues --  -10.24886 -10.22209  -1.11787  -1.06535  -0.94383
 Alpha  occ. eigenvalues --   -0.93065  -0.92193  -0.91673  -0.90282  -0.89826
 Alpha  occ. eigenvalues --   -0.87330  -0.86915  -0.86361  -0.85215  -0.84498
 Alpha  occ. eigenvalues --   -0.83292  -0.81854  -0.80450  -0.79840  -0.78287
 Alpha  occ. eigenvalues --   -0.77679  -0.76862  -0.76470  -0.76076  -0.75594
 Alpha  occ. eigenvalues --   -0.75154  -0.74753  -0.74268  -0.73906  -0.70461
 Alpha  occ. eigenvalues --   -0.68573  -0.67175  -0.65265  -0.64491  -0.64239
 Alpha  occ. eigenvalues --   -0.63991  -0.62573  -0.62373  -0.60987  -0.60415
 Alpha  occ. eigenvalues --   -0.60012  -0.58389  -0.57522  -0.56798  -0.55929
 Alpha  occ. eigenvalues --   -0.55266  -0.54968  -0.54449  -0.54309  -0.53840
 Alpha  occ. eigenvalues --   -0.53160  -0.52846  -0.52295  -0.51814  -0.51136
 Alpha  occ. eigenvalues --   -0.50352  -0.50073  -0.49979  -0.49611  -0.49503
 Alpha  occ. eigenvalues --   -0.49220  -0.48668  -0.48617  -0.48200  -0.47786
 Alpha  occ. eigenvalues --   -0.47517  -0.47222  -0.47087  -0.46656  -0.46340
 Alpha  occ. eigenvalues --   -0.45914  -0.45594  -0.45079  -0.44922  -0.44564
 Alpha  occ. eigenvalues --   -0.44226  -0.44139  -0.43880  -0.43834  -0.43740
 Alpha  occ. eigenvalues --   -0.43305  -0.43113  -0.42789  -0.42541  -0.41798
 Alpha  occ. eigenvalues --   -0.41520  -0.41488  -0.41149  -0.40945  -0.40627
 Alpha  occ. eigenvalues --   -0.40240  -0.40193  -0.39861  -0.39709  -0.39467
 Alpha  occ. eigenvalues --   -0.39189  -0.38828  -0.38614  -0.38279  -0.37998
 Alpha  occ. eigenvalues --   -0.37866  -0.37246  -0.36586  -0.36524  -0.35743
 Alpha  occ. eigenvalues --   -0.35327  -0.34669  -0.33722  -0.32315  -0.31578
 Alpha  occ. eigenvalues --   -0.31070  -0.29579  -0.28410  -0.26205  -0.23718
 Alpha  occ. eigenvalues --   -0.21091
 Alpha virt. eigenvalues --   -0.03684  -0.00270   0.02558   0.06015   0.07473
 Alpha virt. eigenvalues --    0.09789   0.10707   0.11144   0.11485   0.11804
 Alpha virt. eigenvalues --    0.12272   0.12448   0.12747   0.13121   0.13450

 Mulliken charges:
               1
     1  O   -0.536599
     2  O   -0.574250
     3  C   -0.008688
     4  C    0.005187
     5  C   -0.179375
     6  C   -0.197853
     7  C    0.183947
     8  C    0.192111
     9  C    0.075005
    10  C    0.043542
    11  C   -0.218624
    12  C   -0.239502
    13  C    0.019440
    14  C    0.063095
    15  C   -0.271984
    16  C   -0.300845
    17  C   -0.278413
    18  C   -0.320438
    19  C   -0.169789
    20  C   -0.162059
    21  C   -0.360707
    22  C   -0.306584
    23  C   -0.095578
    24  C   -0.100069
    25  C    0.057878
    26  C    0.093985
    27  C   -0.355087
    28  C   -0.366011
    29  C   -0.086605
    30  C   -0.098344
    31  C   -0.086134
    32  C   -0.103258
    33  C   -0.114465
    34  C   -0.108124
    35  C    0.119942
    36  C    0.118901
    37  C   -0.367396
    38  C   -0.379551
    39  C   -0.142564
    40  C   -0.137692
    41  C   -0.081931
    42  C   -0.063441
    43  H    0.074922
    44  H    0.077337
    45  H    0.096731
    46  H    0.098236
    47  H    0.083504
    48  H    0.047091
    49  H    0.118546
    50  H    0.092070
    51  H    0.104851
    52  H    0.121148
    53  H    0.069819
    54  H    0.082919
    55  H    0.112006
    56  H    0.097596
    57  H    0.092679
    58  H    0.091510
    59  H    0.105784
    60  H    0.083595
    61  H    0.067753
    62  H    0.083597
    63  H    0.103956
    64  H    0.115070
    65  H    0.105880
    66  H    0.095216
    67  H    0.114170
    68  H    0.122291
    69  H    0.105730
    70  H    0.106429
    71  H    0.115697
    72  H    0.092598
    73  H    0.306656
    74  H    0.302082
    75  H    0.087116
    76  H    0.082765
    77  H    0.099799
    78  H    0.114597
    79  H    0.120473
    80  H    0.130410
    81  H    0.134270
    82  H    0.095876
    83  H    0.078372
    84  H    0.060225
    85  H    0.087494
    86  H    0.078238
    87  H    0.089343
    88  H    0.075963
    89  H    0.130863
    90  H    0.104296
    91  H    0.126257
    92  H    0.104776
    93  H    0.136000
    94  H    0.111369
    95  H    0.079110
    96  H    0.085655
    97  H    0.065696
    98  H    0.072490
 Sum of Mulliken charges =  -0.00000

 Dipole moment (field-independent basis, Debye):
    X=              0.8158    Y=             -1.8918    Z=              0.0438  Tot=              2.0606
 Quadrupole moment (field-independent basis, Debye-Ang):
   XX=           -293.7162   YY=           -241.9819   ZZ=           -263.0751
   XY=             15.0394   XZ=              6.0636   YZ=              1.2670

 Normal termination of Gaussian 16 at Thu Jul  4 16:32:43 2019.
