 Gaussian 16, Revision A.03,
 Gaussian 16:  ES64L-G16RevA.03 25-Dec-2016

 -------------------------------------
 # td=(NStates=1) CAM-B3LYP/6-31G(d,p)
 -------------------------------------

 --
 TD
 --
 Symbolic Z-matrix:
 Charge =  0 Multiplicity = 1

                         Standard orientation:
 ---------------------------------------------------------------------
 Center     Atomic      Atomic             Coordinates (Angstroms)
 Number     Number       Type             X           Y           Z
 ---------------------------------------------------------------------
      1          8           0       14.719534   -2.334513   -0.407430
      2          8           0      -14.667161    2.063658    0.863447
      3          6           0       11.495070   -1.108118    1.231537
      4          6           0      -12.348830   -1.056799    0.745770
      5          6           0       12.978240   -1.381443    1.021875
      6          6           0      -13.593257   -0.199761    0.786564
      7          6           0       13.285044   -1.910239   -0.396900
      8          6           0      -13.450463    1.424543    0.664034
      9          6           0       10.990018   -0.274214   -0.012725
     10          6           0      -11.467447   -0.346121   -0.288536
     11          6           0       13.010527   -0.875893   -1.397567
     12          6           0      -12.899277    1.681699   -0.643269
     13          6           0       11.634692   -0.331346   -1.157374
     14          6           0      -11.581257    0.836704   -0.880218
     15          6           0       11.315075   -0.125999    2.452183
     16          6           0       10.717922   -2.368531    1.436253
     17          6           0      -11.719753   -0.887930    2.249132
     18          6           0      -12.712734   -2.446547    0.596752
     19          6           0        9.725400    0.393148    0.187999
     20          6           0      -10.120258   -1.070512   -0.495069
     21          6           0       11.144470    0.348236   -2.454514
     22          6           0      -10.759841    1.370140   -1.961631
     23          6           0        9.439461    1.632474   -0.234714
     24          6           0       -8.852477   -0.511110   -0.461732
     25          6           0        8.126671    2.325053    0.136898
     26          6           0       -7.607730   -1.266594   -0.541052
     27          6           0        8.197682    3.877824    0.188514
     28          6           0       -7.640767   -2.673239   -0.942954
     29          6           0        6.934602    1.617082    0.012616
     30          6           0       -6.469824   -0.616673   -0.258810
     31          6           0        5.511677    2.041998    0.288788
     32          6           0       -5.115030   -1.124568   -0.493548
     33          6           0        4.507563    1.230008    0.047179
     34          6           0       -4.023931   -0.373855   -0.402946
     35          6           0        3.077738    1.577573    0.211758
     36          6           0       -2.602964   -0.690396   -0.452580
     37          6           0        2.822815    3.033872    0.549017
     38          6           0       -2.314604   -2.102121   -0.824376
     39          6           0        2.150177    0.696855    0.000725
     40          6           0       -1.685011    0.203469   -0.059784
     41          6           0        0.630353    0.871797    0.191533
     42          6           0       -0.211321   -0.129163   -0.075322
     43          1           0       13.540689   -0.456688    1.320774
     44          1           0       13.291503   -2.164067    1.751851
     45          1           0      -14.023877   -0.411709    1.765819
     46          1           0      -14.498339   -0.346061   -0.011405
     47          1           0       12.815436   -3.001530   -0.420259
     48          1           0      -12.835756    1.734896    1.678185
     49          1           0       13.735292   -0.038104   -1.351964
     50          1           0       13.011047   -1.412702   -2.346845
     51          1           0      -13.719311    1.545570   -1.368026
     52          1           0      -12.441357    2.739589   -0.587951
     53          1           0       11.927842   -0.637633    3.342057
     54          1           0       10.228221   -0.244784    2.867641
     55          1           0       11.491551    0.935134    2.213125
     56          1           0       10.725116   -3.261391    0.854787
     57          1           0       11.126698   -2.654886    2.498186
     58          1           0        9.669942   -2.330439    1.319003
     59          1           0      -11.822957    0.054239    2.690192
     60          1           0      -10.567758   -1.329750    2.334945
     61          1           0      -12.299239   -1.710837    2.941950
     62          1           0      -13.586824   -2.678433    1.320851
     63          1           0      -11.965244   -3.162725    0.641395
     64          1           0      -12.906355   -2.469547   -0.525242
     65          1           0        9.069476   -0.040549    0.892719
     66          1           0      -10.177783   -2.213282   -0.360213
     67          1           0       10.036023    0.407456   -2.293655
     68          1           0       11.694854    1.270129   -2.675375
     69          1           0       11.453614   -0.151963   -3.376078
     70          1           0      -11.694309    1.842752   -2.567557
     71          1           0      -10.186179    0.579745   -2.478599
     72          1           0      -10.031937    2.332144   -1.780566
     73          1           0       14.695615   -3.324542    0.122660
     74          1           0      -15.161088    2.017117    1.640609
     75          1           0       10.142445    2.148969   -0.665387
     76          1           0       -8.962741    0.655249   -0.639450
     77          1           0        8.581117    4.390429   -0.698107
     78          1           0        7.190720    4.117111    0.463001
     79          1           0        8.738574    4.387230    1.161762
     80          1           0       -8.022118   -3.403730    0.036879
     81          1           0       -8.380572   -2.804017   -1.743422
     82          1           0       -6.724589   -3.150948   -1.502521
     83          1           0        7.111231    0.317161   -0.071378
     84          1           0       -6.510517    0.533932   -0.073910
     85          1           0        5.367451    3.045932    0.563954
     86          1           0       -5.191500   -2.291803   -0.659925
     87          1           0        4.651983    0.344172   -0.321749
     88          1           0       -4.171351    0.699708   -0.025923
     89          1           0        3.278108    3.378203    1.480191
     90          1           0        1.770623    3.321157    0.844879
     91          1           0        3.094282    3.645484   -0.394042
     92          1           0       -3.124885   -2.689564   -0.159347
     93          1           0       -2.587898   -2.355196   -2.052059
     94          1           0       -1.217856   -2.575781   -0.755018
     95          1           0        2.520442   -0.406517   -0.070240
     96          1           0       -2.035850    1.115432   -0.027870
     97          1           0        0.251077    1.818704    0.586754
     98          1           0        0.107710   -1.239452   -0.359254
 ---------------------------------------------------------------------

 SCF Done:  E(RCAM-B3LYP) =  -1706.90847993     A.U. after   13 cycles

 Excitation energies and oscillator strengths:

 Excited State   1:      Singlet-A      3.3745 eV  367.41 nm  f=3.5908  <S**2>=0.000
     154 ->159        -0.10224
     155 ->158         0.23577
     156 ->157         0.65220
 This state for optimization and/or second-order correction.
 Total Energy, E(TD-HF/TD-DFT) =  -1706.78446871
 Copying the excited state density for this state as the 1-particle RhoCI density.

 The electronic state is 1-A.
 Alpha  occ. eigenvalues --  -19.20821 -19.20381 -10.31757 -10.30753 -10.28642
 Alpha  occ. eigenvalues --  -10.28617 -10.28307 -10.27937 -10.27927 -10.27727
 Alpha  occ. eigenvalues --  -10.27412 -10.27332 -10.27231 -10.27053 -10.27010
 Alpha  occ. eigenvalues --  -10.27006 -10.26998 -10.26896 -10.26846 -10.26715
 Alpha  occ. eigenvalues --  -10.26705 -10.26660 -10.26654 -10.26588 -10.26424
 Alpha  occ. eigenvalues --  -10.26415 -10.26408 -10.26283 -10.26190 -10.25970
 Alpha  occ. eigenvalues --  -10.25722 -10.25368 -10.25337 -10.25234 -10.25043
 Alpha  occ. eigenvalues --  -10.24995 -10.24974 -10.24892 -10.24863 -10.24767
 Alpha  occ. eigenvalues --  -10.24641 -10.24554  -1.10333  -1.04327  -0.93754
 Alpha  occ. eigenvalues --   -0.93718  -0.92173  -0.91676  -0.90614  -0.89115
 Alpha  occ. eigenvalues --   -0.88176  -0.87229  -0.86884  -0.85339  -0.84454
 Alpha  occ. eigenvalues --   -0.83176  -0.81860  -0.79696  -0.79519  -0.77176
 Alpha  occ. eigenvalues --   -0.76709  -0.76434  -0.75681  -0.75514  -0.75451
 Alpha  occ. eigenvalues --   -0.74982  -0.74948  -0.74100  -0.73546  -0.69696
 Alpha  occ. eigenvalues --   -0.68522  -0.67285  -0.65861  -0.64434  -0.64363
 Alpha  occ. eigenvalues --   -0.63069  -0.62532  -0.61112  -0.60526  -0.58926
 Alpha  occ. eigenvalues --   -0.58573  -0.58022  -0.57830  -0.57486  -0.56548
 Alpha  occ. eigenvalues --   -0.55981  -0.55463  -0.54455  -0.53973  -0.53565
 Alpha  occ. eigenvalues --   -0.53102  -0.52094  -0.51810  -0.51497  -0.50837
 Alpha  occ. eigenvalues --   -0.50458  -0.49723  -0.49498  -0.49346  -0.49084
 Alpha  occ. eigenvalues --   -0.48691  -0.48515  -0.48402  -0.47937  -0.47392
 Alpha  occ. eigenvalues --   -0.47197  -0.47104  -0.46758  -0.46675  -0.46542
 Alpha  occ. eigenvalues --   -0.46170  -0.45370  -0.45278  -0.45102  -0.44427
 Alpha  occ. eigenvalues --   -0.44265  -0.43979  -0.43574  -0.43373  -0.42861
 Alpha  occ. eigenvalues --   -0.42427  -0.42167  -0.41936  -0.41646  -0.41440
 Alpha  occ. eigenvalues --   -0.41314  -0.41045  -0.40761  -0.40533  -0.40469
 Alpha  occ. eigenvalues --   -0.40360  -0.39731  -0.39599  -0.39586  -0.38783
 Alpha  occ. eigenvalues --   -0.38482  -0.38063  -0.37899  -0.37814  -0.37443
 Alpha  occ. eigenvalues --   -0.37101  -0.36449  -0.36045  -0.35836  -0.35677
 Alpha  occ. eigenvalues --   -0.35305  -0.34359  -0.33512  -0.32663  -0.30558
 Alpha  occ. eigenvalues --   -0.30392  -0.30292  -0.28753  -0.26778  -0.24420
 Alpha  occ. eigenvalues --   -0.22479
 Alpha virt. eigenvalues --   -0.02713  -0.00124   0.03073   0.05635   0.07638
 Alpha virt. eigenvalues --    0.08386   0.09658   0.11167   0.11488   0.11561
 Alpha virt. eigenvalues --    0.11977   0.12168   0.12404   0.12771   0.13083

 Mulliken charges:
               1
     1  O   -0.580226
     2  O   -0.565044
     3  C    0.008795
     4  C    0.024907
     5  C   -0.171187
     6  C   -0.202244
     7  C    0.156895
     8  C    0.192302
     9  C    0.073551
    10  C    0.081126
    11  C   -0.199005
    12  C   -0.212017
    13  C    0.006052
    14  C    0.051183
    15  C   -0.309345
    16  C   -0.297995
    17  C   -0.293185
    18  C   -0.291843
    19  C   -0.125437
    20  C   -0.163710
    21  C   -0.364562
    22  C   -0.366477
    23  C   -0.067708
    24  C   -0.095540
    25  C    0.032303
    26  C    0.128340
    27  C   -0.359439
    28  C   -0.372058
    29  C   -0.102697
    30  C   -0.120517
    31  C   -0.090867
    32  C   -0.084366
    33  C   -0.060917
    34  C   -0.127976
    35  C    0.141927
    36  C    0.146768
    37  C   -0.380879
    38  C   -0.351869
    39  C   -0.167957
    40  C   -0.125796
    41  C   -0.092223
    42  C   -0.070496
    43  H    0.099501
    44  H    0.064544
    45  H    0.071477
    46  H    0.072261
    47  H    0.072422
    48  H    0.046081
    49  H    0.132498
    50  H    0.113021
    51  H    0.128983
    52  H    0.104923
    53  H    0.080831
    54  H    0.094168
    55  H    0.123014
    56  H    0.105377
    57  H    0.084852
    58  H    0.104901
    59  H    0.115628
    60  H    0.088380
    61  H    0.069830
    62  H    0.104031
    63  H    0.111998
    64  H    0.095707
    65  H    0.089821
    66  H    0.065893
    67  H    0.122008
    68  H    0.108765
    69  H    0.099411
    70  H    0.097910
    71  H    0.134753
    72  H    0.101251
    73  H    0.293200
    74  H    0.305148
    75  H    0.085574
    76  H    0.091079
    77  H    0.130407
    78  H    0.114790
    79  H    0.090351
    80  H    0.092342
    81  H    0.126062
    82  H    0.110607
    83  H    0.059643
    84  H    0.075262
    85  H    0.091568
    86  H    0.084032
    87  H    0.066447
    88  H    0.075404
    89  H    0.123707
    90  H    0.097634
    91  H    0.120427
    92  H    0.107097
    93  H    0.087075
    94  H    0.098079
    95  H    0.076380
    96  H    0.076687
    97  H    0.095812
    98  H    0.090376
 Sum of Mulliken charges =  -0.00000

 Dipole moment (field-independent basis, Debye):
    X=             -1.9750    Y=             -0.6942    Z=              1.2419  Tot=              2.4341
 Quadrupole moment (field-independent basis, Debye-Ang):
   XX=           -295.2995   YY=           -241.7194   ZZ=           -261.4425
   XY=              6.6367   XZ=             -6.3023   YZ=              1.8302

 Normal termination of Gaussian 16 at Sun Jul  7 23:58:47 2019.
