 Gaussian 16, Revision A.03,
 Gaussian 16:  ES64L-G16RevA.03 25-Dec-2016

 -------------------------------------
 # td=(NStates=1) CAM-B3LYP/6-31G(d,p)
 -------------------------------------

 --
 TD
 --
 Symbolic Z-matrix:
 Charge =  0 Multiplicity = 1

                         Standard orientation:
 ---------------------------------------------------------------------
 Center     Atomic      Atomic             Coordinates (Angstroms)
 Number     Number       Type             X           Y           Z
 ---------------------------------------------------------------------
      1          8           0       14.685133   -2.269645   -0.446926
      2          8           0      -14.826986    2.007320    0.824193
      3          6           0       11.492459   -1.040878    1.259335
      4          6           0      -12.320503   -1.030133    0.742514
      5          6           0       12.971120   -1.461491    1.049053
      6          6           0      -13.667104   -0.157376    0.786060
      7          6           0       13.245217   -1.943832   -0.285099
      8          6           0      -13.574511    1.377419    0.808042
      9          6           0       11.004025   -0.341032   -0.064475
     10          6           0      -11.354764   -0.230823   -0.203284
     11          6           0       12.974140   -0.776308   -1.301306
     12          6           0      -12.765030    1.791485   -0.416345
     13          6           0       11.721909   -0.087682   -1.137048
     14          6           0      -11.451957    0.900659   -0.729379
     15          6           0       11.265920   -0.392510    2.558963
     16          6           0       10.654123   -2.422772    1.287958
     17          6           0      -11.763062   -0.989615    2.247615
     18          6           0      -12.623092   -2.379689    0.480913
     19          6           0        9.714522    0.321419    0.284589
     20          6           0      -10.068767   -1.061945   -0.496940
     21          6           0       11.328921    0.689865   -2.269152
     22          6           0      -10.499953    1.633264   -1.674184
     23          6           0        9.355230    1.657204   -0.015850
     24          6           0       -8.841385   -0.483329   -0.313326
     25          6           0        8.063195    2.346600    0.289725
     26          6           0       -7.631451   -1.216451   -0.434661
     27          6           0        8.038226    3.776788    0.679628
     28          6           0       -7.754217   -2.670085   -0.926049
     29          6           0        6.915556    1.620560    0.026984
     30          6           0       -6.414719   -0.548837   -0.456605
     31          6           0        5.567867    2.003793    0.242857
     32          6           0       -5.099733   -1.209274   -0.511300
     33          6           0        4.501227    1.321531   -0.127208
     34          6           0       -3.977333   -0.441205   -0.459065
     35          6           0        3.045755    1.659929   -0.038791
     36          6           0       -2.682693   -0.911560   -0.480006
     37          6           0        2.717806    2.946842    0.417604
     38          6           0       -2.413980   -2.398943   -0.795021
     39          6           0        2.142218    0.694392   -0.285027
     40          6           0       -1.639035    0.028710   -0.383431
     41          6           0        0.688192    0.801909   -0.233852
     42          6           0       -0.219835   -0.194131   -0.492442
     43          1           0       13.707062   -0.531605    1.125410
     44          1           0       13.258587   -2.285513    1.769840
     45          1           0      -14.367767   -0.487705    1.575851
     46          1           0      -14.356920   -0.440476   -0.275684
     47          1           0       12.704938   -2.755840   -0.314175
     48          1           0      -13.120550    1.548948    1.843535
     49          1           0       13.817540   -0.073178   -1.330578
     50          1           0       13.078715   -0.978347   -2.339220
     51          1           0      -13.659119    1.627918   -1.287644
     52          1           0      -12.345537    2.832672   -0.233259
     53          1           0       11.887811   -1.121877    3.279000
     54          1           0       10.311479   -0.328443    2.646726
     55          1           0       11.702491    0.727681    2.462370
     56          1           0       10.609303   -2.971656    0.463692
     57          1           0       11.111646   -2.897207    2.077061
     58          1           0        9.629757   -2.242175    1.701960
     59          1           0      -11.701142    0.230795    2.479557
     60          1           0      -10.697064   -1.416910    2.352095
     61          1           0      -12.307653   -1.631899    3.067699
     62          1           0      -13.587384   -2.484910    0.901038
     63          1           0      -11.792439   -3.221192    0.691899
     64          1           0      -12.888592   -2.624029   -0.655894
     65          1           0        9.009947   -0.466599    0.858490
     66          1           0      -10.231969   -2.084453   -0.568133
     67          1           0       10.389304    0.947814   -2.350141
     68          1           0       11.888692    1.563836   -2.371779
     69          1           0       11.648826    0.115305   -3.207100
     70          1           0      -11.021029    2.305880   -2.481560
     71          1           0       -9.785852    0.897592   -2.152769
     72          1           0       -9.976876    2.253745   -1.167497
     73          1           0       14.641640   -3.221317    0.051618
     74          1           0      -15.431937    1.719759    1.409077
     75          1           0        9.965596    2.463044   -0.274704
     76          1           0       -8.647848    0.555028   -0.090680
     77          1           0        9.139419    4.070182    0.111822
     78          1           0        7.014344    4.222059    0.355717
     79          1           0        8.267261    3.854304    1.936758
     80          1           0       -8.446472   -3.345006   -0.311484
     81          1           0       -8.331685   -2.529402   -1.793223
     82          1           0       -6.957315   -3.171492   -1.009979
     83          1           0        7.082729    0.704888   -0.430089
     84          1           0       -6.515187    0.490506   -0.343668
     85          1           0        5.214858    3.065971    0.511095
     86          1           0       -4.930061   -2.321203   -0.647506
     87          1           0        4.637172    0.318532   -0.380351
     88          1           0       -4.267655    0.742944   -0.533563
     89          1           0        2.992824    3.075195    1.411411
     90          1           0        1.822884    3.357713    0.621414
     91          1           0        3.385156    3.627003    0.070478
     92          1           0       -3.027495   -2.937506   -0.138079
     93          1           0       -2.672625   -2.719908   -1.777691
     94          1           0       -1.326458   -2.569600   -0.578764
     95          1           0        2.532194   -0.440271   -0.443011
     96          1           0       -2.187811    1.191957   -0.326970
     97          1           0        0.369448    1.911389   -0.110073
     98          1           0        0.028611   -1.119175   -0.660458
 ---------------------------------------------------------------------

 SCF Done:  E(RCAM-B3LYP) =  -1706.83219462     A.U. after   14 cycles

 Excitation energies and oscillator strengths:

 Excited State   1:      Singlet-A      2.6570 eV  466.63 nm  f=3.7448  <S**2>=0.000
     155 ->158         0.17622
     156 ->157         0.67824
 This state for optimization and/or second-order correction.
 Total Energy, E(TD-HF/TD-DFT) =  -1706.73455179
 Copying the excited state density for this state as the 1-particle RhoCI density.

 The electronic state is 1-A.
 Alpha  occ. eigenvalues --  -19.22031 -19.20269 -10.30997 -10.29707 -10.29307
 Alpha  occ. eigenvalues --  -10.28488 -10.28366 -10.27983 -10.27765 -10.27592
 Alpha  occ. eigenvalues --  -10.27435 -10.27370 -10.27145 -10.27111 -10.27102
 Alpha  occ. eigenvalues --  -10.26951 -10.26825 -10.26781 -10.26682 -10.26574
 Alpha  occ. eigenvalues --  -10.26460 -10.26237 -10.26058 -10.25974 -10.25896
 Alpha  occ. eigenvalues --  -10.25850 -10.25662 -10.25614 -10.25567 -10.25480
 Alpha  occ. eigenvalues --  -10.25440 -10.25426 -10.25381 -10.25374 -10.25149
 Alpha  occ. eigenvalues --  -10.25107 -10.24627 -10.24613 -10.23833 -10.23793
 Alpha  occ. eigenvalues --  -10.23404 -10.23134  -1.10882  -1.06646  -0.94581
 Alpha  occ. eigenvalues --   -0.93219  -0.92790  -0.91634  -0.90417  -0.90083
 Alpha  occ. eigenvalues --   -0.89314  -0.87482  -0.87024  -0.85528  -0.84324
 Alpha  occ. eigenvalues --   -0.83934  -0.82444  -0.80911  -0.79981  -0.79385
 Alpha  occ. eigenvalues --   -0.77538  -0.77487  -0.77149  -0.76779  -0.76187
 Alpha  occ. eigenvalues --   -0.75887  -0.74628  -0.74376  -0.73323  -0.70776
 Alpha  occ. eigenvalues --   -0.69079  -0.67817  -0.66494  -0.65411  -0.64268
 Alpha  occ. eigenvalues --   -0.63560  -0.62614  -0.61467  -0.61256  -0.60096
 Alpha  occ. eigenvalues --   -0.59658  -0.59108  -0.58135  -0.57914  -0.56287
 Alpha  occ. eigenvalues --   -0.56047  -0.55309  -0.54955  -0.54479  -0.53762
 Alpha  occ. eigenvalues --   -0.53318  -0.52948  -0.52081  -0.51512  -0.51423
 Alpha  occ. eigenvalues --   -0.50742  -0.50555  -0.50200  -0.49924  -0.49725
 Alpha  occ. eigenvalues --   -0.49024  -0.48935  -0.48551  -0.48458  -0.48040
 Alpha  occ. eigenvalues --   -0.47785  -0.47657  -0.47374  -0.47157  -0.46695
 Alpha  occ. eigenvalues --   -0.46406  -0.46034  -0.45815  -0.45385  -0.45322
 Alpha  occ. eigenvalues --   -0.44733  -0.44455  -0.44109  -0.43841  -0.43517
 Alpha  occ. eigenvalues --   -0.43182  -0.43129  -0.42476  -0.42008  -0.41867
 Alpha  occ. eigenvalues --   -0.41608  -0.41241  -0.41117  -0.41073  -0.40892
 Alpha  occ. eigenvalues --   -0.40659  -0.40166  -0.39739  -0.39516  -0.39473
 Alpha  occ. eigenvalues --   -0.39254  -0.39145  -0.38525  -0.38040  -0.37977
 Alpha  occ. eigenvalues --   -0.37696  -0.37109  -0.37066  -0.36026  -0.35237
 Alpha  occ. eigenvalues --   -0.34891  -0.33894  -0.32995  -0.32534  -0.32072
 Alpha  occ. eigenvalues --   -0.31562  -0.30411  -0.28594  -0.26716  -0.23838
 Alpha  occ. eigenvalues --   -0.20462
 Alpha virt. eigenvalues --   -0.04453  -0.00666   0.02748   0.06122   0.08746
 Alpha virt. eigenvalues --    0.09745   0.10324   0.10679   0.11278   0.11708
 Alpha virt. eigenvalues --    0.12008   0.12441   0.12832   0.13409   0.13553

 Mulliken charges:
               1
     1  O   -0.556468
     2  O   -0.545081
     3  C   -0.047991
     4  C    0.029035
     5  C   -0.165779
     6  C   -0.202566
     7  C    0.152149
     8  C    0.189858
     9  C    0.061387
    10  C    0.080644
    11  C   -0.248801
    12  C   -0.205447
    13  C    0.109329
    14  C    0.036078
    15  C   -0.242702
    16  C   -0.317851
    17  C   -0.289557
    18  C   -0.305145
    19  C   -0.143035
    20  C   -0.166801
    21  C   -0.366694
    22  C   -0.361689
    23  C   -0.104848
    24  C   -0.077758
    25  C    0.062613
    26  C    0.095966
    27  C   -0.328081
    28  C   -0.348798
    29  C   -0.098413
    30  C   -0.137056
    31  C   -0.074739
    32  C   -0.100399
    33  C   -0.112009
    34  C   -0.089939
    35  C    0.157536
    36  C    0.086431
    37  C   -0.406724
    38  C   -0.367193
    39  C   -0.155763
    40  C   -0.119249
    41  C   -0.080004
    42  C   -0.070672
    43  H    0.089406
    44  H    0.062393
    45  H    0.076398
    46  H    0.044290
    47  H    0.088381
    48  H    0.067811
    49  H    0.119158
    50  H    0.104854
    51  H    0.100220
    52  H    0.098184
    53  H    0.090044
    54  H    0.111717
    55  H    0.090969
    56  H    0.119661
    57  H    0.101056
    58  H    0.093255
    59  H    0.078969
    60  H    0.102797
    61  H    0.095277
    62  H    0.121595
    63  H    0.093058
    64  H    0.082554
    65  H    0.090854
    66  H    0.087966
    67  H    0.126090
    68  H    0.124769
    69  H    0.091483
    70  H    0.098736
    71  H    0.119153
    72  H    0.134487
    73  H    0.296428
    74  H    0.293956
    75  H    0.076646
    76  H    0.088354
    77  H    0.080443
    78  H    0.123048
    79  H    0.101199
    80  H    0.091262
    81  H    0.135926
    82  H    0.101655
    83  H    0.082416
    84  H    0.078421
    85  H    0.054646
    86  H    0.085422
    87  H    0.071215
    88  H    0.073979
    89  H    0.138012
    90  H    0.122874
    91  H    0.123211
    92  H    0.125458
    93  H    0.134765
    94  H    0.104720
    95  H    0.067768
    96  H    0.060307
    97  H    0.084086
    98  H    0.074426
 Sum of Mulliken charges =  -0.00000

 Dipole moment (field-independent basis, Debye):
    X=              0.4317    Y=             -1.7798    Z=              1.5674  Tot=              2.4105
 Quadrupole moment (field-independent basis, Debye-Ang):
   XX=           -287.6550   YY=           -241.9061   ZZ=           -262.8557
   XY=             10.5460   XZ=             -6.8238   YZ=              0.0523

 Normal termination of Gaussian 16 at Tue Jul  9 22:03:33 2019.
