 Gaussian 16, Revision A.03,
 Gaussian 16:  ES64L-G16RevA.03 25-Dec-2016

 -------------------------------------
 # td=(NStates=1) CAM-B3LYP/6-31G(d,p)
 -------------------------------------

 --
 TD
 --
 Symbolic Z-matrix:
 Charge =  0 Multiplicity = 1

                         Standard orientation:
 ---------------------------------------------------------------------
 Center     Atomic      Atomic             Coordinates (Angstroms)
 Number     Number       Type             X           Y           Z
 ---------------------------------------------------------------------
      1          8           0       14.804033   -1.976372   -0.064504
      2          8           0      -14.717023    2.141656    0.710989
      3          6           0       11.446123   -1.051118    1.261699
      4          6           0      -12.366584   -0.824723    0.922519
      5          6           0       12.836845   -1.276007    1.251058
      6          6           0      -13.680543   -0.136068    0.759236
      7          6           0       13.353065   -1.856983   -0.099120
      8          6           0      -13.471620    1.403260    0.709977
      9          6           0       10.985916   -0.335081   -0.007764
     10          6           0      -11.328503   -0.296148   -0.162240
     11          6           0       13.157862   -0.925039   -1.233566
     12          6           0      -12.613294    1.810702   -0.428637
     13          6           0       11.767514   -0.210997   -1.132033
     14          6           0      -11.436457    0.950012   -0.713874
     15          6           0       11.086214   -0.103879    2.466651
     16          6           0       10.445961   -2.366378    1.424014
     17          6           0      -11.663429   -0.673081    2.351131
     18          6           0      -12.507698   -2.341260    0.629877
     19          6           0        9.659544    0.350016    0.102344
     20          6           0      -10.089223   -1.150700   -0.380539
     21          6           0       11.410631    0.351735   -2.404968
     22          6           0      -10.674126    1.482275   -1.879793
     23          6           0        9.341235    1.600638   -0.267304
     24          6           0       -8.819831   -0.745104   -0.220237
     25          6           0        7.975383    2.213315   -0.051492
     26          6           0       -7.548873   -1.462057   -0.486153
     27          6           0        7.993496    3.708691    0.410525
     28          6           0       -7.732613   -2.798131   -1.039847
     29          6           0        6.843012    1.498237   -0.064239
     30          6           0       -6.366546   -0.812976   -0.203791
     31          6           0        5.479814    1.956339    0.015132
     32          6           0       -5.082205   -1.193068   -0.593367
     33          6           0        4.422179    1.173354   -0.134753
     34          6           0       -4.004345   -0.453639   -0.415222
     35          6           0        3.015474    1.599333    0.027713
     36          6           0       -2.658937   -0.802627   -0.612709
     37          6           0        2.816820    2.996106    0.573299
     38          6           0       -2.301703   -2.184440   -1.186017
     39          6           0        2.020514    0.675498   -0.214499
     40          6           0       -1.644085    0.086858   -0.134515
     41          6           0        0.606369    0.971205   -0.133240
     42          6           0       -0.238472   -0.111804   -0.290631
     43          1           0       13.589663   -0.471496    1.286363
     44          1           0       13.149052   -1.951631    2.206294
     45          1           0      -14.566942   -0.433237    1.497196
     46          1           0      -14.238320   -0.500679   -0.233803
     47          1           0       12.826640   -2.705613   -0.378280
     48          1           0      -12.928213    1.697337    1.744325
     49          1           0       13.875971   -0.084074   -1.330061
     50          1           0       13.200171   -1.609457   -2.072409
     51          1           0      -13.198705    1.911649   -1.298396
     52          1           0      -12.190583    2.754635   -0.169519
     53          1           0       11.356297   -0.594572    3.432241
     54          1           0        9.909864    0.005130    2.619607
     55          1           0       11.622677    0.977627    2.428126
     56          1           0       10.762144   -3.132077    0.458835
     57          1           0       10.662709   -3.001470    2.156038
     58          1           0        9.391489   -2.117264    1.316190
     59          1           0      -11.512146    0.441229    2.530486
     60          1           0      -10.691629   -1.253121    2.378661
     61          1           0      -12.366007   -1.149435    3.236643
     62          1           0      -13.390181   -2.897563    1.204930
     63          1           0      -11.678506   -3.058984    0.889772
     64          1           0      -13.009901   -2.709222   -0.455493
     65          1           0        8.785351   -0.125323    0.833024
     66          1           0      -10.228869   -2.222279   -1.001264
     67          1           0       10.472158    0.786046   -2.488607
     68          1           0       12.082375    1.153053   -2.907611
     69          1           0       11.155006   -0.329233   -3.050013
     70          1           0      -11.427686    1.691647   -2.631432
     71          1           0       -9.783316    0.920946   -2.233510
     72          1           0      -10.226707    2.533788   -1.647181
     73          1           0       14.977961   -2.543301    0.626235
     74          1           0      -15.233948    1.885810    1.463861
     75          1           0       10.041592    2.212884   -0.788336
     76          1           0       -8.883826    0.274199    0.280764
     77          1           0        8.825839    4.239640   -0.209212
     78          1           0        6.853892    3.937279    0.017285
     79          1           0        8.149592    3.985602    1.632628
     80          1           0       -8.549724   -3.409199   -0.238968
     81          1           0       -8.282370   -2.976630   -1.927081
     82          1           0       -6.807752   -3.436160   -1.184143
     83          1           0        7.006141    0.374731   -0.046182
     84          1           0       -6.324914    0.282085    0.011321
     85          1           0        5.463526    3.033567    0.345178
     86          1           0       -4.958269   -2.236065   -0.937890
     87          1           0        4.644018    0.072969   -0.445988
     88          1           0       -4.181294    0.634557   -0.136253
     89          1           0        3.374966    3.125725    1.543957
     90          1           0        1.677549    2.948828    0.776456
     91          1           0        2.963355    3.586709   -0.192297
     92          1           0       -2.500168   -2.966342   -0.454836
     93          1           0       -2.763610   -2.299015   -2.071254
     94          1           0       -1.219290   -2.476949   -1.216186
     95          1           0        2.414961   -0.219109   -0.614817
     96          1           0       -2.098866    0.987822    0.289932
     97          1           0        0.205427    1.991683   -0.052684
     98          1           0        0.495954   -1.157531   -0.452276
 ---------------------------------------------------------------------

 SCF Done:  E(RCAM-B3LYP) =  -1706.95280522     A.U. after   14 cycles

 Excitation energies and oscillator strengths:

 Excited State   1:      Singlet-A      2.6811 eV  462.45 nm  f=3.5761  <S**2>=0.000
     155 ->158         0.15550
     156 ->157         0.68507
 This state for optimization and/or second-order correction.
 Total Energy, E(TD-HF/TD-DFT) =  -1706.85427832
 Copying the excited state density for this state as the 1-particle RhoCI density.

 The electronic state is 1-A.
 Alpha  occ. eigenvalues --  -19.20814 -19.20641 -10.31555 -10.29452 -10.28840
 Alpha  occ. eigenvalues --  -10.28770 -10.28473 -10.28324 -10.28219 -10.27802
 Alpha  occ. eigenvalues --  -10.27353 -10.27178 -10.27143 -10.27091 -10.27054
 Alpha  occ. eigenvalues --  -10.27026 -10.27016 -10.26981 -10.26933 -10.26912
 Alpha  occ. eigenvalues --  -10.26843 -10.26704 -10.26636 -10.26578 -10.26507
 Alpha  occ. eigenvalues --  -10.26456 -10.26452 -10.26375 -10.26226 -10.26149
 Alpha  occ. eigenvalues --  -10.25984 -10.25883 -10.25736 -10.25633 -10.25591
 Alpha  occ. eigenvalues --  -10.25572 -10.25497 -10.25194 -10.25012 -10.24727
 Alpha  occ. eigenvalues --  -10.24407 -10.23044  -1.09781  -1.08719  -0.93793
 Alpha  occ. eigenvalues --   -0.93261  -0.92336  -0.91571  -0.90246  -0.89492
 Alpha  occ. eigenvalues --   -0.87456  -0.87177  -0.87070  -0.85564  -0.84636
 Alpha  occ. eigenvalues --   -0.83202  -0.82307  -0.80133  -0.79759  -0.78515
 Alpha  occ. eigenvalues --   -0.76934  -0.76665  -0.75997  -0.75418  -0.75178
 Alpha  occ. eigenvalues --   -0.74769  -0.74377  -0.74018  -0.73448  -0.70201
 Alpha  occ. eigenvalues --   -0.68521  -0.67121  -0.65585  -0.64478  -0.63926
 Alpha  occ. eigenvalues --   -0.63196  -0.62229  -0.61192  -0.60970  -0.59567
 Alpha  occ. eigenvalues --   -0.59473  -0.58650  -0.57500  -0.57263  -0.55929
 Alpha  occ. eigenvalues --   -0.55718  -0.54714  -0.54528  -0.54003  -0.53631
 Alpha  occ. eigenvalues --   -0.53379  -0.52592  -0.52180  -0.51864  -0.51315
 Alpha  occ. eigenvalues --   -0.51009  -0.50548  -0.49916  -0.49458  -0.49318
 Alpha  occ. eigenvalues --   -0.49132  -0.48751  -0.48018  -0.47896  -0.47653
 Alpha  occ. eigenvalues --   -0.47043  -0.46609  -0.46295  -0.46063  -0.45775
 Alpha  occ. eigenvalues --   -0.45117  -0.44976  -0.44925  -0.44601  -0.44429
 Alpha  occ. eigenvalues --   -0.44196  -0.43777  -0.43458  -0.43407  -0.43212
 Alpha  occ. eigenvalues --   -0.42802  -0.42652  -0.42352  -0.42146  -0.42094
 Alpha  occ. eigenvalues --   -0.41642  -0.41433  -0.41223  -0.41120  -0.40625
 Alpha  occ. eigenvalues --   -0.40604  -0.40342  -0.40134  -0.39230  -0.39131
 Alpha  occ. eigenvalues --   -0.38754  -0.38569  -0.38444  -0.38218  -0.37853
 Alpha  occ. eigenvalues --   -0.37242  -0.36852  -0.36438  -0.36189  -0.35866
 Alpha  occ. eigenvalues --   -0.35282  -0.34108  -0.33219  -0.32265  -0.32135
 Alpha  occ. eigenvalues --   -0.31661  -0.29630  -0.28283  -0.26722  -0.24262
 Alpha  occ. eigenvalues --   -0.20689
 Alpha virt. eigenvalues --   -0.04553  -0.00129   0.03095   0.05776   0.07084
 Alpha virt. eigenvalues --    0.09186   0.10633   0.10890   0.11188   0.11803
 Alpha virt. eigenvalues --    0.11968   0.12237   0.12800   0.13286   0.13434

 Mulliken charges:
               1
     1  O   -0.549208
     2  O   -0.571815
     3  C    0.010598
     4  C    0.030333
     5  C   -0.199796
     6  C   -0.191255
     7  C    0.128565
     8  C    0.170245
     9  C    0.078315
    10  C    0.022505
    11  C   -0.196201
    12  C   -0.205467
    13  C    0.022522
    14  C    0.056461
    15  C   -0.287078
    16  C   -0.300863
    17  C   -0.291273
    18  C   -0.308931
    19  C   -0.124886
    20  C   -0.134752
    21  C   -0.368904
    22  C   -0.351828
    23  C   -0.087577
    24  C   -0.095229
    25  C    0.030671
    26  C    0.134872
    27  C   -0.325503
    28  C   -0.381677
    29  C   -0.089324
    30  C   -0.129431
    31  C   -0.090596
    32  C   -0.070645
    33  C   -0.116431
    34  C   -0.113464
    35  C    0.061321
    36  C    0.104396
    37  C   -0.348942
    38  C   -0.371798
    39  C   -0.118563
    40  C   -0.154785
    41  C   -0.076594
    42  C   -0.082636
    43  H    0.121529
    44  H    0.056554
    45  H    0.070661
    46  H    0.090318
    47  H    0.091419
    48  H    0.056381
    49  H    0.121731
    50  H    0.115257
    51  H    0.127935
    52  H    0.119747
    53  H    0.092654
    54  H    0.087316
    55  H    0.094506
    56  H    0.057504
    57  H    0.120366
    58  H    0.119875
    59  H    0.102245
    60  H    0.117779
    61  H    0.078440
    62  H    0.075924
    63  H    0.111401
    64  H    0.075922
    65  H    0.072796
    66  H    0.067611
    67  H    0.112303
    68  H    0.099885
    69  H    0.129856
    70  H    0.119642
    71  H    0.122265
    72  H    0.094007
    73  H    0.293436
    74  H    0.305761
    75  H    0.091933
    76  H    0.083623
    77  H    0.101405
    78  H    0.090997
    79  H    0.105796
    80  H    0.081102
    81  H    0.143234
    82  H    0.107989
    83  H    0.072871
    84  H    0.083348
    85  H    0.087084
    86  H    0.078977
    87  H    0.076290
    88  H    0.074072
    89  H    0.125882
    90  H    0.089050
    91  H    0.141769
    92  H    0.124348
    93  H    0.130212
    94  H    0.105326
    95  H    0.083726
    96  H    0.090765
    97  H    0.104623
    98  H    0.087201
 Sum of Mulliken charges =  -0.00000

 Dipole moment (field-independent basis, Debye):
    X=             -0.2921    Y=             -1.6976    Z=              0.9882  Tot=              1.9859
 Quadrupole moment (field-independent basis, Debye-Ang):
   XX=           -288.0389   YY=           -249.0029   ZZ=           -258.8194
   XY=              4.8458   XZ=              2.8388   YZ=              1.5034

 Normal termination of Gaussian 16 at Wed Jun 26 15:17:00 2019.
