 Gaussian 16, Revision A.03,
 Gaussian 16:  ES64L-G16RevA.03 25-Dec-2016

 -------------------------------------
 # td=(NStates=1) CAM-B3LYP/6-31G(d,p)
 -------------------------------------

 --
 TD
 --
 Symbolic Z-matrix:
 Charge =  0 Multiplicity = 1

                         Standard orientation:
 ---------------------------------------------------------------------
 Center     Atomic      Atomic             Coordinates (Angstroms)
 Number     Number       Type             X           Y           Z
 ---------------------------------------------------------------------
      1          8           0       14.667016   -2.245035   -0.184494
      2          8           0      -14.789519    1.841015    1.092115
      3          6           0       11.299623   -1.069556    1.271024
      4          6           0      -12.131563   -0.993528    0.902963
      5          6           0       12.857627   -1.457065    1.092250
      6          6           0      -13.525245   -0.302094    0.968976
      7          6           0       13.237054   -2.110675   -0.194625
      8          6           0      -13.536005    1.219568    0.906633
      9          6           0       10.860506   -0.428924   -0.104503
     10          6           0      -11.269514   -0.327953   -0.135744
     11          6           0       12.857040   -1.070114   -1.276424
     12          6           0      -12.912445    1.551407   -0.514795
     13          6           0       11.623298   -0.460328   -1.241170
     14          6           0      -11.621895    0.709012   -0.947199
     15          6           0       11.125669   -0.157459    2.544608
     16          6           0       10.563863   -2.330501    1.508451
     17          6           0      -11.443925   -0.940362    2.266760
     18          6           0      -12.427337   -2.460548    0.522131
     19          6           0        9.569974    0.262296    0.061753
     20          6           0      -10.141240   -0.987708   -0.531375
     21          6           0       11.050572    0.108579   -2.430083
     22          6           0      -10.923736    1.463383   -2.051596
     23          6           0        9.359210    1.553393   -0.087929
     24          6           0       -8.849891   -0.507031   -0.492940
     25          6           0        8.091728    2.223345    0.054025
     26          6           0       -7.488114   -1.263506   -0.568476
     27          6           0        8.140999    3.800218    0.371937
     28          6           0       -7.637535   -2.634475   -0.942081
     29          6           0        6.914729    1.625772   -0.071309
     30          6           0       -6.389053   -0.612856   -0.439874
     31          6           0        5.617750    2.192098    0.072812
     32          6           0       -5.067617   -1.185686   -0.494004
     33          6           0        4.528402    1.566575   -0.152576
     34          6           0       -3.990835   -0.354973   -0.418854
     35          6           0        3.090544    1.897655    0.084648
     36          6           0       -2.565447   -0.687901   -0.520369
     37          6           0        2.804795    3.284140    0.515978
     38          6           0       -2.240322   -2.008693   -0.869850
     39          6           0        2.190492    0.934480   -0.152820
     40          6           0       -1.615493    0.231213   -0.160440
     41          6           0        0.729722    1.077205    0.019174
     42          6           0       -0.194751    0.122813   -0.394268
     43          1           0       13.466192   -0.597973    1.182893
     44          1           0       12.924022   -2.234082    1.994450
     45          1           0      -13.934750   -0.571845    1.869899
     46          1           0      -14.262289   -0.702375    0.066045
     47          1           0       12.699302   -2.967859   -0.057075
     48          1           0      -12.799236    1.536223    1.720103
     49          1           0       13.834203   -0.231944   -1.190293
     50          1           0       12.899187   -1.553102   -2.188650
     51          1           0      -13.641518    1.406005   -1.289396
     52          1           0      -12.503306    2.595120   -0.667985
     53          1           0       11.614923   -0.641295    3.436469
     54          1           0        9.999051   -0.050769    2.741557
     55          1           0       11.709523    0.652188    2.270209
     56          1           0       10.424695   -3.086606    0.668457
     57          1           0       10.762155   -2.906436    2.240441
     58          1           0        9.476756   -2.284252    1.545534
     59          1           0      -11.134668    0.085499    2.481129
     60          1           0      -10.542108   -1.472224    2.137989
     61          1           0      -12.187380   -1.321184    2.985670
     62          1           0      -13.025537   -2.856996    1.286814
     63          1           0      -11.550866   -3.122040    0.599372
     64          1           0      -12.542892   -2.498977   -0.651947
     65          1           0        8.762701   -0.344860    0.491107
     66          1           0      -10.038532   -2.149601   -0.605702
     67          1           0        9.960209    0.362216   -2.369223
     68          1           0       11.645811    1.009712   -2.848239
     69          1           0       11.158924   -0.638098   -3.414143
     70          1           0      -11.789790    1.332831   -3.113543
     71          1           0       -9.818614    1.046578   -2.113986
     72          1           0      -10.865980    2.663468   -1.759604
     73          1           0       15.022509   -2.888538    0.425770
     74          1           0      -15.182989    1.574933    1.853984
     75          1           0       10.316452    2.297921   -0.310516
     76          1           0       -8.765793    0.637420   -0.268897
     77          1           0        8.976492    4.245800   -0.242162
     78          1           0        7.245821    4.117765    0.476715
     79          1           0        8.617294    3.918410    1.416045
     80          1           0       -8.402542   -3.086063   -0.278880
     81          1           0       -8.268747   -2.858245   -1.745303
     82          1           0       -6.665902   -3.196857   -1.075836
     83          1           0        6.964099    0.713482   -0.268657
     84          1           0       -6.595168    0.386385   -0.040559
     85          1           0        5.578258    3.160854    0.686978
     86          1           0       -4.945334   -2.105455   -0.832910
     87          1           0        4.662935    0.635863   -0.382259
     88          1           0       -4.040179    0.603042   -0.077476
     89          1           0        3.151346    3.471377    1.562857
     90          1           0        1.789577    3.602435    0.608463
     91          1           0        3.160868    3.895362   -0.213256
     92          1           0       -2.598634   -2.926193   -0.231277
     93          1           0       -2.871812   -2.289872   -1.634881
     94          1           0       -1.158021   -2.402533   -1.012526
     95          1           0        2.279753   -0.007005   -0.703008
     96          1           0       -1.807754    1.224182    0.197089
     97          1           0        0.369953    2.021751    0.437623
     98          1           0        0.197541   -0.798679   -0.881365
 ---------------------------------------------------------------------

 SCF Done:  E(RCAM-B3LYP) =  -1706.89309824     A.U. after   13 cycles

 Excitation energies and oscillator strengths:

 Excited State   1:      Singlet-A      2.9998 eV  413.31 nm  f=3.5506  <S**2>=0.000
     155 ->158        -0.17477
     156 ->157         0.67648
 This state for optimization and/or second-order correction.
 Total Energy, E(TD-HF/TD-DFT) =  -1706.78285841
 Copying the excited state density for this state as the 1-particle RhoCI density.

 The electronic state is 1-A.
 Alpha  occ. eigenvalues --  -19.20949 -19.20791 -10.31274 -10.29667 -10.29666
 Alpha  occ. eigenvalues --  -10.27615 -10.27538 -10.27461 -10.27216 -10.27193
 Alpha  occ. eigenvalues --  -10.27022 -10.26774 -10.26679 -10.26634 -10.26605
 Alpha  occ. eigenvalues --  -10.26515 -10.26238 -10.26198 -10.26173 -10.26161
 Alpha  occ. eigenvalues --  -10.25911 -10.25774 -10.25710 -10.25673 -10.25628
 Alpha  occ. eigenvalues --  -10.25565 -10.25508 -10.25503 -10.25449 -10.25361
 Alpha  occ. eigenvalues --  -10.25311 -10.25248 -10.25059 -10.25026 -10.24979
 Alpha  occ. eigenvalues --  -10.24939 -10.24744 -10.24592 -10.24527 -10.23832
 Alpha  occ. eigenvalues --  -10.23256 -10.23072  -1.10917  -1.08768  -0.94406
 Alpha  occ. eigenvalues --   -0.94030  -0.92766  -0.92406  -0.91195  -0.90322
 Alpha  occ. eigenvalues --   -0.88091  -0.87595  -0.87138  -0.85809  -0.85093
 Alpha  occ. eigenvalues --   -0.83845  -0.82866  -0.80908  -0.79840  -0.79102
 Alpha  occ. eigenvalues --   -0.77781  -0.77316  -0.77011  -0.76865  -0.75839
 Alpha  occ. eigenvalues --   -0.75499  -0.75055  -0.74437  -0.73975  -0.70864
 Alpha  occ. eigenvalues --   -0.69218  -0.67714  -0.66249  -0.64925  -0.64072
 Alpha  occ. eigenvalues --   -0.63743  -0.62911  -0.62205  -0.61879  -0.61047
 Alpha  occ. eigenvalues --   -0.60686  -0.59442  -0.58433  -0.58276  -0.56467
 Alpha  occ. eigenvalues --   -0.56132  -0.55871  -0.55582  -0.54997  -0.54873
 Alpha  occ. eigenvalues --   -0.54131  -0.53590  -0.52582  -0.52175  -0.51449
 Alpha  occ. eigenvalues --   -0.51335  -0.50734  -0.50456  -0.50210  -0.49546
 Alpha  occ. eigenvalues --   -0.49470  -0.48817  -0.48294  -0.48223  -0.47587
 Alpha  occ. eigenvalues --   -0.47305  -0.47187  -0.46964  -0.46811  -0.46670
 Alpha  occ. eigenvalues --   -0.46320  -0.45624  -0.45516  -0.45295  -0.45130
 Alpha  occ. eigenvalues --   -0.44937  -0.44500  -0.44180  -0.44107  -0.43825
 Alpha  occ. eigenvalues --   -0.43183  -0.42928  -0.42726  -0.42384  -0.42017
 Alpha  occ. eigenvalues --   -0.41507  -0.40970  -0.40786  -0.40584  -0.40393
 Alpha  occ. eigenvalues --   -0.40226  -0.39955  -0.39676  -0.39561  -0.39500
 Alpha  occ. eigenvalues --   -0.39133  -0.38779  -0.38653  -0.38241  -0.37940
 Alpha  occ. eigenvalues --   -0.37729  -0.37220  -0.36938  -0.36239  -0.36068
 Alpha  occ. eigenvalues --   -0.35459  -0.34066  -0.33573  -0.32368  -0.32008
 Alpha  occ. eigenvalues --   -0.31269  -0.29610  -0.27935  -0.26094  -0.24385
 Alpha  occ. eigenvalues --   -0.21452
 Alpha virt. eigenvalues --   -0.03603   0.00265   0.02756   0.05463   0.07119
 Alpha virt. eigenvalues --    0.08671   0.10425   0.11255   0.12100   0.12536
 Alpha virt. eigenvalues --    0.12719   0.13037   0.13363   0.13569   0.13818

 Mulliken charges:
               1
     1  O   -0.567501
     2  O   -0.540301
     3  C   -0.024346
     4  C   -0.030600
     5  C   -0.191963
     6  C   -0.176296
     7  C    0.186644
     8  C    0.178165
     9  C    0.012631
    10  C    0.074976
    11  C   -0.238684
    12  C   -0.213554
    13  C    0.164643
    14  C    0.052153
    15  C   -0.285020
    16  C   -0.307803
    17  C   -0.295677
    18  C   -0.298365
    19  C   -0.148248
    20  C   -0.134126
    21  C   -0.373093
    22  C   -0.318410
    23  C   -0.079078
    24  C   -0.134382
    25  C    0.071742
    26  C    0.162490
    27  C   -0.343588
    28  C   -0.403393
    29  C   -0.076484
    30  C   -0.124962
    31  C   -0.076227
    32  C   -0.079582
    33  C   -0.089207
    34  C   -0.096043
    35  C    0.096230
    36  C    0.153026
    37  C   -0.373754
    38  C   -0.405479
    39  C   -0.128056
    40  C   -0.141090
    41  C   -0.093893
    42  C   -0.088631
    43  H    0.097670
    44  H    0.051144
    45  H    0.074210
    46  H    0.077500
    47  H    0.094492
    48  H    0.063603
    49  H    0.095606
    50  H    0.109748
    51  H    0.115320
    52  H    0.089833
    53  H    0.096055
    54  H    0.103362
    55  H    0.116009
    56  H    0.084607
    57  H    0.112715
    58  H    0.091508
    59  H    0.109483
    60  H    0.118479
    61  H    0.097386
    62  H    0.109544
    63  H    0.093367
    64  H    0.108307
    65  H    0.095333
    66  H    0.054942
    67  H    0.129555
    68  H    0.104995
    69  H    0.070217
    70  H    0.073181
    71  H    0.118207
    72  H    0.103492
    73  H    0.304665
    74  H    0.297106
    75  H    0.072408
    76  H    0.068503
    77  H    0.115250
    78  H    0.112105
    79  H    0.101434
    80  H    0.114278
    81  H    0.136369
    82  H    0.105549
    83  H    0.046477
    84  H    0.079567
    85  H    0.073165
    86  H    0.071014
    87  H    0.061261
    88  H    0.074482
    89  H    0.118984
    90  H    0.110938
    91  H    0.138937
    92  H    0.105886
    93  H    0.125996
    94  H    0.109571
    95  H    0.086304
    96  H    0.081887
    97  H    0.075746
    98  H    0.077387
 Sum of Mulliken charges =  -0.00000

 Dipole moment (field-independent basis, Debye):
    X=             -0.1620    Y=             -2.3221    Z=              2.3725  Tot=              3.3237
 Quadrupole moment (field-independent basis, Debye-Ang):
   XX=           -279.3302   YY=           -244.4414   ZZ=           -259.9241
   XY=              9.4459   XZ=             -3.3157   YZ=              1.6176

 Normal termination of Gaussian 16 at Tue Jul  9 01:50:31 2019.
