 Gaussian 16, Revision A.03,
 Gaussian 16:  ES64L-G16RevA.03 25-Dec-2016

 -------------------------------------
 # td=(NStates=1) CAM-B3LYP/6-31G(d,p)
 -------------------------------------

 --
 TD
 --
 Symbolic Z-matrix:
 Charge =  0 Multiplicity = 1

                         Standard orientation:
 ---------------------------------------------------------------------
 Center     Atomic      Atomic             Coordinates (Angstroms)
 Number     Number       Type             X           Y           Z
 ---------------------------------------------------------------------
      1          8           0       14.634857   -2.269434   -0.532748
      2          8           0      -14.862302    1.766161    0.756435
      3          6           0       11.375208   -1.313975    1.098843
      4          6           0      -12.317492   -0.987545    0.790049
      5          6           0       12.845164   -1.560361    1.099699
      6          6           0      -13.657781   -0.302380    0.713320
      7          6           0       13.195252   -2.058721   -0.364124
      8          6           0      -13.529661    1.119963    0.753257
      9          6           0       10.940449   -0.397551   -0.020499
     10          6           0      -11.258352   -0.341104   -0.095092
     11          6           0       13.030933   -0.820191   -1.310520
     12          6           0      -12.801406    1.672189   -0.501200
     13          6           0       11.669966   -0.161098   -1.131105
     14          6           0      -11.532071    0.866247   -0.831224
     15          6           0       11.126274   -0.514982    2.474960
     16          6           0       10.480724   -2.587584    1.275253
     17          6           0      -11.702564   -1.005107    2.184618
     18          6           0      -12.477281   -2.483367    0.363471
     19          6           0        9.529046    0.273567    0.165248
     20          6           0       -9.976459   -1.022714   -0.461291
     21          6           0       11.198070    0.630868   -2.312289
     22          6           0      -10.607649    1.358672   -1.809294
     23          6           0        9.315501    1.561656   -0.053625
     24          6           0       -8.821877   -0.485013   -0.176954
     25          6           0        8.038679    2.236245    0.084191
     26          6           0       -7.591024   -1.183497   -0.458798
     27          6           0        8.216816    3.703984    0.585185
     28          6           0       -7.511384   -2.636581   -0.911835
     29          6           0        6.931490    1.607120   -0.159239
     30          6           0       -6.398350   -0.556044   -0.445487
     31          6           0        5.543803    2.111553    0.105591
     32          6           0       -5.076097   -1.101021   -0.448301
     33          6           0        4.442357    1.358215   -0.060241
     34          6           0       -4.038933   -0.235701   -0.402043
     35          6           0        3.122224    1.777180    0.278420
     36          6           0       -2.556393   -0.555183   -0.600352
     37          6           0        2.873818    3.104661    0.752069
     38          6           0       -2.357960   -2.015580   -1.128645
     39          6           0        2.090343    0.976824    0.019104
     40          6           0       -1.638318    0.243406   -0.204977
     41          6           0        0.636413    1.207260    0.166964
     42          6           0       -0.247208    0.288805   -0.377051
     43          1           0       13.418931   -0.761933    1.533719
     44          1           0       13.034524   -2.353377    1.965917
     45          1           0      -14.229216   -0.772887    1.750696
     46          1           0      -14.278773   -0.510161   -0.168431
     47          1           0       12.747655   -2.872898   -0.671867
     48          1           0      -12.891695    1.395335    1.530536
     49          1           0       13.838204   -0.137695   -1.003307
     50          1           0       13.233060   -1.318105   -2.251116
     51          1           0      -13.385601    1.581144   -1.467103
     52          1           0      -12.695938    2.763781   -0.295666
     53          1           0       11.270302   -1.363528    3.376488
     54          1           0        9.918769   -0.047542    2.286275
     55          1           0       11.716292    0.365088    2.693830
     56          1           0       10.460785   -3.231281    0.306484
     57          1           0       11.012577   -3.526520    1.966501
     58          1           0        9.525890   -2.393219    1.894302
     59          1           0      -11.374015   -0.133596    2.467898
     60          1           0      -10.738839   -1.503325    2.133677
     61          1           0      -12.520108   -1.547141    2.858456
     62          1           0      -13.274569   -2.775077    1.026853
     63          1           0      -11.665618   -3.069084    0.607593
     64          1           0      -12.839031   -2.486342   -0.674815
     65          1           0        9.050857   -0.511143    0.616997
     66          1           0      -10.034439   -2.073724   -0.603947
     67          1           0       10.122208    0.715225   -2.123681
     68          1           0       11.763406    1.587755   -2.429039
     69          1           0       11.533810    0.010042   -3.054292
     70          1           0      -11.174078    1.782349   -2.631320
     71          1           0      -10.072343    0.595758   -2.289096
     72          1           0      -10.032444    2.200481   -1.194668
     73          1           0       14.919991   -2.841330    0.444914
     74          1           0      -15.143073    1.592927    1.638223
     75          1           0       10.220927    2.069073   -0.161280
     76          1           0       -8.733834    0.294461    0.292770
     77          1           0        9.013561    4.124983   -0.158172
     78          1           0        7.394408    4.313181    0.578491
     79          1           0        8.591104    3.679597    1.553849
     80          1           0       -8.042713   -3.394892   -0.316036
     81          1           0       -7.968411   -2.556333   -1.858282
     82          1           0       -6.569508   -3.207432   -0.958162
     83          1           0        6.874983    0.643984   -0.600046
     84          1           0       -6.297365    0.453143   -0.042290
     85          1           0        5.458574    3.136539    0.435822
     86          1           0       -4.953833   -2.122735   -0.487791
     87          1           0        4.578173    0.307345   -0.423549
     88          1           0       -4.180246    0.960664   -0.398138
     89          1           0        3.351842    3.382310    1.618452
     90          1           0        1.759911    3.493774    0.766337
     91          1           0        3.166650    3.852722   -0.093765
     92          1           0       -2.767993   -2.598117   -0.306928
     93          1           0       -2.940536   -2.252796   -2.168526
     94          1           0       -1.239846   -2.203792   -1.125401
     95          1           0        2.374074    0.058225   -0.324093
     96          1           0       -1.824601    1.237582    0.218654
     97          1           0        0.200326    2.020716    0.750204
     98          1           0        0.110784   -0.664694   -0.698999
 ---------------------------------------------------------------------

 SCF Done:  E(RCAM-B3LYP) =  -1706.93371700     A.U. after   14 cycles

 Excitation energies and oscillator strengths:

 Excited State   1:      Singlet-A      3.1359 eV  395.36 nm  f=3.6126  <S**2>=0.000
     155 ->158        -0.19185
     156 ->157         0.66851
 This state for optimization and/or second-order correction.
 Total Energy, E(TD-HF/TD-DFT) =  -1706.81847320
 Copying the excited state density for this state as the 1-particle RhoCI density.

 The electronic state is 1-A.
 Alpha  occ. eigenvalues --  -19.21720 -19.20857 -10.29610 -10.29582 -10.28299
 Alpha  occ. eigenvalues --  -10.27994 -10.27582 -10.27330 -10.27311 -10.27255
 Alpha  occ. eigenvalues --  -10.27161 -10.26942 -10.26683 -10.26670 -10.26551
 Alpha  occ. eigenvalues --  -10.26163 -10.26076 -10.26061 -10.26013 -10.26008
 Alpha  occ. eigenvalues --  -10.25977 -10.25968 -10.25797 -10.25788 -10.25635
 Alpha  occ. eigenvalues --  -10.25627 -10.25520 -10.25498 -10.25484 -10.25419
 Alpha  occ. eigenvalues --  -10.25155 -10.25095 -10.25049 -10.25001 -10.24951
 Alpha  occ. eigenvalues --  -10.24845 -10.24681 -10.24503 -10.24129 -10.23976
 Alpha  occ. eigenvalues --  -10.23857 -10.23767  -1.08550  -1.05283  -0.94003
 Alpha  occ. eigenvalues --   -0.93440  -0.92608  -0.91967  -0.91105  -0.90616
 Alpha  occ. eigenvalues --   -0.87953  -0.87072  -0.86880  -0.85731  -0.84686
 Alpha  occ. eigenvalues --   -0.83481  -0.82209  -0.80900  -0.79736  -0.78137
 Alpha  occ. eigenvalues --   -0.77186  -0.77114  -0.76429  -0.76064  -0.75814
 Alpha  occ. eigenvalues --   -0.75149  -0.74770  -0.74235  -0.73268  -0.70566
 Alpha  occ. eigenvalues --   -0.69029  -0.67775  -0.66220  -0.65305  -0.64234
 Alpha  occ. eigenvalues --   -0.63265  -0.62933  -0.62421  -0.61187  -0.60903
 Alpha  occ. eigenvalues --   -0.60527  -0.59706  -0.58240  -0.57283  -0.56804
 Alpha  occ. eigenvalues --   -0.56065  -0.55743  -0.54346  -0.53553  -0.53482
 Alpha  occ. eigenvalues --   -0.53173  -0.52225  -0.51926  -0.51630  -0.51489
 Alpha  occ. eigenvalues --   -0.51039  -0.50467  -0.49963  -0.49671  -0.49571
 Alpha  occ. eigenvalues --   -0.49174  -0.48971  -0.48700  -0.48366  -0.48249
 Alpha  occ. eigenvalues --   -0.48236  -0.47943  -0.47480  -0.46884  -0.46518
 Alpha  occ. eigenvalues --   -0.46031  -0.45944  -0.45703  -0.45486  -0.44900
 Alpha  occ. eigenvalues --   -0.44604  -0.44322  -0.44004  -0.43594  -0.43499
 Alpha  occ. eigenvalues --   -0.43259  -0.42922  -0.42464  -0.42420  -0.42155
 Alpha  occ. eigenvalues --   -0.42099  -0.41847  -0.41568  -0.41456  -0.40876
 Alpha  occ. eigenvalues --   -0.40471  -0.40315  -0.40087  -0.39613  -0.39255
 Alpha  occ. eigenvalues --   -0.39189  -0.38995  -0.38426  -0.38255  -0.37440
 Alpha  occ. eigenvalues --   -0.36994  -0.36944  -0.36239  -0.36026  -0.35800
 Alpha  occ. eigenvalues --   -0.34875  -0.34265  -0.33715  -0.33074  -0.32366
 Alpha  occ. eigenvalues --   -0.31629  -0.29572  -0.27592  -0.26249  -0.24115
 Alpha  occ. eigenvalues --   -0.21767
 Alpha virt. eigenvalues --   -0.03209   0.00289   0.02930   0.06223   0.07876
 Alpha virt. eigenvalues --    0.08635   0.09534   0.10623   0.11180   0.11516
 Alpha virt. eigenvalues --    0.13059   0.13361   0.13745   0.13859   0.14132

 Mulliken charges:
               1
     1  O   -0.574054
     2  O   -0.557199
     3  C   -0.017163
     4  C   -0.043321
     5  C   -0.194762
     6  C   -0.145019
     7  C    0.169371
     8  C    0.134568
     9  C    0.061267
    10  C    0.032002
    11  C   -0.220642
    12  C   -0.217172
    13  C    0.011930
    14  C    0.035443
    15  C   -0.286772
    16  C   -0.299827
    17  C   -0.277931
    18  C   -0.291429
    19  C   -0.104080
    20  C   -0.169772
    21  C   -0.342194
    22  C   -0.341487
    23  C   -0.115550
    24  C    0.014247
    25  C    0.091760
    26  C    0.072646
    27  C   -0.358800
    28  C   -0.379685
    29  C   -0.118337
    30  C   -0.137610
    31  C   -0.095918
    32  C   -0.058283
    33  C   -0.117105
    34  C   -0.121212
    35  C    0.168312
    36  C    0.082457
    37  C   -0.394319
    38  C   -0.361459
    39  C   -0.137700
    40  C   -0.104546
    41  C   -0.097388
    42  C   -0.076882
    43  H    0.114065
    44  H    0.059678
    45  H    0.040386
    46  H    0.109328
    47  H    0.098539
    48  H    0.095732
    49  H    0.130300
    50  H    0.112750
    51  H    0.109244
    52  H    0.111343
    53  H    0.075537
    54  H    0.066035
    55  H    0.111235
    56  H    0.104264
    57  H    0.063305
    58  H    0.120789
    59  H    0.108535
    60  H    0.105232
    61  H    0.077035
    62  H    0.096246
    63  H    0.106900
    64  H    0.105058
    65  H    0.092007
    66  H    0.088963
    67  H    0.124006
    68  H    0.107548
    69  H    0.113328
    70  H    0.100568
    71  H    0.130787
    72  H    0.104859
    73  H    0.283742
    74  H    0.300563
    75  H    0.098527
    76  H    0.055409
    77  H    0.106076
    78  H    0.118210
    79  H    0.134930
    80  H    0.105881
    81  H    0.134000
    82  H    0.110463
    83  H    0.080461
    84  H    0.072862
    85  H    0.078357
    86  H    0.081674
    87  H    0.081395
    88  H    0.078653
    89  H    0.128123
    90  H    0.099160
    91  H    0.107848
    92  H    0.132247
    93  H    0.111563
    94  H    0.101867
    95  H    0.070922
    96  H    0.065103
    97  H    0.093596
    98  H    0.068382
 Sum of Mulliken charges =  -0.00000

 Dipole moment (field-independent basis, Debye):
    X=              0.4868    Y=             -1.0650    Z=              2.5217  Tot=              2.7803
 Quadrupole moment (field-independent basis, Debye-Ang):
   XX=           -294.6475   YY=           -245.3545   ZZ=           -259.7149
   XY=             14.8952   XZ=              4.8017   YZ=              2.8922

 Normal termination of Gaussian 16 at Sun Jul  7 00:35:22 2019.
