 Gaussian 16, Revision A.03,
 Gaussian 16:  ES64L-G16RevA.03 25-Dec-2016

 -------------------------------------
 # td=(NStates=1) CAM-B3LYP/6-31G(d,p)
 -------------------------------------

 --
 TD
 --
 Symbolic Z-matrix:
 Charge =  0 Multiplicity = 1

                         Standard orientation:
 ---------------------------------------------------------------------
 Center     Atomic      Atomic             Coordinates (Angstroms)
 Number     Number       Type             X           Y           Z
 ---------------------------------------------------------------------
      1          8           0       14.534393   -2.483566   -0.601813
      2          8           0      -14.754136    2.032712    0.557637
      3          6           0       11.292266   -1.070418    1.226342
      4          6           0      -12.265689   -0.986117    0.750060
      5          6           0       12.739908   -1.620487    1.070021
      6          6           0      -13.693613   -0.257190    0.592439
      7          6           0       13.117172   -2.137859   -0.344682
      8          6           0      -13.566268    1.242931    0.614730
      9          6           0       10.944391   -0.251860    0.008792
     10          6           0      -11.222614   -0.343884   -0.131524
     11          6           0       12.886256   -1.030586   -1.373153
     12          6           0      -12.636996    1.756663   -0.516859
     13          6           0       11.585906   -0.273339   -1.099698
     14          6           0      -11.424243    0.858799   -0.820832
     15          6           0       11.371335   -0.204354    2.541344
     16          6           0       10.421874   -2.347277    1.302825
     17          6           0      -11.813540   -0.938575    2.214556
     18          6           0      -12.473721   -2.480346    0.365330
     19          6           0        9.639911    0.511719    0.184684
     20          6           0       -9.970835   -1.004933   -0.321916
     21          6           0       11.184206    0.384120   -2.423913
     22          6           0      -10.486007    1.551267   -1.788569
     23          6           0        9.303864    1.767134   -0.094995
     24          6           0       -8.712566   -0.579248   -0.268555
     25          6           0        8.077448    2.317411    0.078228
     26          6           0       -7.497871   -1.334440   -0.513997
     27          6           0        8.004183    3.874474    0.340466
     28          6           0       -7.601608   -2.739217   -0.903778
     29          6           0        6.806666    1.561817   -0.032529
     30          6           0       -6.313296   -0.602912   -0.340256
     31          6           0        5.499462    2.222719    0.196595
     32          6           0       -5.041546   -1.058346   -0.537228
     33          6           0        4.476201    1.455176    0.009493
     34          6           0       -3.890985   -0.374711   -0.215915
     35          6           0        3.048468    1.679493    0.127830
     36          6           0       -2.528048   -0.802296   -0.234585
     37          6           0        2.759431    3.075875    0.728017
     38          6           0       -2.319212   -2.129803   -0.626547
     39          6           0        2.131666    0.701775   -0.189025
     40          6           0       -1.631757    0.171884   -0.040322
     41          6           0        0.677525    0.941690   -0.021052
     42          6           0       -0.130486   -0.071239   -0.107457
     43          1           0       13.617779   -0.772488    1.273155
     44          1           0       13.007316   -2.453487    1.888366
     45          1           0      -14.424451   -0.669991    1.266843
     46          1           0      -14.044409   -0.349968   -0.469833
     47          1           0       12.380027   -3.019977   -0.649697
     48          1           0      -13.176550    1.387626    1.557300
     49          1           0       13.606506   -0.118250   -1.305884
     50          1           0       12.881383   -1.531393   -2.472236
     51          1           0      -13.438831    1.778549   -1.500291
     52          1           0      -12.244373    2.807782   -0.259994
     53          1           0       11.789350   -0.805007    3.225087
     54          1           0       10.242721    0.077947    2.793866
     55          1           0       12.160137    0.696634    2.337073
     56          1           0       10.468759   -2.899862    0.359620
     57          1           0       10.615985   -2.996558    2.270450
     58          1           0        9.468112   -2.053199    1.564420
     59          1           0      -11.644938    0.013270    2.490920
     60          1           0      -10.874414   -1.379451    2.260850
     61          1           0      -12.326118   -1.550552    2.981698
     62          1           0      -13.456627   -2.855611    0.813008
     63          1           0      -11.644163   -3.227403    0.513062
     64          1           0      -12.369748   -2.429770   -0.773407
     65          1           0        8.837135    0.032389    0.686332
     66          1           0      -10.018496   -2.044594   -0.495610
     67          1           0       10.103172    0.953011   -2.138023
     68          1           0       11.798535    1.184186   -2.535080
     69          1           0       11.016296   -0.226595   -3.324399
     70          1           0      -11.315402    1.968407   -2.595981
     71          1           0       -9.833426    0.585401   -2.290105
     72          1           0       -9.834805    2.132304   -1.351920
     73          1           0       14.613610   -3.273064    0.092574
     74          1           0      -15.440054    1.491547    1.115286
     75          1           0       10.019893    2.435109   -0.561894
     76          1           0       -8.548726    0.334916    0.088632
     77          1           0        8.376822    4.365883   -0.674007
     78          1           0        7.082291    4.200147    0.626500
     79          1           0        8.671769    4.445267    1.032500
     80          1           0       -8.088678   -3.335508   -0.022765
     81          1           0       -8.120847   -2.908847   -1.765668
     82          1           0       -6.643806   -3.338641   -0.904016
     83          1           0        6.717039    0.562290   -0.442271
     84          1           0       -6.428210    0.411778    0.011228
     85          1           0        5.458666    3.273093    0.630300
     86          1           0       -4.894243   -2.067830   -0.952804
     87          1           0        4.620383    0.529261   -0.456513
     88          1           0       -4.073439    0.731126    0.037687
     89          1           0        3.801034    3.345884    1.446872
     90          1           0        1.720944    3.425514    1.232671
     91          1           0        2.671506    3.784357   -0.366856
     92          1           0       -3.183088   -2.704674   -0.141719
     93          1           0       -2.433272   -2.387128   -1.665339
     94          1           0       -1.293179   -2.461334   -0.096563
     95          1           0        2.438654   -0.285595   -0.609395
     96          1           0       -1.800006    1.216357    0.162109
     97          1           0        0.437737    2.010053    0.172950
     98          1           0        0.245256   -1.039541   -0.181885
 ---------------------------------------------------------------------

 SCF Done:  E(RCAM-B3LYP) =  -1706.93434217     A.U. after   14 cycles

 Excitation energies and oscillator strengths:

 Excited State   1:      Singlet-A      2.8279 eV  438.43 nm  f=3.7053  <S**2>=0.000
     155 ->158         0.22446
     156 ->157         0.66168
 This state for optimization and/or second-order correction.
 Total Energy, E(TD-HF/TD-DFT) =  -1706.83041923
 Copying the excited state density for this state as the 1-particle RhoCI density.

 The electronic state is 1-A.
 Alpha  occ. eigenvalues --  -19.22430 -19.21356 -10.31721 -10.30436 -10.28949
 Alpha  occ. eigenvalues --  -10.28213 -10.28104 -10.28065 -10.27818 -10.27614
 Alpha  occ. eigenvalues --  -10.27288 -10.27217 -10.27178 -10.27056 -10.26793
 Alpha  occ. eigenvalues --  -10.26717 -10.26480 -10.26382 -10.26371 -10.26350
 Alpha  occ. eigenvalues --  -10.26315 -10.26270 -10.26267 -10.26262 -10.26171
 Alpha  occ. eigenvalues --  -10.26027 -10.25905 -10.25859 -10.25812 -10.25789
 Alpha  occ. eigenvalues --  -10.25661 -10.25596 -10.25569 -10.25542 -10.25518
 Alpha  occ. eigenvalues --  -10.25248 -10.25055 -10.24869 -10.24841 -10.24483
 Alpha  occ. eigenvalues --  -10.24389 -10.22769  -1.07896  -1.06837  -0.93920
 Alpha  occ. eigenvalues --   -0.93358  -0.92940  -0.91821  -0.90952  -0.90151
 Alpha  occ. eigenvalues --   -0.88202  -0.86845  -0.86456  -0.85621  -0.84171
 Alpha  occ. eigenvalues --   -0.83136  -0.82277  -0.80233  -0.79611  -0.77835
 Alpha  occ. eigenvalues --   -0.77176  -0.76755  -0.76647  -0.76513  -0.75437
 Alpha  occ. eigenvalues --   -0.74344  -0.73878  -0.73765  -0.73692  -0.70482
 Alpha  occ. eigenvalues --   -0.69345  -0.66835  -0.65225  -0.64633  -0.63946
 Alpha  occ. eigenvalues --   -0.63564  -0.62834  -0.62670  -0.60823  -0.60532
 Alpha  occ. eigenvalues --   -0.59700  -0.58170  -0.57600  -0.57057  -0.56484
 Alpha  occ. eigenvalues --   -0.55484  -0.55076  -0.54484  -0.54021  -0.53746
 Alpha  occ. eigenvalues --   -0.53086  -0.52580  -0.52121  -0.51548  -0.51126
 Alpha  occ. eigenvalues --   -0.50278  -0.50194  -0.49979  -0.49723  -0.49560
 Alpha  occ. eigenvalues --   -0.49147  -0.48931  -0.48715  -0.48453  -0.48046
 Alpha  occ. eigenvalues --   -0.47686  -0.46906  -0.46194  -0.46149  -0.45910
 Alpha  occ. eigenvalues --   -0.45795  -0.45659  -0.45152  -0.45082  -0.44911
 Alpha  occ. eigenvalues --   -0.44826  -0.44694  -0.44562  -0.44315  -0.43653
 Alpha  occ. eigenvalues --   -0.42973  -0.42668  -0.42250  -0.42011  -0.41810
 Alpha  occ. eigenvalues --   -0.41699  -0.41480  -0.41248  -0.40951  -0.40218
 Alpha  occ. eigenvalues --   -0.40133  -0.40030  -0.39762  -0.39216  -0.39125
 Alpha  occ. eigenvalues --   -0.38701  -0.38520  -0.38498  -0.38117  -0.37991
 Alpha  occ. eigenvalues --   -0.37615  -0.37251  -0.36754  -0.36468  -0.36139
 Alpha  occ. eigenvalues --   -0.35578  -0.34485  -0.33169  -0.32461  -0.32256
 Alpha  occ. eigenvalues --   -0.31332  -0.30247  -0.28511  -0.26778  -0.23133
 Alpha  occ. eigenvalues --   -0.20899
 Alpha virt. eigenvalues --   -0.03875  -0.01011   0.03052   0.05860   0.08333
 Alpha virt. eigenvalues --    0.09494   0.10764   0.10879   0.11477   0.11778
 Alpha virt. eigenvalues --    0.12251   0.12416   0.12924   0.13103   0.13588

 Mulliken charges:
               1
     1  O   -0.548105
     2  O   -0.565386
     3  C   -0.037934
     4  C   -0.009818
     5  C   -0.184323
     6  C   -0.207332
     7  C    0.148299
     8  C    0.179797
     9  C    0.103612
    10  C    0.057992
    11  C   -0.189859
    12  C   -0.216286
    13  C    0.014086
    14  C    0.037010
    15  C   -0.280148
    16  C   -0.296899
    17  C   -0.301533
    18  C   -0.310469
    19  C   -0.128288
    20  C   -0.143816
    21  C   -0.352219
    22  C   -0.328104
    23  C   -0.077500
    24  C   -0.066846
    25  C    0.047242
    26  C    0.116268
    27  C   -0.356507
    28  C   -0.386376
    29  C   -0.138426
    30  C   -0.119675
    31  C   -0.065170
    32  C   -0.093343
    33  C   -0.106275
    34  C   -0.120255
    35  C    0.121480
    36  C    0.157546
    37  C   -0.342881
    38  C   -0.384086
    39  C   -0.158390
    40  C   -0.129264
    41  C   -0.060673
    42  C   -0.085034
    43  H    0.074534
    44  H    0.064622
    45  H    0.082562
    46  H    0.093350
    47  H    0.068318
    48  H    0.082032
    49  H    0.117505
    50  H    0.097877
    51  H    0.085044
    52  H    0.113075
    53  H    0.116865
    54  H    0.092296
    55  H    0.095835
    56  H    0.116163
    57  H    0.085839
    58  H    0.113372
    59  H    0.110367
    60  H    0.111588
    61  H    0.093363
    62  H    0.099192
    63  H    0.100890
    64  H    0.100190
    65  H    0.082233
    66  H    0.065403
    67  H    0.078145
    68  H    0.129631
    69  H    0.118921
    70  H    0.095492
    71  H    0.089541
    72  H    0.137327
    73  H    0.301014
    74  H    0.302643
    75  H    0.084090
    76  H    0.062889
    77  H    0.102982
    78  H    0.116697
    79  H    0.114243
    80  H    0.108747
    81  H    0.137627
    82  H    0.106210
    83  H    0.096555
    84  H    0.079904
    85  H    0.091681
    86  H    0.073515
    87  H    0.073759
    88  H    0.068400
    89  H    0.093734
    90  H    0.106547
    91  H    0.086320
    92  H    0.108410
    93  H    0.140522
    94  H    0.095371
    95  H    0.088139
    96  H    0.088818
    97  H    0.086175
    98  H    0.081321
 Sum of Mulliken charges =  -0.00000

 Dipole moment (field-independent basis, Debye):
    X=              0.5083    Y=             -2.1168    Z=              1.8343  Tot=              2.8467
 Quadrupole moment (field-independent basis, Debye-Ang):
   XX=           -298.3835   YY=           -246.5005   ZZ=           -262.8488
   XY=             20.1028   XZ=             -0.6022   YZ=              0.1929

 Normal termination of Gaussian 16 at Mon Jul  1 05:41:32 2019.
