 Gaussian 16, Revision A.03,
 Gaussian 16:  ES64L-G16RevA.03 25-Dec-2016

 -------------------------------------
 # td=(NStates=1) CAM-B3LYP/6-31G(d,p)
 -------------------------------------

 --
 TD
 --
 Symbolic Z-matrix:
 Charge =  0 Multiplicity = 1

                         Standard orientation:
 ---------------------------------------------------------------------
 Center     Atomic      Atomic             Coordinates (Angstroms)
 Number     Number       Type             X           Y           Z
 ---------------------------------------------------------------------
      1          8           0       14.740090   -2.068982   -0.355398
      2          8           0      -14.695345    1.906303    0.722567
      3          6           0       11.451502   -1.124615    1.257059
      4          6           0      -12.277738   -1.060462    0.734775
      5          6           0       12.895776   -1.470611    1.025164
      6          6           0      -13.638983   -0.266644    0.722488
      7          6           0       13.391147   -2.005529   -0.356053
      8          6           0      -13.522531    1.197876    0.754552
      9          6           0       10.935256   -0.320195    0.021459
     10          6           0      -11.272986   -0.331078   -0.303274
     11          6           0       13.009674   -1.088269   -1.397689
     12          6           0      -12.833071    1.686308   -0.537474
     13          6           0       11.560692   -0.384010   -1.207205
     14          6           0      -11.660136    0.800477   -0.863964
     15          6           0       11.198456   -0.315383    2.475237
     16          6           0       10.648512   -2.378736    1.320921
     17          6           0      -11.670335   -1.021894    2.177101
     18          6           0      -12.496115   -2.554166    0.506805
     19          6           0        9.656807    0.376818    0.208475
     20          6           0      -10.058313   -0.988526   -0.521786
     21          6           0       11.116204    0.440212   -2.487427
     22          6           0      -10.620962    1.582805   -1.826578
     23          6           0        9.385175    1.617256   -0.180619
     24          6           0       -8.882125   -0.570452   -0.243901
     25          6           0        8.050627    2.186207   -0.014002
     26          6           0       -7.613890   -1.185354   -0.572709
     27          6           0        8.099972    3.668042    0.350517
     28          6           0       -7.734566   -2.642492   -0.893197
     29          6           0        6.920890    1.504347   -0.082737
     30          6           0       -6.409163   -0.453838   -0.269500
     31          6           0        5.615344    1.990468    0.259610
     32          6           0       -5.088083   -1.048122   -0.520682
     33          6           0        4.460639    1.237136    0.203113
     34          6           0       -4.006303   -0.202342   -0.296792
     35          6           0        3.065299    1.756848    0.303911
     36          6           0       -2.642775   -0.700480   -0.471928
     37          6           0        2.818259    3.061945    0.743952
     38          6           0       -2.373712   -2.031353   -0.894480
     39          6           0        2.099502    0.818886   -0.006128
     40          6           0       -1.626981    0.207967   -0.214618
     41          6           0        0.688989    0.970011    0.057877
     42          6           0       -0.257171    0.025881   -0.331979
     43          1           0       13.338209   -0.555026    1.215992
     44          1           0       13.290352   -2.191266    1.608808
     45          1           0      -14.276835   -0.626204    1.408997
     46          1           0      -14.100348   -0.557304   -0.320878
     47          1           0       13.000700   -2.928325   -0.435063
     48          1           0      -12.973262    1.454312    1.518031
     49          1           0       13.713221   -0.224767   -1.288097
     50          1           0       13.121329   -1.586611   -2.365820
     51          1           0      -13.774977    1.635204   -1.258160
     52          1           0      -12.574033    2.598497   -0.181879
     53          1           0       11.655289   -0.853610    3.360470
     54          1           0       10.279877    0.265440    2.580177
     55          1           0       11.944160    0.639464    2.497995
     56          1           0       10.745268   -3.108811    0.377546
     57          1           0       10.883507   -2.923802    2.277162
     58          1           0        9.517619   -1.946268    1.391435
     59          1           0      -11.605378    0.037151    2.734513
     60          1           0      -10.651707   -1.373224    2.264830
     61          1           0      -12.467764   -1.473435    2.877825
     62          1           0      -13.396654   -2.691434    1.183193
     63          1           0      -11.593301   -3.071080    0.620127
     64          1           0      -12.751073   -2.759157   -0.604018
     65          1           0        8.867350   -0.202280    0.632955
     66          1           0      -10.254621   -1.975126   -0.860612
     67          1           0       10.034201    0.895500   -2.412473
     68          1           0       11.858489    1.395443   -2.683152
     69          1           0       11.183893   -0.229185   -3.310800
     70          1           0      -11.508580    2.144937   -2.584274
     71          1           0       -9.931080    0.772184   -2.309814
     72          1           0      -10.181424    2.346969   -1.306502
     73          1           0       15.154072   -2.570978    0.451437
     74          1           0      -15.277350    1.651624    1.580650
     75          1           0       10.176589    2.237597   -0.688693
     76          1           0       -8.785853    0.474013    0.167623
     77          1           0        9.063104    3.962866   -0.364090
     78          1           0        7.086553    4.155745    0.337636
     79          1           0        8.488078    3.988373    1.307519
     80          1           0       -8.418215   -3.083766   -0.053773
     81          1           0       -8.078903   -2.976383   -1.820730
     82          1           0       -6.718479   -3.285966   -0.612185
     83          1           0        6.787241    0.467259   -0.371721
     84          1           0       -6.593439    0.515341    0.133953
     85          1           0        5.446297    2.991158    0.701307
     86          1           0       -5.182602   -1.925879   -0.951469
     87          1           0        4.659124    0.075841    0.078827
     88          1           0       -4.096767    0.872845   -0.000862
     89          1           0        3.475837    3.492961    1.439709
     90          1           0        1.715111    3.076101    0.973741
     91          1           0        3.052952    3.787518   -0.260528
     92          1           0       -2.758540   -2.834939   -0.094336
     93          1           0       -2.970470   -2.240607   -1.904494
     94          1           0       -1.331825   -2.244190   -0.974472
     95          1           0        2.404835   -0.210935   -0.348634
     96          1           0       -1.943437    1.133778    0.113700
     97          1           0        0.363163    1.967231    0.336185
     98          1           0        0.235839   -0.993012   -0.511923
 ---------------------------------------------------------------------

 SCF Done:  E(RCAM-B3LYP) =  -1706.96898145     A.U. after   14 cycles

 Excitation energies and oscillator strengths:

 Excited State   1:      Singlet-A      2.5326 eV  489.55 nm  f=3.6478  <S**2>=0.000
     155 ->158        -0.15005
     156 ->157         0.68960
 This state for optimization and/or second-order correction.
 Total Energy, E(TD-HF/TD-DFT) =  -1706.87591044
 Copying the excited state density for this state as the 1-particle RhoCI density.

 The electronic state is 1-A.
 Alpha  occ. eigenvalues --  -19.21840 -19.21636 -10.28563 -10.27870 -10.27726
 Alpha  occ. eigenvalues --  -10.27701 -10.27529 -10.27483 -10.27290 -10.27193
 Alpha  occ. eigenvalues --  -10.27084 -10.26959 -10.26921 -10.26887 -10.26868
 Alpha  occ. eigenvalues --  -10.26832 -10.26809 -10.26764 -10.26632 -10.26541
 Alpha  occ. eigenvalues --  -10.26497 -10.26437 -10.26292 -10.26213 -10.26027
 Alpha  occ. eigenvalues --  -10.25969 -10.25938 -10.25928 -10.25718 -10.25704
 Alpha  occ. eigenvalues --  -10.25680 -10.25538 -10.25374 -10.25345 -10.25275
 Alpha  occ. eigenvalues --  -10.25264 -10.25194 -10.24723 -10.24295 -10.24026
 Alpha  occ. eigenvalues --  -10.24008 -10.22603  -1.10960  -1.09762  -0.93661
 Alpha  occ. eigenvalues --   -0.93234  -0.92473  -0.91810  -0.90881  -0.90209
 Alpha  occ. eigenvalues --   -0.87440  -0.86457  -0.86046  -0.85740  -0.85151
 Alpha  occ. eigenvalues --   -0.83170  -0.82417  -0.79656  -0.79489  -0.78821
 Alpha  occ. eigenvalues --   -0.76387  -0.76143  -0.75967  -0.75826  -0.75389
 Alpha  occ. eigenvalues --   -0.74770  -0.74648  -0.74470  -0.73357  -0.70559
 Alpha  occ. eigenvalues --   -0.68857  -0.67436  -0.65914  -0.65007  -0.63904
 Alpha  occ. eigenvalues --   -0.63339  -0.62356  -0.61811  -0.61147  -0.60155
 Alpha  occ. eigenvalues --   -0.59936  -0.59711  -0.59347  -0.58256  -0.56826
 Alpha  occ. eigenvalues --   -0.56365  -0.55887  -0.55430  -0.54870  -0.54493
 Alpha  occ. eigenvalues --   -0.53761  -0.52646  -0.52263  -0.51693  -0.51491
 Alpha  occ. eigenvalues --   -0.50514  -0.50356  -0.50054  -0.49494  -0.49248
 Alpha  occ. eigenvalues --   -0.49051  -0.48476  -0.47927  -0.47818  -0.47660
 Alpha  occ. eigenvalues --   -0.47449  -0.47251  -0.47090  -0.47005  -0.46485
 Alpha  occ. eigenvalues --   -0.45821  -0.45651  -0.45432  -0.45199  -0.44387
 Alpha  occ. eigenvalues --   -0.44137  -0.43989  -0.43836  -0.43734  -0.43449
 Alpha  occ. eigenvalues --   -0.43328  -0.42779  -0.42475  -0.42118  -0.41858
 Alpha  occ. eigenvalues --   -0.41758  -0.41623  -0.41458  -0.41269  -0.40564
 Alpha  occ. eigenvalues --   -0.40237  -0.40102  -0.39584  -0.39168  -0.39138
 Alpha  occ. eigenvalues --   -0.38722  -0.38622  -0.38066  -0.38007  -0.37905
 Alpha  occ. eigenvalues --   -0.37221  -0.36736  -0.36361  -0.36236  -0.35519
 Alpha  occ. eigenvalues --   -0.35031  -0.33529  -0.32732  -0.32636  -0.31855
 Alpha  occ. eigenvalues --   -0.31546  -0.29181  -0.28291  -0.26677  -0.24228
 Alpha  occ. eigenvalues --   -0.20143
 Alpha virt. eigenvalues --   -0.04879  -0.00095   0.02847   0.06188   0.08194
 Alpha virt. eigenvalues --    0.09648   0.10678   0.10842   0.11230   0.11530
 Alpha virt. eigenvalues --    0.12125   0.12314   0.12736   0.13014   0.13630

 Mulliken charges:
               1
     1  O   -0.558628
     2  O   -0.562562
     3  C    0.000836
     4  C   -0.022692
     5  C   -0.193187
     6  C   -0.186160
     7  C    0.204946
     8  C    0.190301
     9  C    0.046316
    10  C    0.071551
    11  C   -0.209933
    12  C   -0.218583
    13  C    0.012142
    14  C    0.015276
    15  C   -0.313810
    16  C   -0.266259
    17  C   -0.295756
    18  C   -0.286541
    19  C   -0.111544
    20  C   -0.150589
    21  C   -0.344469
    22  C   -0.334805
    23  C   -0.119604
    24  C   -0.076672
    25  C    0.079710
    26  C    0.095566
    27  C   -0.352014
    28  C   -0.380067
    29  C   -0.101163
    30  C   -0.118346
    31  C   -0.086750
    32  C   -0.070373
    33  C   -0.134748
    34  C   -0.115676
    35  C    0.135897
    36  C    0.143348
    37  C   -0.371802
    38  C   -0.374469
    39  C   -0.118482
    40  C   -0.114867
    41  C   -0.091845
    42  C   -0.096036
    43  H    0.099288
    44  H    0.062155
    45  H    0.070438
    46  H    0.078990
    47  H    0.074236
    48  H    0.079176
    49  H    0.125661
    50  H    0.101131
    51  H    0.115376
    52  H    0.120993
    53  H    0.098125
    54  H    0.129505
    55  H    0.075140
    56  H    0.091829
    57  H    0.093270
    58  H    0.072093
    59  H    0.072666
    60  H    0.115991
    61  H    0.086087
    62  H    0.102349
    63  H    0.113762
    64  H    0.088278
    65  H    0.100753
    66  H    0.084096
    67  H    0.114238
    68  H    0.091382
    69  H    0.116730
    70  H    0.062077
    71  H    0.112732
    72  H    0.128284
    73  H    0.309097
    74  H    0.297924
    75  H    0.098056
    76  H    0.074883
    77  H    0.086351
    78  H    0.109115
    79  H    0.128115
    80  H    0.114139
    81  H    0.135739
    82  H    0.083141
    83  H    0.080709
    84  H    0.083512
    85  H    0.067008
    86  H    0.085799
    87  H    0.075257
    88  H    0.095521
    89  H    0.135581
    90  H    0.112627
    91  H    0.097688
    92  H    0.103856
    93  H    0.107453
    94  H    0.116163
    95  H    0.078423
    96  H    0.073785
    97  H    0.074939
    98  H    0.080834
 Sum of Mulliken charges =  -0.00000

 Dipole moment (field-independent basis, Debye):
    X=              1.2124    Y=             -1.4436    Z=              3.0654  Tot=              3.5987
 Quadrupole moment (field-independent basis, Debye-Ang):
   XX=           -259.0677   YY=           -248.0944   ZZ=           -262.0909
   XY=              6.0847   XZ=             -6.2586   YZ=              5.9635

 Normal termination of Gaussian 16 at Tue Jul  2 13:56:07 2019.
