 Gaussian 16, Revision A.03,
 Gaussian 16:  ES64L-G16RevA.03 25-Dec-2016

 -------------------------------------
 # td=(NStates=1) CAM-B3LYP/6-31G(d,p)
 -------------------------------------

 --
 TD
 --
 Symbolic Z-matrix:
 Charge =  0 Multiplicity = 1

                         Standard orientation:
 ---------------------------------------------------------------------
 Center     Atomic      Atomic             Coordinates (Angstroms)
 Number     Number       Type             X           Y           Z
 ---------------------------------------------------------------------
      1          8           0       14.696449   -2.333549   -0.298372
      2          8           0      -14.797728    1.904591    0.830566
      3          6           0       11.470823   -1.042898    1.258898
      4          6           0      -12.280588   -0.923122    0.853615
      5          6           0       12.989848   -1.451289    1.101741
      6          6           0      -13.584983   -0.257129    0.876819
      7          6           0       13.337741   -1.970176   -0.159995
      8          6           0      -13.500045    1.300428    0.848321
      9          6           0       11.023624   -0.320704   -0.005421
     10          6           0      -11.356638   -0.369196   -0.221701
     11          6           0       13.091717   -0.963240   -1.246492
     12          6           0      -12.806954    1.649005   -0.473702
     13          6           0       11.696425   -0.294367   -1.155940
     14          6           0      -11.603442    0.809590   -0.840561
     15          6           0       11.242980   -0.204342    2.434647
     16          6           0       10.531580   -2.422500    1.479124
     17          6           0      -11.610746   -1.027315    2.326799
     18          6           0      -12.574916   -2.515037    0.493473
     19          6           0        9.672195    0.269495    0.128805
     20          6           0      -10.091210   -1.060099   -0.448366
     21          6           0       11.245278    0.407950   -2.469383
     22          6           0      -10.792625    1.381470   -2.000819
     23          6           0        9.312559    1.498869   -0.269872
     24          6           0       -8.874342   -0.540730   -0.314236
     25          6           0        8.016791    2.157791   -0.005683
     26          6           0       -7.653703   -1.216876   -0.589337
     27          6           0        8.196889    3.572669    0.450870
     28          6           0       -7.667353   -2.718516   -0.861165
     29          6           0        6.860636    1.555176   -0.016740
     30          6           0       -6.441575   -0.554334   -0.462226
     31          6           0        5.577936    2.073560    0.166835
     32          6           0       -5.106555   -1.108417   -0.560594
     33          6           0        4.456548    1.400299   -0.093931
     34          6           0       -4.066296   -0.347645   -0.352289
     35          6           0        3.074271    1.731946    0.145997
     36          6           0       -2.565778   -0.630574   -0.580367
     37          6           0        2.803591    3.168277    0.785105
     38          6           0       -2.350024   -1.956132   -1.065141
     39          6           0        2.065455    0.898090   -0.093424
     40          6           0       -1.690210    0.302456   -0.265557
     41          6           0        0.686708    1.019038    0.115158
     42          6           0       -0.243486    0.161058   -0.356906
     43          1           0       13.556843   -0.698351    1.299292
     44          1           0       12.999842   -2.249053    1.760975
     45          1           0      -13.975047   -0.656539    1.731149
     46          1           0      -14.142010   -0.635329    0.090096
     47          1           0       12.828293   -2.837186   -0.552971
     48          1           0      -12.968657    1.725760    1.533490
     49          1           0       13.623044   -0.005243   -1.022396
     50          1           0       13.217179   -1.497957   -2.323859
     51          1           0      -13.538894    1.449670   -1.341724
     52          1           0      -12.409906    2.793759   -0.645320
     53          1           0       11.475786   -0.667141    3.254060
     54          1           0       10.365463    0.220152    2.587883
     55          1           0       11.841161    0.685433    2.125699
     56          1           0       10.681569   -3.164472    0.526957
     57          1           0       10.760972   -3.106232    2.352774
     58          1           0        9.442892   -1.842688    1.483980
     59          1           0      -11.449989    0.107577    2.872302
     60          1           0      -10.865157   -1.636732    2.202340
     61          1           0      -12.234841   -1.539349    2.936518
     62          1           0      -13.360909   -2.845232    1.054643
     63          1           0      -11.624238   -3.188316    0.697921
     64          1           0      -13.053177   -2.519341   -0.572785
     65          1           0        8.874375   -0.396601    0.594698
     66          1           0      -10.228195   -2.004464   -0.890864
     67          1           0       10.238123    0.990534   -2.492355
     68          1           0       12.172970    0.983005   -2.846921
     69          1           0       11.045187   -0.328584   -3.286431
     70          1           0      -11.600008    1.849998   -2.615286
     71          1           0      -10.149996    0.661419   -2.371056
     72          1           0      -10.253204    2.222296   -1.625438
     73          1           0       15.048964   -2.798774    0.557143
     74          1           0      -15.184558    1.958542    1.743927
     75          1           0       10.134455    2.164368   -0.777516
     76          1           0       -8.839870    0.521740   -0.030201
     77          1           0        8.968279    3.996664   -0.231978
     78          1           0        7.145876    3.980489    0.476887
     79          1           0        8.683554    3.627075    1.533420
     80          1           0       -8.030411   -3.156720    0.040428
     81          1           0       -8.299347   -3.182402   -1.701213
     82          1           0       -6.714581   -3.218069   -0.919938
     83          1           0        6.879922    0.542173   -0.340615
     84          1           0       -6.436236    0.433009   -0.114395
     85          1           0        5.505600    3.242082    0.326924
     86          1           0       -4.812473   -2.084141   -0.711213
     87          1           0        4.511017    0.522438   -0.420118
     88          1           0       -4.131462    0.790390   -0.077193
     89          1           0        3.358801    3.173675    1.793097
     90          1           0        1.757077    3.236122    0.768751
     91          1           0        2.937678    4.178684    0.059928
     92          1           0       -2.818429   -2.740909   -0.395763
     93          1           0       -2.792685   -2.340407   -2.055427
     94          1           0       -1.391836   -2.283844   -1.218818
     95          1           0        2.460338   -0.097331   -0.325240
     96          1           0       -1.896146    1.130653    0.127543
     97          1           0        0.464392    2.055917    0.438431
     98          1           0        0.080071   -0.865713   -0.659945
 ---------------------------------------------------------------------

 SCF Done:  E(RCAM-B3LYP) =  -1706.93859988     A.U. after   14 cycles

 Excitation energies and oscillator strengths:

 Excited State   1:      Singlet-A      3.0733 eV  403.42 nm  f=3.7037  <S**2>=0.000
     155 ->158         0.18500
     156 ->157         0.67404
 This state for optimization and/or second-order correction.
 Total Energy, E(TD-HF/TD-DFT) =  -1706.82565824
 Copying the excited state density for this state as the 1-particle RhoCI density.

 The electronic state is 1-A.
 Alpha  occ. eigenvalues --  -19.20900 -19.20870 -10.29624 -10.28928 -10.27966
 Alpha  occ. eigenvalues --  -10.27874 -10.27433 -10.27326 -10.27305 -10.27148
 Alpha  occ. eigenvalues --  -10.26929 -10.26752 -10.26740 -10.26691 -10.26425
 Alpha  occ. eigenvalues --  -10.26403 -10.26348 -10.26315 -10.26313 -10.26306
 Alpha  occ. eigenvalues --  -10.26250 -10.26231 -10.26188 -10.25879 -10.25822
 Alpha  occ. eigenvalues --  -10.25798 -10.25518 -10.25383 -10.25356 -10.25328
 Alpha  occ. eigenvalues --  -10.25249 -10.25145 -10.24616 -10.24506 -10.24417
 Alpha  occ. eigenvalues --  -10.24262 -10.24158 -10.24063 -10.23970 -10.23060
 Alpha  occ. eigenvalues --  -10.23012 -10.22054  -1.08453  -1.08151  -0.94053
 Alpha  occ. eigenvalues --   -0.93249  -0.92670  -0.92149  -0.90914  -0.90237
 Alpha  occ. eigenvalues --   -0.87749  -0.86939  -0.86706  -0.86192  -0.85314
 Alpha  occ. eigenvalues --   -0.83668  -0.82539  -0.80600  -0.79975  -0.78895
 Alpha  occ. eigenvalues --   -0.76667  -0.76652  -0.76392  -0.76114  -0.75990
 Alpha  occ. eigenvalues --   -0.75725  -0.74729  -0.74448  -0.73990  -0.70782
 Alpha  occ. eigenvalues --   -0.69383  -0.68140  -0.66430  -0.65014  -0.64583
 Alpha  occ. eigenvalues --   -0.63646  -0.63402  -0.62588  -0.61316  -0.60704
 Alpha  occ. eigenvalues --   -0.59971  -0.59188  -0.58737  -0.57863  -0.56940
 Alpha  occ. eigenvalues --   -0.56575  -0.54994  -0.54632  -0.54441  -0.53763
 Alpha  occ. eigenvalues --   -0.53727  -0.52914  -0.52243  -0.52080  -0.51908
 Alpha  occ. eigenvalues --   -0.50830  -0.50570  -0.50152  -0.49278  -0.49163
 Alpha  occ. eigenvalues --   -0.48731  -0.48580  -0.48459  -0.48085  -0.47560
 Alpha  occ. eigenvalues --   -0.47234  -0.47126  -0.46830  -0.46556  -0.46339
 Alpha  occ. eigenvalues --   -0.45938  -0.45900  -0.45794  -0.45673  -0.44915
 Alpha  occ. eigenvalues --   -0.44734  -0.44491  -0.44383  -0.44288  -0.44134
 Alpha  occ. eigenvalues --   -0.43432  -0.42861  -0.42764  -0.42721  -0.42584
 Alpha  occ. eigenvalues --   -0.42370  -0.42077  -0.41862  -0.41149  -0.41025
 Alpha  occ. eigenvalues --   -0.40672  -0.39910  -0.39722  -0.39342  -0.39070
 Alpha  occ. eigenvalues --   -0.38804  -0.38700  -0.38363  -0.37865  -0.37329
 Alpha  occ. eigenvalues --   -0.37108  -0.36725  -0.36519  -0.36365  -0.35931
 Alpha  occ. eigenvalues --   -0.35112  -0.34753  -0.33758  -0.32662  -0.31974
 Alpha  occ. eigenvalues --   -0.31926  -0.29407  -0.27617  -0.26630  -0.24177
 Alpha  occ. eigenvalues --   -0.21588
 Alpha virt. eigenvalues --   -0.03464   0.00268   0.03408   0.06508   0.08496
 Alpha virt. eigenvalues --    0.09846   0.11021   0.11900   0.12018   0.12098
 Alpha virt. eigenvalues --    0.12609   0.13077   0.13093   0.13662   0.13862

 Mulliken charges:
               1
     1  O   -0.578779
     2  O   -0.572728
     3  C   -0.052010
     4  C   -0.037826
     5  C   -0.173938
     6  C   -0.175595
     7  C    0.203774
     8  C    0.191226
     9  C    0.065518
    10  C    0.061605
    11  C   -0.220771
    12  C   -0.231432
    13  C    0.034138
    14  C    0.042863
    15  C   -0.270633
    16  C   -0.304883
    17  C   -0.279701
    18  C   -0.329437
    19  C   -0.108597
    20  C   -0.155926
    21  C   -0.359079
    22  C   -0.345311
    23  C   -0.134508
    24  C   -0.084246
    25  C    0.071170
    26  C    0.117427
    27  C   -0.342439
    28  C   -0.383468
    29  C   -0.088179
    30  C   -0.137937
    31  C   -0.091941
    32  C   -0.050260
    33  C   -0.073126
    34  C   -0.126146
    35  C    0.088044
    36  C    0.161281
    37  C   -0.351128
    38  C   -0.411851
    39  C   -0.118513
    40  C   -0.089787
    41  C   -0.086734
    42  C   -0.095265
    43  H    0.103347
    44  H    0.089236
    45  H    0.085087
    46  H    0.104620
    47  H    0.078974
    48  H    0.088603
    49  H    0.116435
    50  H    0.098410
    51  H    0.114241
    52  H    0.077981
    53  H    0.102151
    54  H    0.117971
    55  H    0.090876
    56  H    0.086018
    57  H    0.103453
    58  H    0.083848
    59  H    0.065806
    60  H    0.114065
    61  H    0.106385
    62  H    0.112625
    63  H    0.094942
    64  H    0.094388
    65  H    0.091764
    66  H    0.091779
    67  H    0.119977
    68  H    0.104816
    69  H    0.112700
    70  H    0.105219
    71  H    0.126984
    72  H    0.118347
    73  H    0.299993
    74  H    0.305506
    75  H    0.086824
    76  H    0.084091
    77  H    0.111688
    78  H    0.103418
    79  H    0.109526
    80  H    0.127982
    81  H    0.108625
    82  H    0.111010
    83  H    0.075129
    84  H    0.082563
    85  H    0.080719
    86  H    0.074223
    87  H    0.045278
    88  H    0.063778
    89  H    0.124039
    90  H    0.105507
    91  H    0.084461
    92  H    0.119299
    93  H    0.118131
    94  H    0.116014
    95  H    0.070801
    96  H    0.057811
    97  H    0.079788
    98  H    0.077879
 Sum of Mulliken charges =  -0.00000

 Dipole moment (field-independent basis, Debye):
    X=              0.1052    Y=             -1.5371    Z=              2.6987  Tot=              3.1076
 Quadrupole moment (field-independent basis, Debye-Ang):
   XX=           -268.3611   YY=           -246.7139   ZZ=           -256.6117
   XY=              8.7169   XZ=             -2.1213   YZ=              1.0994

 Normal termination of Gaussian 16 at Fri Jun 28 04:37:24 2019.
