 Gaussian 16, Revision A.03,
 Gaussian 16:  ES64L-G16RevA.03 25-Dec-2016

 -------------------------------------
 # td=(NStates=1) CAM-B3LYP/6-31G(d,p)
 -------------------------------------

 --
 TD
 --
 Symbolic Z-matrix:
 Charge =  0 Multiplicity = 1

                         Standard orientation:
 ---------------------------------------------------------------------
 Center     Atomic      Atomic             Coordinates (Angstroms)
 Number     Number       Type             X           Y           Z
 ---------------------------------------------------------------------
      1          8           0      -14.604774   -2.212911    0.638350
      2          8           0       14.813439    1.907784   -0.390254
      3          6           0      -11.523927   -1.140890   -1.151039
      4          6           0       12.294281   -0.836815   -0.797100
      5          6           0      -12.980516   -1.459643   -0.957952
      6          6           0       13.692645   -0.189492   -0.599811
      7          6           0      -13.273910   -1.947352    0.504074
      8          6           0       13.539677    1.251331   -0.414891
      9          6           0      -11.032617   -0.302021    0.060039
     10          6           0       11.370027   -0.371520    0.287695
     11          6           0      -12.930493   -0.981979    1.587300
     12          6           0       12.876366    1.591513    0.872545
     13          6           0      -11.563190   -0.323456    1.304214
     14          6           0       11.711872    0.629653    1.058486
     15          6           0      -11.324354   -0.155804   -2.254963
     16          6           0      -10.614374   -2.389345   -1.341477
     17          6           0       11.797994   -0.489984   -2.276568
     18          6           0       12.534000   -2.365149   -0.676374
     19          6           0       -9.626921    0.244053   -0.219261
     20          6           0       10.029890   -1.139794    0.481151
     21          6           0      -10.980689    0.353563    2.511642
     22          6           0       10.770955    1.071604    2.245162
     23          6           0       -9.345463    1.574526    0.088730
     24          6           0        8.869474   -0.429820    0.494790
     25          6           0       -8.035465    2.178663   -0.204265
     26          6           0        7.573822   -1.244806    0.394134
     27          6           0       -8.218770    3.707644   -0.459051
     28          6           0        7.561402   -2.838663    0.543253
     29          6           0       -6.868137    1.545420   -0.030743
     30          6           0        6.390464   -0.587244    0.291371
     31          6           0       -5.512852    2.174362   -0.259619
     32          6           0        4.954146   -1.110329    0.248296
     33          6           0       -4.430093    1.406937   -0.148755
     34          6           0        3.892113   -0.370525    0.099607
     35          6           0       -3.057824    1.814081   -0.195918
     36          6           0        2.550295   -0.776983    0.143391
     37          6           0       -2.858227    3.294402   -0.547925
     38          6           0        2.260605   -2.141535    0.433356
     39          6           0       -2.125516    0.825600   -0.169193
     40          6           0        1.638379    0.202192   -0.176258
     41          6           0       -0.722563    1.094962   -0.248241
     42          6           0        0.182688    0.005564   -0.129809
     43          1           0      -13.767096   -0.577518   -0.993720
     44          1           0      -13.430577   -2.367958   -1.683640
     45          1           0       14.403044   -0.413873   -1.578455
     46          1           0       13.898734   -0.673893    0.244509
     47          1           0      -12.795394   -2.928129    0.673351
     48          1           0       12.973804    1.439752   -1.356353
     49          1           0      -13.765855   -0.387805    1.679203
     50          1           0      -12.662898   -1.376132    2.714698
     51          1           0       13.564226    1.458258    1.662539
     52          1           0       12.658517    2.796586    0.921375
     53          1           0      -11.700684   -0.633999   -3.303395
     54          1           0      -10.236055    0.102391   -2.366357
     55          1           0      -11.645391    0.776733   -2.274642
     56          1           0      -10.705268   -2.949665   -0.423623
     57          1           0      -10.893609   -2.950556   -2.170436
     58          1           0       -9.572153   -2.162049   -1.545753
     59          1           0       11.671514    0.501206   -2.240621
     60          1           0       10.847133   -1.023114   -2.603088
     61          1           0       12.372260   -0.824710   -3.024564
     62          1           0       12.958079   -2.901917   -1.639074
     63          1           0       11.449166   -2.939598   -0.598710
     64          1           0       13.061451   -2.603016    0.323799
     65          1           0       -8.949853   -0.391238   -0.548402
     66          1           0        9.897252   -2.236407    0.626377
     67          1           0       -9.837324    0.382495    2.137000
     68          1           0      -11.407270    1.341659    2.548922
     69          1           0      -11.064109   -0.426774    3.308456
     70          1           0       11.535302    1.466254    2.944573
     71          1           0       10.188539    0.400200    2.764584
     72          1           0       10.342094    2.051055    1.899772
     73          1           0      -14.972742   -2.958967    0.186472
     74          1           0       15.405821    1.627764   -1.168364
     75          1           0      -10.167294    2.196472    0.454411
     76          1           0        8.854273    0.571041    0.200561
     77          1           0       -8.585842    4.169650    0.592191
     78          1           0       -7.229052    4.074986   -0.568658
     79          1           0       -8.965902    3.874643   -1.438183
     80          1           0        8.096979   -3.355499   -0.269541
     81          1           0        8.105095   -3.038556    1.419089
     82          1           0        6.548367   -3.133793    0.493780
     83          1           0       -6.900217    0.662051    0.253700
     84          1           0        6.310052    0.518176   -0.003864
     85          1           0       -5.619209    3.160710   -0.628373
     86          1           0        4.635356   -2.235099    0.537307
     87          1           0       -4.484529    0.186485    0.219967
     88          1           0        4.284977    0.801535    0.059743
     89          1           0       -3.487017    3.423302   -1.423768
     90          1           0       -1.819928    3.464974   -0.774850
     91          1           0       -3.264907    3.903429    0.138937
     92          1           0        2.712585   -2.835465   -0.310754
     93          1           0        2.686327   -2.574765    1.361092
     94          1           0        1.224451   -2.510995    0.495840
     95          1           0       -2.528167   -0.138436    0.129597
     96          1           0        1.927696    1.109739   -0.200611
     97          1           0       -0.374839    2.167951   -0.265540
     98          1           0       -0.240376   -0.876064    0.086585
 ---------------------------------------------------------------------

 SCF Done:  E(RCAM-B3LYP) =  -1706.93473621     A.U. after   14 cycles

 Excitation energies and oscillator strengths:

 Excited State   1:      Singlet-A      2.9101 eV  426.05 nm  f=3.4840  <S**2>=0.000
     155 ->158         0.15482
     156 ->157         0.68522
 This state for optimization and/or second-order correction.
 Total Energy, E(TD-HF/TD-DFT) =  -1706.82779191
 Copying the excited state density for this state as the 1-particle RhoCI density.

 The electronic state is 1-A.
 Alpha  occ. eigenvalues --  -19.20678 -19.19983 -10.29700 -10.29554 -10.28119
 Alpha  occ. eigenvalues --  -10.27798 -10.27394 -10.27290 -10.27273 -10.27126
 Alpha  occ. eigenvalues --  -10.27087 -10.27039 -10.27039 -10.26934 -10.26788
 Alpha  occ. eigenvalues --  -10.26730 -10.26727 -10.26677 -10.26585 -10.26478
 Alpha  occ. eigenvalues --  -10.26271 -10.26204 -10.26192 -10.26133 -10.26089
 Alpha  occ. eigenvalues --  -10.26075 -10.25944 -10.25900 -10.25860 -10.25520
 Alpha  occ. eigenvalues --  -10.25489 -10.25384 -10.25140 -10.25099 -10.25086
 Alpha  occ. eigenvalues --  -10.24686 -10.24550 -10.24504 -10.24228 -10.24162
 Alpha  occ. eigenvalues --  -10.23581 -10.23190  -1.10754  -1.07673  -0.94258
 Alpha  occ. eigenvalues --   -0.93222  -0.92799  -0.91854  -0.89953  -0.89214
 Alpha  occ. eigenvalues --   -0.86963  -0.86825  -0.86329  -0.85111  -0.84292
 Alpha  occ. eigenvalues --   -0.82894  -0.81743  -0.79835  -0.79488  -0.79151
 Alpha  occ. eigenvalues --   -0.77310  -0.76991  -0.76857  -0.76249  -0.75669
 Alpha  occ. eigenvalues --   -0.75221  -0.75012  -0.74774  -0.74141  -0.70372
 Alpha  occ. eigenvalues --   -0.68522  -0.67196  -0.65663  -0.65226  -0.64043
 Alpha  occ. eigenvalues --   -0.63373  -0.63099  -0.62775  -0.60536  -0.59846
 Alpha  occ. eigenvalues --   -0.59506  -0.59286  -0.58888  -0.58183  -0.56743
 Alpha  occ. eigenvalues --   -0.55345  -0.55043  -0.54474  -0.53909  -0.53290
 Alpha  occ. eigenvalues --   -0.52968  -0.52498  -0.51960  -0.51394  -0.51127
 Alpha  occ. eigenvalues --   -0.51118  -0.50547  -0.50365  -0.49902  -0.49505
 Alpha  occ. eigenvalues --   -0.49268  -0.48838  -0.48699  -0.48489  -0.48122
 Alpha  occ. eigenvalues --   -0.47951  -0.47663  -0.47408  -0.46080  -0.46007
 Alpha  occ. eigenvalues --   -0.45841  -0.45471  -0.45159  -0.45065  -0.44603
 Alpha  occ. eigenvalues --   -0.44331  -0.44190  -0.44089  -0.43881  -0.43641
 Alpha  occ. eigenvalues --   -0.43391  -0.43261  -0.42841  -0.42683  -0.41754
 Alpha  occ. eigenvalues --   -0.41666  -0.41457  -0.41190  -0.41038  -0.40788
 Alpha  occ. eigenvalues --   -0.40178  -0.40131  -0.39951  -0.39897  -0.39344
 Alpha  occ. eigenvalues --   -0.38948  -0.38417  -0.38260  -0.38001  -0.37561
 Alpha  occ. eigenvalues --   -0.37319  -0.36986  -0.36242  -0.35765  -0.35404
 Alpha  occ. eigenvalues --   -0.34860  -0.34258  -0.33242  -0.31798  -0.31414
 Alpha  occ. eigenvalues --   -0.30788  -0.29803  -0.28584  -0.26790  -0.24727
 Alpha  occ. eigenvalues --   -0.21025
 Alpha virt. eigenvalues --   -0.03736   0.00744   0.03088   0.06163   0.08255
 Alpha virt. eigenvalues --    0.09135   0.10650   0.11312   0.11428   0.11479
 Alpha virt. eigenvalues --    0.11723   0.12671   0.13220   0.13388   0.13490

 Mulliken charges:
               1
     1  O   -0.563533
     2  O   -0.586939
     3  C    0.009924
     4  C   -0.054745
     5  C   -0.181122
     6  C   -0.158206
     7  C    0.180018
     8  C    0.206544
     9  C    0.048300
    10  C    0.071600
    11  C   -0.182850
    12  C   -0.217683
    13  C    0.001446
    14  C    0.020864
    15  C   -0.285648
    16  C   -0.306972
    17  C   -0.305929
    18  C   -0.296654
    19  C   -0.129542
    20  C   -0.133180
    21  C   -0.343771
    22  C   -0.345500
    23  C   -0.099444
    24  C   -0.064792
    25  C    0.042482
    26  C    0.063107
    27  C   -0.343754
    28  C   -0.368115
    29  C   -0.045206
    30  C   -0.144231
    31  C   -0.110449
    32  C   -0.092332
    33  C   -0.103336
    34  C   -0.098871
    35  C    0.102560
    36  C    0.153713
    37  C   -0.362921
    38  C   -0.420504
    39  C   -0.117963
    40  C   -0.093890
    41  C   -0.101016
    42  C   -0.086524
    43  H    0.097658
    44  H    0.049868
    45  H    0.060592
    46  H    0.096225
    47  H    0.066079
    48  H    0.069934
    49  H    0.127918
    50  H    0.070590
    51  H    0.136957
    52  H    0.101602
    53  H    0.055382
    54  H    0.096942
    55  H    0.116484
    56  H    0.110222
    57  H    0.111328
    58  H    0.105839
    59  H    0.114997
    60  H    0.091019
    61  H    0.109298
    62  H    0.093662
    63  H    0.069871
    64  H    0.098880
    65  H    0.093329
    66  H    0.095519
    67  H    0.106994
    68  H    0.128749
    69  H    0.104308
    70  H    0.092317
    71  H    0.127355
    72  H    0.112129
    73  H    0.301698
    74  H    0.301701
    75  H    0.094986
    76  H    0.098499
    77  H    0.109191
    78  H    0.107399
    79  H    0.105269
    80  H    0.118968
    81  H    0.129345
    82  H    0.120968
    83  H    0.043832
    84  H    0.074810
    85  H    0.086909
    86  H    0.061362
    87  H    0.057806
    88  H    0.063128
    89  H    0.126193
    90  H    0.106032
    91  H    0.133916
    92  H    0.126695
    93  H    0.128784
    94  H    0.115645
    95  H    0.083913
    96  H    0.067881
    97  H    0.091880
    98  H    0.076206
 Sum of Mulliken charges =  -0.00000

 Dipole moment (field-independent basis, Debye):
    X=              0.0943    Y=             -1.7524    Z=             -1.2399  Tot=              2.1487
 Quadrupole moment (field-independent basis, Debye-Ang):
   XX=           -275.0460   YY=           -242.1423   ZZ=           -263.6394
   XY=             -6.4384   XZ=             -5.8452   YZ=             -0.7013

 Normal termination of Gaussian 16 at Wed Jul 10 11:18:27 2019.
