 Gaussian 16, Revision A.03,
 Gaussian 16:  ES64L-G16RevA.03 25-Dec-2016

 -------------------------------------
 # td=(NStates=1) CAM-B3LYP/6-31G(d,p)
 -------------------------------------

 --
 TD
 --
 Symbolic Z-matrix:
 Charge =  0 Multiplicity = 1

                         Standard orientation:
 ---------------------------------------------------------------------
 Center     Atomic      Atomic             Coordinates (Angstroms)
 Number     Number       Type             X           Y           Z
 ---------------------------------------------------------------------
      1          8           0       14.881306   -2.135227   -0.375670
      2          8           0      -14.780819    2.065248    0.592371
      3          6           0       11.588269   -1.043242    1.290670
      4          6           0      -12.317347   -0.857854    0.956377
      5          6           0       13.093465   -1.373231    1.051744
      6          6           0      -13.686096   -0.136136    0.859375
      7          6           0       13.430280   -1.831083   -0.345976
      8          6           0      -13.555044    1.426023    0.665883
      9          6           0       10.990002   -0.318542   -0.038388
     10          6           0      -11.393951   -0.342957   -0.162747
     11          6           0       13.043635   -0.717604   -1.362250
     12          6           0      -12.940471    1.555724   -0.642909
     13          6           0       11.694846   -0.186229   -1.126506
     14          6           0      -11.681842    0.772971   -0.902525
     15          6           0       11.425549   -0.189848    2.547199
     16          6           0       10.783471   -2.337174    1.388114
     17          6           0      -11.586674   -0.668453    2.336661
     18          6           0      -12.562724   -2.511558    0.859608
     19          6           0        9.691834    0.250076    0.153048
     20          6           0      -10.139299   -1.084413   -0.341164
     21          6           0       11.156184    0.382997   -2.456298
     22          6           0      -10.922564    1.323716   -2.068814
     23          6           0        9.364617    1.579246   -0.000376
     24          6           0       -8.956110   -0.523345   -0.178282
     25          6           0        8.061913    2.223347    0.116226
     26          6           0       -7.630879   -1.249763   -0.429870
     27          6           0        8.162064    3.697500    0.573232
     28          6           0       -7.744915   -2.730997   -0.961524
     29          6           0        6.906325    1.503403   -0.158859
     30          6           0       -6.480467   -0.568716   -0.399547
     31          6           0        5.512612    2.032163    0.114091
     32          6           0       -5.142311   -1.090349   -0.581229
     33          6           0        4.419832    1.266025   -0.201425
     34          6           0       -4.002498   -0.361855   -0.170674
     35          6           0        3.047026    1.576531    0.086683
     36          6           0       -2.613130   -0.820010   -0.468885
     37          6           0        2.786595    2.939663    0.713371
     38          6           0       -2.374545   -2.171199   -1.034884
     39          6           0        2.141595    0.633434   -0.174431
     40          6           0       -1.690249    0.069089   -0.234333
     41          6           0        0.652077    0.842638   -0.155398
     42          6           0       -0.220536   -0.082248   -0.381337
     43          1           0       13.626538   -0.503822    1.233446
     44          1           0       13.238607   -2.151491    1.697495
     45          1           0      -14.238421   -0.206689    1.746172
     46          1           0      -14.086729   -0.643728    0.043295
     47          1           0       12.934907   -2.730991   -0.510169
     48          1           0      -13.053279    1.728587    1.550431
     49          1           0       13.784685   -0.030747   -1.161475
     50          1           0       13.152744   -1.081933   -2.287447
     51          1           0      -13.544934    1.152749   -1.335053
     52          1           0      -12.535192    2.571431   -1.078582
     53          1           0       12.042671   -0.554586    3.364162
     54          1           0       10.395090   -0.234293    2.817442
     55          1           0       11.625369    0.799827    2.398332
     56          1           0       10.962198   -3.194297    0.572101
     57          1           0       11.014183   -2.722509    2.453464
     58          1           0        9.856620   -1.939443    1.580621
     59          1           0      -11.426995    0.457991    2.776057
     60          1           0      -10.764610   -1.108398    2.261674
     61          1           0      -12.322068   -1.010387    3.115223
     62          1           0      -13.321295   -2.797739    1.755934
     63          1           0      -11.654974   -2.896628    0.817720
     64          1           0      -13.300688   -2.663683   -0.143091
     65          1           0        9.049740   -0.521194    0.693868
     66          1           0      -10.164856   -2.026107   -0.626090
     67          1           0       10.144146    0.879854   -2.509159
     68          1           0       11.993240    1.097616   -2.940893
     69          1           0       10.995689   -0.492424   -3.104444
     70          1           0      -11.345225    1.709173   -2.939689
     71          1           0      -10.228137    0.667689   -2.328196
     72          1           0      -10.265085    2.171451   -1.693441
     73          1           0       14.926008   -2.815818    0.415628
     74          1           0      -15.299027    1.696921    1.387085
     75          1           0       10.025718    2.352871   -0.375172
     76          1           0       -8.689187    0.618474    0.053862
     77          1           0        8.655372    4.179518   -0.264985
     78          1           0        7.227633    4.116675    0.748564
     79          1           0        8.543382    3.761263    1.719895
     80          1           0       -8.074855   -3.277945   -0.031849
     81          1           0       -8.748045   -2.644876   -1.720695
     82          1           0       -6.746531   -3.085029   -1.281720
     83          1           0        7.136576    0.604133   -0.727040
     84          1           0       -6.599022    0.492292    0.064546
     85          1           0        5.422010    2.899660    0.337142
     86          1           0       -5.236713   -2.016672   -1.039299
     87          1           0        4.587743    0.429419   -0.563202
     88          1           0       -4.278441    0.441032    0.383388
     89          1           0        3.106261    3.124491    1.708288
     90          1           0        1.840784    2.896802    0.888418
     91          1           0        2.959829    3.889314   -0.075555
     92          1           0       -2.639012   -2.818720   -0.215857
     93          1           0       -3.020039   -2.382116   -1.797899
     94          1           0       -1.283289   -2.344970   -1.302925
     95          1           0        2.515410   -0.553356   -0.347696
     96          1           0       -2.070570    1.080301    0.155014
     97          1           0        0.226202    1.966373    0.250292
     98          1           0        0.280727   -1.041920   -0.723457
 ---------------------------------------------------------------------

 SCF Done:  E(RCAM-B3LYP) =  -1706.88275042     A.U. after   13 cycles

 Excitation energies and oscillator strengths:

 Excited State   1:      Singlet-A      3.1992 eV  387.55 nm  f=3.4946  <S**2>=0.000
     155 ->158         0.22426
     156 ->157         0.65652
 This state for optimization and/or second-order correction.
 Total Energy, E(TD-HF/TD-DFT) =  -1706.76518352
 Copying the excited state density for this state as the 1-particle RhoCI density.

 The electronic state is 1-A.
 Alpha  occ. eigenvalues --  -19.21416 -19.21170 -10.29426 -10.29400 -10.28191
 Alpha  occ. eigenvalues --  -10.28142 -10.28022 -10.27498 -10.27446 -10.27424
 Alpha  occ. eigenvalues --  -10.27384 -10.27287 -10.26904 -10.26889 -10.26780
 Alpha  occ. eigenvalues --  -10.26706 -10.26458 -10.26453 -10.26326 -10.26260
 Alpha  occ. eigenvalues --  -10.26243 -10.26163 -10.26144 -10.26054 -10.26029
 Alpha  occ. eigenvalues --  -10.25957 -10.25778 -10.25605 -10.25384 -10.25223
 Alpha  occ. eigenvalues --  -10.25188 -10.24770 -10.24760 -10.24647 -10.24336
 Alpha  occ. eigenvalues --  -10.24010 -10.23781 -10.23727 -10.23712 -10.23542
 Alpha  occ. eigenvalues --  -10.23520 -10.23224  -1.10040  -1.06349  -0.93596
 Alpha  occ. eigenvalues --   -0.93235  -0.92131  -0.91454  -0.90086  -0.89431
 Alpha  occ. eigenvalues --   -0.87803  -0.87127  -0.86678  -0.85920  -0.84902
 Alpha  occ. eigenvalues --   -0.82956  -0.82252  -0.80206  -0.79847  -0.78485
 Alpha  occ. eigenvalues --   -0.77244  -0.77075  -0.76549  -0.76460  -0.75785
 Alpha  occ. eigenvalues --   -0.75673  -0.75333  -0.74977  -0.74182  -0.70558
 Alpha  occ. eigenvalues --   -0.69345  -0.67796  -0.66953  -0.65895  -0.64280
 Alpha  occ. eigenvalues --   -0.63492  -0.62766  -0.62505  -0.60479  -0.59527
 Alpha  occ. eigenvalues --   -0.59374  -0.58618  -0.58047  -0.57063  -0.56148
 Alpha  occ. eigenvalues --   -0.55586  -0.55288  -0.54968  -0.54050  -0.53698
 Alpha  occ. eigenvalues --   -0.52916  -0.52679  -0.52143  -0.51551  -0.51016
 Alpha  occ. eigenvalues --   -0.50900  -0.50552  -0.49936  -0.49894  -0.49755
 Alpha  occ. eigenvalues --   -0.49561  -0.49214  -0.49010  -0.48771  -0.48246
 Alpha  occ. eigenvalues --   -0.47793  -0.47741  -0.47219  -0.47130  -0.46786
 Alpha  occ. eigenvalues --   -0.46594  -0.45817  -0.45582  -0.45511  -0.44954
 Alpha  occ. eigenvalues --   -0.44866  -0.44515  -0.44480  -0.44393  -0.44244
 Alpha  occ. eigenvalues --   -0.43411  -0.43380  -0.43044  -0.42714  -0.42571
 Alpha  occ. eigenvalues --   -0.42152  -0.42035  -0.41591  -0.41419  -0.40906
 Alpha  occ. eigenvalues --   -0.40603  -0.40203  -0.39904  -0.39650  -0.39164
 Alpha  occ. eigenvalues --   -0.39048  -0.38993  -0.38371  -0.38302  -0.37627
 Alpha  occ. eigenvalues --   -0.37563  -0.37023  -0.36389  -0.36328  -0.35842
 Alpha  occ. eigenvalues --   -0.35589  -0.34574  -0.33176  -0.32001  -0.31877
 Alpha  occ. eigenvalues --   -0.31212  -0.29855  -0.27820  -0.26747  -0.24187
 Alpha  occ. eigenvalues --   -0.21832
 Alpha virt. eigenvalues --   -0.02854  -0.00104   0.03445   0.06328   0.08242
 Alpha virt. eigenvalues --    0.09720   0.10785   0.11160   0.11673   0.11802
 Alpha virt. eigenvalues --    0.11968   0.12628   0.13161   0.13304   0.13837

 Mulliken charges:
               1
     1  O   -0.571279
     2  O   -0.550160
     3  C   -0.041004
     4  C   -0.039700
     5  C   -0.175879
     6  C   -0.209190
     7  C    0.136881
     8  C    0.185031
     9  C    0.063563
    10  C    0.048009
    11  C   -0.217011
    12  C   -0.193116
    13  C    0.048067
    14  C    0.042481
    15  C   -0.305904
    16  C   -0.291456
    17  C   -0.269570
    18  C   -0.289751
    19  C   -0.143868
    20  C   -0.171268
    21  C   -0.360244
    22  C   -0.369549
    23  C   -0.079725
    24  C   -0.050666
    25  C    0.036627
    26  C    0.084407
    27  C   -0.356841
    28  C   -0.355272
    29  C   -0.126677
    30  C   -0.141672
    31  C   -0.045752
    32  C   -0.078881
    33  C   -0.056417
    34  C   -0.115284
    35  C    0.111900
    36  C    0.128005
    37  C   -0.347392
    38  C   -0.364935
    39  C   -0.157110
    40  C   -0.140686
    41  C   -0.075212
    42  C   -0.085795
    43  H    0.107431
    44  H    0.077782
    45  H    0.066349
    46  H    0.103908
    47  H    0.081326
    48  H    0.080893
    49  H    0.131244
    50  H    0.116174
    51  H    0.133778
    52  H    0.084359
    53  H    0.103212
    54  H    0.101852
    55  H    0.123390
    56  H    0.103582
    57  H    0.080474
    58  H    0.108986
    59  H    0.072774
    60  H    0.113283
    61  H    0.089306
    62  H    0.096787
    63  H    0.119343
    64  H    0.077035
    65  H    0.087890
    66  H    0.085219
    67  H    0.112941
    68  H    0.092120
    69  H    0.115466
    70  H    0.123666
    71  H    0.121983
    72  H    0.106899
    73  H    0.302914
    74  H    0.300388
    75  H    0.083942
    76  H    0.082000
    77  H    0.129337
    78  H    0.120087
    79  H    0.105546
    80  H    0.125709
    81  H    0.104035
    82  H    0.112250
    83  H    0.090174
    84  H    0.063069
    85  H    0.046326
    86  H    0.065999
    87  H    0.039650
    88  H    0.089032
    89  H    0.128383
    90  H    0.110912
    91  H    0.093724
    92  H    0.128850
    93  H    0.130518
    94  H    0.108530
    95  H    0.080239
    96  H    0.079588
    97  H    0.070897
    98  H    0.080743
 Sum of Mulliken charges =  -0.00000

 Dipole moment (field-independent basis, Debye):
    X=             -1.0891    Y=             -1.6024    Z=              2.1659  Tot=              2.9060
 Quadrupole moment (field-independent basis, Debye-Ang):
   XX=           -297.1071   YY=           -248.4106   ZZ=           -256.2205
   XY=             17.6301   XZ=              2.5725   YZ=              2.3341

 Normal termination of Gaussian 16 at Mon Jul  1 10:21:29 2019.
