 Gaussian 16, Revision A.03,
 Gaussian 16:  ES64L-G16RevA.03 25-Dec-2016

 -------------------------------------
 # td=(NStates=1) CAM-B3LYP/6-31G(d,p)
 -------------------------------------

 --
 TD
 --
 Symbolic Z-matrix:
 Charge =  0 Multiplicity = 1

                         Standard orientation:
 ---------------------------------------------------------------------
 Center     Atomic      Atomic             Coordinates (Angstroms)
 Number     Number       Type             X           Y           Z
 ---------------------------------------------------------------------
      1          8           0       14.737193   -2.242348   -0.647330
      2          8           0      -14.701387    1.918939    0.642446
      3          6           0       11.590321   -1.097877    1.220627
      4          6           0      -12.297872   -0.770680    0.837648
      5          6           0       13.106138   -1.442821    0.903085
      6          6           0      -13.565746   -0.129756    0.931624
      7          6           0       13.330376   -1.893945   -0.513309
      8          6           0      -13.517154    1.354070    0.643173
      9          6           0       10.965623   -0.366260    0.048871
     10          6           0      -11.337113   -0.240515   -0.218537
     11          6           0       13.001981   -0.751278   -1.391868
     12          6           0      -12.822445    1.648740   -0.738765
     13          6           0       11.621033   -0.194691   -1.145828
     14          6           0      -11.618839    0.768843   -0.958599
     15          6           0       11.464385   -0.179897    2.462838
     16          6           0       10.773952   -2.401733    1.560421
     17          6           0      -11.590925   -0.544696    2.298934
     18          6           0      -12.470678   -2.281309    0.700795
     19          6           0        9.722122    0.336647    0.170097
     20          6           0      -10.073290   -1.073814   -0.340697
     21          6           0       11.136153    0.561150   -2.309191
     22          6           0      -10.782452    1.147154   -2.150530
     23          6           0        9.360024    1.656906   -0.044318
     24          6           0       -8.878734   -0.569871   -0.373748
     25          6           0        8.036368    2.200834    0.158037
     26          6           0       -7.690077   -1.305171   -0.528388
     27          6           0        8.066310    3.721150    0.513943
     28          6           0       -7.636331   -2.841847   -0.791826
     29          6           0        6.894013    1.550614    0.005014
     30          6           0       -6.566865   -0.775163   -0.270849
     31          6           0        5.575943    1.988446    0.131461
     32          6           0       -5.231197   -1.159479   -0.476803
     33          6           0        4.434350    1.202424   -0.025533
     34          6           0       -4.119774   -0.354561   -0.382882
     35          6           0        3.031390    1.609851    0.159400
     36          6           0       -2.746769   -0.725946   -0.430188
     37          6           0        2.790817    3.083033    0.508432
     38          6           0       -2.422358   -2.241389   -0.821135
     39          6           0        2.127704    0.731112   -0.066937
     40          6           0       -1.787439    0.146172   -0.021193
     41          6           0        0.597308    0.890309    0.007357
     42          6           0       -0.305960   -0.061071   -0.200473
     43          1           0       13.534083   -0.564892    1.073355
     44          1           0       13.326891   -2.273401    1.645702
     45          1           0      -14.039385   -0.535598    1.842102
     46          1           0      -14.000444   -0.646076    0.051098
     47          1           0       12.564277   -2.672876   -0.582882
     48          1           0      -12.781813    1.949223    1.318140
     49          1           0       13.654932    0.122853   -1.193438
     50          1           0       13.073976   -1.311610   -2.457769
     51          1           0      -13.595563    1.707821   -1.496475
     52          1           0      -12.561087    2.688909   -0.946542
     53          1           0       11.857259   -0.641592    3.248784
     54          1           0       10.384873   -0.164379    2.573604
     55          1           0       11.726521    0.881629    2.206715
     56          1           0       10.904481   -3.256387    0.833854
     57          1           0       11.108008   -3.011406    2.473376
     58          1           0        9.820790   -2.121145    1.541755
     59          1           0      -11.428178    0.527468    2.444165
     60          1           0      -10.644412   -1.095190    2.465876
     61          1           0      -12.190056   -0.827486    3.110297
     62          1           0      -13.219080   -2.639510    1.548726
     63          1           0      -11.505432   -2.838686    0.898217
     64          1           0      -12.898881   -2.781244   -0.306771
     65          1           0        8.813796   -0.402463    0.437350
     66          1           0      -10.045832   -2.017785   -0.712346
     67          1           0       10.003090    0.479603   -2.220778
     68          1           0       11.315399    1.714833   -2.301781
     69          1           0       11.564569    0.090887   -3.137894
     70          1           0      -11.319906    1.424657   -2.949699
     71          1           0       -9.724189    0.607768   -2.302741
     72          1           0      -10.428666    2.363315   -1.868410
     73          1           0       15.117603   -2.701347    0.193750
     74          1           0      -15.218785    1.844924    1.436970
     75          1           0        9.973575    2.216314   -0.422384
     76          1           0       -8.751513    0.382762   -0.009602
     77          1           0        8.900725    4.156457   -0.195634
     78          1           0        7.102549    4.132384    0.275100
     79          1           0        8.246327    3.824909    1.587766
     80          1           0       -8.185709   -3.420631   -0.108964
     81          1           0       -8.152782   -3.333866   -1.680060
     82          1           0       -6.751866   -3.142281   -0.882827
     83          1           0        6.906361    0.447941   -0.329111
     84          1           0       -6.598040    0.253205   -0.082172
     85          1           0        5.472281    3.015403    0.313472
     86          1           0       -4.973229   -2.148468   -0.788048
     87          1           0        4.667368    0.173527    0.068512
     88          1           0       -4.297272    0.529930    0.197683
     89          1           0        3.225570    3.431901    1.518827
     90          1           0        1.784983    3.632754    0.736347
     91          1           0        3.386528    3.632923   -0.207819
     92          1           0       -2.908716   -3.018638   -0.172102
     93          1           0       -2.575934   -2.403915   -1.898236
     94          1           0       -1.458550   -2.609820   -0.540061
     95          1           0        2.562078   -0.327371   -0.168757
     96          1           0       -2.234743    1.075539    0.033758
     97          1           0        0.207228    2.095640   -0.131998
     98          1           0        0.011759   -1.072241   -0.301893
 ---------------------------------------------------------------------

 SCF Done:  E(RCAM-B3LYP) =  -1706.93494311     A.U. after   14 cycles

 Excitation energies and oscillator strengths:

 Excited State   1:      Singlet-A      3.1217 eV  397.17 nm  f=3.6408  <S**2>=0.000
     155 ->158        -0.23116
     156 ->157         0.65867
 This state for optimization and/or second-order correction.
 Total Energy, E(TD-HF/TD-DFT) =  -1706.82022196
 Copying the excited state density for this state as the 1-particle RhoCI density.

 The electronic state is 1-A.
 Alpha  occ. eigenvalues --  -19.21208 -19.21166 -10.30939 -10.29692 -10.28130
 Alpha  occ. eigenvalues --  -10.27720 -10.27617 -10.27317 -10.27134 -10.26939
 Alpha  occ. eigenvalues --  -10.26677 -10.26609 -10.26530 -10.26528 -10.26525
 Alpha  occ. eigenvalues --  -10.26497 -10.26383 -10.26276 -10.26150 -10.26116
 Alpha  occ. eigenvalues --  -10.26016 -10.25918 -10.25874 -10.25816 -10.25797
 Alpha  occ. eigenvalues --  -10.25745 -10.25701 -10.25698 -10.25460 -10.25036
 Alpha  occ. eigenvalues --  -10.25009 -10.25004 -10.24984 -10.24650 -10.24397
 Alpha  occ. eigenvalues --  -10.24052 -10.23988 -10.23957 -10.23941 -10.23861
 Alpha  occ. eigenvalues --  -10.23623 -10.23571  -1.13226  -1.06851  -0.94565
 Alpha  occ. eigenvalues --   -0.94084  -0.93024  -0.91954  -0.90863  -0.90282
 Alpha  occ. eigenvalues --   -0.87840  -0.87475  -0.86789  -0.86154  -0.84943
 Alpha  occ. eigenvalues --   -0.83442  -0.81951  -0.80360  -0.80112  -0.77991
 Alpha  occ. eigenvalues --   -0.77396  -0.76581  -0.76472  -0.76384  -0.75821
 Alpha  occ. eigenvalues --   -0.75703  -0.75665  -0.75137  -0.74918  -0.70928
 Alpha  occ. eigenvalues --   -0.69436  -0.68605  -0.66967  -0.65008  -0.64540
 Alpha  occ. eigenvalues --   -0.63669  -0.63323  -0.61789  -0.61392  -0.60278
 Alpha  occ. eigenvalues --   -0.60165  -0.59573  -0.58738  -0.58270  -0.56916
 Alpha  occ. eigenvalues --   -0.56190  -0.55805  -0.55161  -0.54495  -0.54249
 Alpha  occ. eigenvalues --   -0.53200  -0.52834  -0.52523  -0.52085  -0.51530
 Alpha  occ. eigenvalues --   -0.51033  -0.50417  -0.49882  -0.49550  -0.49268
 Alpha  occ. eigenvalues --   -0.48950  -0.48848  -0.48708  -0.48387  -0.47875
 Alpha  occ. eigenvalues --   -0.47858  -0.47249  -0.46964  -0.46790  -0.46602
 Alpha  occ. eigenvalues --   -0.46455  -0.45924  -0.45538  -0.45225  -0.44921
 Alpha  occ. eigenvalues --   -0.44740  -0.44540  -0.44192  -0.43944  -0.43494
 Alpha  occ. eigenvalues --   -0.42975  -0.42952  -0.42813  -0.42459  -0.42271
 Alpha  occ. eigenvalues --   -0.42055  -0.41967  -0.40996  -0.40878  -0.40515
 Alpha  occ. eigenvalues --   -0.40085  -0.40076  -0.39476  -0.39125  -0.39080
 Alpha  occ. eigenvalues --   -0.38850  -0.38670  -0.38314  -0.38256  -0.38149
 Alpha  occ. eigenvalues --   -0.37600  -0.37453  -0.36515  -0.36156  -0.35737
 Alpha  occ. eigenvalues --   -0.35448  -0.34220  -0.33604  -0.32144  -0.31784
 Alpha  occ. eigenvalues --   -0.31469  -0.29787  -0.28322  -0.27469  -0.24219
 Alpha  occ. eigenvalues --   -0.21930
 Alpha virt. eigenvalues --   -0.03448  -0.00832   0.03537   0.05919   0.08145
 Alpha virt. eigenvalues --    0.09193   0.10512   0.12065   0.12275   0.12561
 Alpha virt. eigenvalues --    0.12728   0.12995   0.13454   0.13565   0.14644

 Mulliken charges:
               1
     1  O   -0.588983
     2  O   -0.536778
     3  C   -0.050268
     4  C   -0.015679
     5  C   -0.192425
     6  C   -0.194946
     7  C    0.204742
     8  C    0.212208
     9  C    0.090054
    10  C    0.050056
    11  C   -0.217248
    12  C   -0.259933
    13  C    0.032588
    14  C    0.104486
    15  C   -0.287619
    16  C   -0.310059
    17  C   -0.321764
    18  C   -0.298464
    19  C   -0.156103
    20  C   -0.117226
    21  C   -0.353008
    22  C   -0.346420
    23  C   -0.038704
    24  C   -0.103839
    25  C    0.047535
    26  C    0.152267
    27  C   -0.359044
    28  C   -0.371273
    29  C   -0.093047
    30  C   -0.139005
    31  C   -0.074065
    32  C   -0.079814
    33  C   -0.148361
    34  C   -0.139823
    35  C    0.174770
    36  C    0.116607
    37  C   -0.382571
    38  C   -0.380211
    39  C   -0.160762
    40  C   -0.136172
    41  C   -0.087090
    42  C   -0.072137
    43  H    0.102131
    44  H    0.069123
    45  H    0.087427
    46  H    0.100214
    47  H    0.083801
    48  H    0.052169
    49  H    0.126132
    50  H    0.095117
    51  H    0.115130
    52  H    0.106959
    53  H    0.107038
    54  H    0.107789
    55  H    0.100815
    56  H    0.093051
    57  H    0.091432
    58  H    0.114624
    59  H    0.101962
    60  H    0.100633
    61  H    0.096138
    62  H    0.078966
    63  H    0.103355
    64  H    0.086733
    65  H    0.071925
    66  H    0.087356
    67  H    0.121853
    68  H    0.106336
    69  H    0.112113
    70  H    0.126891
    71  H    0.120079
    72  H    0.046787
    73  H    0.310676
    74  H    0.307734
    75  H    0.053038
    76  H    0.085153
    77  H    0.100484
    78  H    0.117033
    79  H    0.134364
    80  H    0.123877
    81  H    0.094842
    82  H    0.113184
    83  H    0.068511
    84  H    0.070440
    85  H    0.068421
    86  H    0.082966
    87  H    0.086467
    88  H    0.082990
    89  H    0.109099
    90  H    0.109907
    91  H    0.124804
    92  H    0.111325
    93  H    0.127447
    94  H    0.110596
    95  H    0.075975
    96  H    0.082506
    97  H    0.071217
    98  H    0.090393
 Sum of Mulliken charges =  -0.00000

 Dipole moment (field-independent basis, Debye):
    X=             -0.8266    Y=             -0.6266    Z=              2.3644  Tot=              2.5819
 Quadrupole moment (field-independent basis, Debye-Ang):
   XX=           -255.7074   YY=           -243.5009   ZZ=           -261.1064
   XY=              9.2195   XZ=              4.4417   YZ=             -0.4003

 Normal termination of Gaussian 16 at Sun Jul  7 15:07:48 2019.
