 Gaussian 16, Revision A.03,
 Gaussian 16:  ES64L-G16RevA.03 25-Dec-2016

 -------------------------------------
 # td=(NStates=1) CAM-B3LYP/6-31G(d,p)
 -------------------------------------

 --
 TD
 --
 Symbolic Z-matrix:
 Charge =  0 Multiplicity = 1

                         Standard orientation:
 ---------------------------------------------------------------------
 Center     Atomic      Atomic             Coordinates (Angstroms)
 Number     Number       Type             X           Y           Z
 ---------------------------------------------------------------------
      1          8           0       14.949930   -2.027351   -0.271537
      2          8           0      -14.732746    2.041819    0.882223
      3          6           0       11.627936   -1.005419    1.241344
      4          6           0      -12.368900   -0.953568    0.832732
      5          6           0       13.098657   -1.250541    1.102098
      6          6           0      -13.767595   -0.164073    0.851841
      7          6           0       13.544497   -1.839417   -0.178457
      8          6           0      -13.569120    1.366628    0.875323
      9          6           0       11.076710   -0.295972    0.093017
     10          6           0      -11.431916   -0.255952   -0.158178
     11          6           0       13.158638   -0.833990   -1.278497
     12          6           0      -12.813010    1.756492   -0.456087
     13          6           0       11.745793   -0.323131   -1.097913
     14          6           0      -11.598919    0.981542   -0.735613
     15          6           0       11.320526   -0.135428    2.443715
     16          6           0       10.926671   -2.338973    1.417597
     17          6           0      -11.711805   -0.955670    2.200191
     18          6           0      -12.693566   -2.350337    0.520336
     19          6           0        9.642009    0.287001    0.199387
     20          6           0      -10.164097   -1.055001   -0.429357
     21          6           0       11.213613    0.349918   -2.295990
     22          6           0      -10.746535    1.496032   -1.890275
     23          6           0        9.357467    1.523484   -0.237355
     24          6           0       -8.916843   -0.593269   -0.326221
     25          6           0        7.997338    2.095167   -0.030620
     26          6           0       -7.700421   -1.418354   -0.485290
     27          6           0        8.018676    3.579880    0.300583
     28          6           0       -7.784495   -2.837530   -0.953887
     29          6           0        6.819691    1.427207   -0.137318
     30          6           0       -6.546311   -0.734487   -0.320024
     31          6           0        5.524838    1.904212    0.162568
     32          6           0       -5.168867   -1.170580   -0.631790
     33          6           0        4.352951    1.145237   -0.071799
     34          6           0       -4.095258   -0.338338   -0.446199
     35          6           0        3.090250    1.540378    0.130277
     36          6           0       -2.661163   -0.688995   -0.555186
     37          6           0        2.831861    3.076563    0.621084
     38          6           0       -2.451196   -2.097562   -1.001247
     39          6           0        2.124325    0.713136   -0.168703
     40          6           0       -1.675989    0.224617   -0.304854
     41          6           0        0.660331    0.923812   -0.014411
     42          6           0       -0.252708    0.026684   -0.307195
     43          1           0       13.587662   -0.297874    1.018478
     44          1           0       13.330999   -1.732459    2.106955
     45          1           0      -14.372459   -0.613841    1.736010
     46          1           0      -14.554304   -0.444153    0.111153
     47          1           0       13.011052   -2.863929   -0.193853
     48          1           0      -12.888041    1.745321    1.649173
     49          1           0       13.782752    0.149648   -1.101789
     50          1           0       13.330157   -1.165886   -2.310407
     51          1           0      -13.530730    1.691199   -1.408364
     52          1           0      -12.519652    2.721168   -0.430855
     53          1           0       11.512219   -0.718842    3.445191
     54          1           0       10.170606   -0.034490    2.590550
     55          1           0       11.792712    0.820392    2.469002
     56          1           0       11.307793   -2.956165    0.472165
     57          1           0       11.071665   -2.967858    2.305541
     58          1           0        9.692802   -2.164127    1.507175
     59          1           0      -11.201868    0.088158    2.443276
     60          1           0      -10.761242   -1.502119    2.117651
     61          1           0      -12.080868   -1.456649    3.072289
     62          1           0      -13.492605   -2.731094    1.272483
     63          1           0      -11.791658   -3.081264    0.611353
     64          1           0      -12.949704   -2.385572   -0.443964
     65          1           0        8.986152   -0.476271    0.779908
     66          1           0      -10.426863   -2.230580   -0.491888
     67          1           0       10.195534    0.681334   -2.276320
     68          1           0       11.797487    1.251861   -2.377193
     69          1           0       11.307231   -0.479651   -3.104205
     70          1           0      -11.206521    2.067545   -2.656889
     71          1           0      -10.314839    0.505986   -2.387312
     72          1           0       -9.917565    2.168641   -1.586155
     73          1           0       15.324660   -2.758913    0.342330
     74          1           0      -15.075146    1.855433    1.781518
     75          1           0       10.175989    2.293577   -0.444301
     76          1           0       -8.977719    0.457412   -0.165539
     77          1           0        8.308795    4.316745   -0.678381
     78          1           0        6.841045    3.907804    0.634872
     79          1           0        8.735615    3.899034    1.157775
     80          1           0       -8.260405   -3.542591   -0.063060
     81          1           0       -8.392889   -2.665087   -1.767559
     82          1           0       -6.737432   -3.352973   -1.293743
     83          1           0        7.014765    0.476821   -0.419318
     84          1           0       -6.581025    0.287721    0.155489
     85          1           0        5.412715    3.042205    0.130065
     86          1           0       -4.862633   -2.079856   -1.217124
     87          1           0        4.543164    0.018236   -0.336187
     88          1           0       -4.225742    0.513582    0.041153
     89          1           0        3.474484    3.328162    1.692128
     90          1           0        1.774589    3.200949    0.645633
     91          1           0        3.334195    3.744488   -0.156669
     92          1           0       -2.906612   -2.840726   -0.394607
     93          1           0       -2.803520   -2.232916   -1.977588
     94          1           0       -1.328809   -2.261833   -1.350602
     95          1           0        2.274009   -0.336150   -0.629805
     96          1           0       -2.067946    1.220477    0.053744
     97          1           0        0.286934    1.931591    0.355931
     98          1           0        0.029166   -0.815788   -0.798546
 ---------------------------------------------------------------------

 SCF Done:  E(RCAM-B3LYP) =  -1707.00114745     A.U. after   14 cycles

 Excitation energies and oscillator strengths:

 Excited State   1:      Singlet-A      2.8282 eV  438.38 nm  f=3.7085  <S**2>=0.000
     155 ->158         0.18554
     156 ->157         0.67603
 This state for optimization and/or second-order correction.
 Total Energy, E(TD-HF/TD-DFT) =  -1706.89721278
 Copying the excited state density for this state as the 1-particle RhoCI density.

 The electronic state is 1-A.
 Alpha  occ. eigenvalues --  -19.21654 -19.21578 -10.31288 -10.30382 -10.28404
 Alpha  occ. eigenvalues --  -10.28141 -10.27584 -10.27464 -10.27424 -10.27413
 Alpha  occ. eigenvalues --  -10.27387 -10.26948 -10.26844 -10.26826 -10.26765
 Alpha  occ. eigenvalues --  -10.26755 -10.26716 -10.26545 -10.26543 -10.26530
 Alpha  occ. eigenvalues --  -10.26510 -10.26504 -10.26484 -10.26312 -10.26306
 Alpha  occ. eigenvalues --  -10.26192 -10.26111 -10.26056 -10.25784 -10.25654
 Alpha  occ. eigenvalues --  -10.25557 -10.25371 -10.25128 -10.25091 -10.25075
 Alpha  occ. eigenvalues --  -10.25034 -10.24608 -10.24548 -10.24503 -10.24355
 Alpha  occ. eigenvalues --  -10.24320 -10.24284  -1.12298  -1.08318  -0.94805
 Alpha  occ. eigenvalues --   -0.93235  -0.92374  -0.91441  -0.90433  -0.89933
 Alpha  occ. eigenvalues --   -0.87592  -0.87479  -0.87242  -0.85323  -0.84315
 Alpha  occ. eigenvalues --   -0.82590  -0.81717  -0.79615  -0.79294  -0.77537
 Alpha  occ. eigenvalues --   -0.76350  -0.76217  -0.75647  -0.75472  -0.75239
 Alpha  occ. eigenvalues --   -0.75199  -0.75057  -0.74694  -0.73983  -0.70197
 Alpha  occ. eigenvalues --   -0.68422  -0.67492  -0.66079  -0.64202  -0.64028
 Alpha  occ. eigenvalues --   -0.63301  -0.62652  -0.61914  -0.60442  -0.59626
 Alpha  occ. eigenvalues --   -0.58953  -0.58906  -0.58752  -0.57368  -0.56063
 Alpha  occ. eigenvalues --   -0.55635  -0.55362  -0.54799  -0.54004  -0.53118
 Alpha  occ. eigenvalues --   -0.52879  -0.52468  -0.52137  -0.51670  -0.50745
 Alpha  occ. eigenvalues --   -0.50650  -0.50385  -0.50098  -0.49840  -0.49578
 Alpha  occ. eigenvalues --   -0.49317  -0.49027  -0.48714  -0.47772  -0.47567
 Alpha  occ. eigenvalues --   -0.47378  -0.47255  -0.46542  -0.46160  -0.46080
 Alpha  occ. eigenvalues --   -0.45605  -0.45363  -0.45103  -0.44819  -0.44532
 Alpha  occ. eigenvalues --   -0.44332  -0.44249  -0.43702  -0.43421  -0.43134
 Alpha  occ. eigenvalues --   -0.42432  -0.42262  -0.42086  -0.41973  -0.41802
 Alpha  occ. eigenvalues --   -0.41696  -0.41420  -0.41191  -0.40933  -0.40700
 Alpha  occ. eigenvalues --   -0.40421  -0.39991  -0.39561  -0.39343  -0.39208
 Alpha  occ. eigenvalues --   -0.38873  -0.38769  -0.38286  -0.37995  -0.37865
 Alpha  occ. eigenvalues --   -0.37594  -0.37096  -0.36409  -0.35816  -0.35792
 Alpha  occ. eigenvalues --   -0.35392  -0.34652  -0.33920  -0.32219  -0.31851
 Alpha  occ. eigenvalues --   -0.31843  -0.29878  -0.27753  -0.26679  -0.23803
 Alpha  occ. eigenvalues --   -0.20924
 Alpha virt. eigenvalues --   -0.04011  -0.00258   0.03451   0.05488   0.07827
 Alpha virt. eigenvalues --    0.09175   0.10867   0.11072   0.11785   0.11965
 Alpha virt. eigenvalues --    0.12141   0.12586   0.12656   0.13061   0.13519

 Mulliken charges:
               1
     1  O   -0.575987
     2  O   -0.529232
     3  C   -0.028444
     4  C    0.007041
     5  C   -0.180098
     6  C   -0.199257
     7  C    0.194483
     8  C    0.165228
     9  C    0.070707
    10  C    0.036456
    11  C   -0.217623
    12  C   -0.217927
    13  C    0.026990
    14  C    0.054134
    15  C   -0.292909
    16  C   -0.279757
    17  C   -0.304075
    18  C   -0.293959
    19  C   -0.093496
    20  C   -0.162107
    21  C   -0.346473
    22  C   -0.370408
    23  C   -0.127485
    24  C   -0.065374
    25  C    0.079835
    26  C    0.097953
    27  C   -0.352990
    28  C   -0.345991
    29  C   -0.071906
    30  C   -0.130566
    31  C   -0.118668
    32  C   -0.089937
    33  C   -0.118343
    34  C   -0.096306
    35  C    0.144182
    36  C    0.117124
    37  C   -0.342542
    38  C   -0.394639
    39  C   -0.146561
    40  C   -0.145347
    41  C   -0.080658
    42  C   -0.060174
    43  H    0.098059
    44  H    0.080309
    45  H    0.059152
    46  H    0.103490
    47  H    0.062834
    48  H    0.077152
    49  H    0.117168
    50  H    0.112744
    51  H    0.097116
    52  H    0.109982
    53  H    0.072806
    54  H    0.094119
    55  H    0.110977
    56  H    0.088338
    57  H    0.105925
    58  H    0.065911
    59  H    0.082717
    60  H    0.107993
    61  H    0.105952
    62  H    0.093320
    63  H    0.083993
    64  H    0.117751
    65  H    0.101700
    66  H    0.066769
    67  H    0.126915
    68  H    0.115102
    69  H    0.091151
    70  H    0.116360
    71  H    0.113920
    72  H    0.112315
    73  H    0.310392
    74  H    0.306594
    75  H    0.103513
    76  H    0.091724
    77  H    0.087696
    78  H    0.079123
    79  H    0.111715
    80  H    0.104210
    81  H    0.139320
    82  H    0.099820
    83  H    0.067609
    84  H    0.085938
    85  H    0.084822
    86  H    0.080315
    87  H    0.078035
    88  H    0.065541
    89  H    0.098435
    90  H    0.114904
    91  H    0.122415
    92  H    0.135062
    93  H    0.135819
    94  H    0.086089
    95  H    0.083073
    96  H    0.073138
    97  H    0.075719
    98  H    0.072046
 Sum of Mulliken charges =  -0.00000

 Dipole moment (field-independent basis, Debye):
    X=             -0.0132    Y=             -1.5182    Z=              1.4641  Tot=              2.1092
 Quadrupole moment (field-independent basis, Debye-Ang):
   XX=           -260.5702   YY=           -246.5948   ZZ=           -259.5966
   XY=              2.1790   XZ=             -2.6790   YZ=              0.5330

 Normal termination of Gaussian 16 at Wed Jul  3 12:00:27 2019.
