 Gaussian 16, Revision A.03,
 Gaussian 16:  ES64L-G16RevA.03 25-Dec-2016

 -------------------------------------
 # td=(NStates=1) CAM-B3LYP/6-31G(d,p)
 -------------------------------------

 --
 TD
 --
 Symbolic Z-matrix:
 Charge =  0 Multiplicity = 1

                         Standard orientation:
 ---------------------------------------------------------------------
 Center     Atomic      Atomic             Coordinates (Angstroms)
 Number     Number       Type             X           Y           Z
 ---------------------------------------------------------------------
      1          8           0       14.645542   -2.235469   -0.258268
      2          8           0      -14.802324    1.879298    0.924772
      3          6           0       11.420702   -1.052275    1.243321
      4          6           0      -12.320626   -0.983543    0.842309
      5          6           0       12.908641   -1.420663    1.128532
      6          6           0      -13.578784   -0.260688    0.723119
      7          6           0       13.345707   -2.024059   -0.133226
      8          6           0      -13.546528    1.194056    0.785540
      9          6           0       10.977288   -0.377325   -0.039319
     10          6           0      -11.332710   -0.292245   -0.146275
     11          6           0       12.964539   -1.093134   -1.253652
     12          6           0      -12.826913    1.631085   -0.449256
     13          6           0       11.614766   -0.379982   -1.268758
     14          6           0      -11.631888    0.887183   -0.770642
     15          6           0       11.279331   -0.065810    2.469029
     16          6           0       10.583224   -2.426431    1.586488
     17          6           0      -11.699868   -1.150361    2.243406
     18          6           0      -12.602197   -2.403489    0.413452
     19          6           0        9.673468    0.316205    0.065096
     20          6           0      -10.040538   -1.030551   -0.273863
     21          6           0       11.188655    0.244069   -2.467788
     22          6           0      -10.726919    1.523053   -1.791488
     23          6           0        9.415323    1.629100   -0.094998
     24          6           0       -8.756409   -0.589051   -0.333148
     25          6           0        8.071035    2.267447    0.118782
     26          6           0       -7.531317   -1.275846   -0.556398
     27          6           0        8.031955    3.683103    0.583676
     28          6           0       -7.609167   -2.635075   -0.936007
     29          6           0        6.870821    1.598114   -0.165501
     30          6           0       -6.342368   -0.626080   -0.310308
     31          6           0        5.565729    2.098037    0.097007
     32          6           0       -5.053078   -1.102923   -0.469838
     33          6           0        4.435814    1.327418   -0.249808
     34          6           0       -3.957927   -0.308214   -0.260685
     35          6           0        3.050272    1.731310    0.055874
     36          6           0       -2.613158   -0.643169   -0.563724
     37          6           0        2.860378    3.120583    0.535095
     38          6           0       -2.399897   -2.045739   -0.974846
     39          6           0        2.047870    0.858201   -0.251313
     40          6           0       -1.654265    0.234124   -0.270724
     41          6           0        0.614195    1.040111   -0.024003
     42          6           0       -0.258395    0.062768   -0.457961
     43          1           0       13.601310   -0.622387    1.625357
     44          1           0       13.018918   -2.166494    1.913576
     45          1           0      -14.168256   -0.624676    1.721133
     46          1           0      -14.255865   -0.582324   -0.191108
     47          1           0       12.857762   -3.025312   -0.316355
     48          1           0      -12.925535    1.544535    1.674214
     49          1           0       13.813386   -0.307585   -1.290601
     50          1           0       13.166612   -1.413504   -2.205636
     51          1           0      -13.578620    1.829250   -1.426057
     52          1           0      -12.451972    2.649238   -0.131480
     53          1           0       11.758928   -0.606608    3.301232
     54          1           0       10.197580    0.052688    2.703467
     55          1           0       11.553386    0.947061    2.186529
     56          1           0       10.924010   -3.114382    0.843292
     57          1           0       11.067160   -2.869263    2.537053
     58          1           0        9.526908   -2.185965    1.857514
     59          1           0      -11.427032   -0.197416    2.847866
     60          1           0      -10.908235   -1.786235    2.213723
     61          1           0      -12.255555   -1.671250    2.876400
     62          1           0      -13.583043   -2.732247    0.778423
     63          1           0      -11.659258   -2.888147    0.397628
     64          1           0      -12.793648   -2.344469   -0.780163
     65          1           0        8.846304   -0.286556    0.353934
     66          1           0       -9.941350   -2.226489   -0.468506
     67          1           0       10.348968    0.739799   -2.347308
     68          1           0       12.097777    1.069675   -2.911686
     69          1           0       11.119128   -0.462561   -3.393917
     70          1           0      -11.354603    1.673957   -2.816104
     71          1           0       -9.829769    1.056497   -2.242234
     72          1           0      -10.556865    2.601243   -1.374299
     73          1           0       15.054661   -2.761300    0.498961
     74          1           0      -15.270648    1.718508    1.681487
     75          1           0       10.179504    2.230139   -0.578516
     76          1           0       -8.710524    0.495085   -0.112487
     77          1           0        8.825917    4.327257    0.167380
     78          1           0        7.050187    4.276755    0.441584
     79          1           0        8.411021    3.865527    1.528283
     80          1           0       -8.292323   -3.330257   -0.285676
     81          1           0       -8.213124   -2.845306   -1.971019
     82          1           0       -6.625502   -2.980209   -1.082385
     83          1           0        6.946977    0.649502   -0.626784
     84          1           0       -6.399880    0.345472   -0.054575
     85          1           0        5.315973    2.993976    0.656752
     86          1           0       -4.868457   -2.051499   -0.996977
     87          1           0        4.526084    0.329489   -0.901610
     88          1           0       -4.076784    0.732632    0.008150
     89          1           0        3.011496    3.033411    1.686811
     90          1           0        1.870421    3.289527    0.731954
     91          1           0        3.779615    3.769744    0.126402
     92          1           0       -2.757142   -2.729072   -0.280190
     93          1           0       -2.851022   -2.128771   -2.032654
     94          1           0       -1.345732   -2.137250   -1.182330
     95          1           0        2.359553   -0.120425   -0.801698
     96          1           0       -2.024181    1.230085    0.378772
     97          1           0        0.221506    1.949230    0.235909
     98          1           0        0.307548   -0.908825   -0.766618
 ---------------------------------------------------------------------

 SCF Done:  E(RCAM-B3LYP) =  -1706.99293626     A.U. after   14 cycles

 Excitation energies and oscillator strengths:

 Excited State   1:      Singlet-A      2.5749 eV  481.51 nm  f=3.7879  <S**2>=0.000
     155 ->158        -0.17602
     156 ->157         0.68091
 This state for optimization and/or second-order correction.
 Total Energy, E(TD-HF/TD-DFT) =  -1706.89831028
 Copying the excited state density for this state as the 1-particle RhoCI density.

 The electronic state is 1-A.
 Alpha  occ. eigenvalues --  -19.21598 -19.20073 -10.30320 -10.30050 -10.28017
 Alpha  occ. eigenvalues --  -10.27758 -10.27414 -10.27375 -10.27279 -10.27178
 Alpha  occ. eigenvalues --  -10.26913 -10.26755 -10.26668 -10.26660 -10.26653
 Alpha  occ. eigenvalues --  -10.26611 -10.26533 -10.26505 -10.26473 -10.26345
 Alpha  occ. eigenvalues --  -10.26288 -10.26254 -10.26152 -10.26051 -10.26038
 Alpha  occ. eigenvalues --  -10.26028 -10.26013 -10.25825 -10.25808 -10.25667
 Alpha  occ. eigenvalues --  -10.25607 -10.25521 -10.25447 -10.25325 -10.25159
 Alpha  occ. eigenvalues --  -10.25122 -10.24903 -10.24814 -10.24769 -10.24767
 Alpha  occ. eigenvalues --  -10.23829 -10.23122  -1.12398  -1.09374  -0.94653
 Alpha  occ. eigenvalues --   -0.93138  -0.93081  -0.91720  -0.91085  -0.89596
 Alpha  occ. eigenvalues --   -0.88139  -0.87376  -0.87017  -0.85626  -0.84887
 Alpha  occ. eigenvalues --   -0.83603  -0.82390  -0.80473  -0.80219  -0.78495
 Alpha  occ. eigenvalues --   -0.77186  -0.76782  -0.76545  -0.76056  -0.75566
 Alpha  occ. eigenvalues --   -0.75477  -0.75178  -0.74787  -0.73843  -0.70748
 Alpha  occ. eigenvalues --   -0.69141  -0.67928  -0.66098  -0.64715  -0.64025
 Alpha  occ. eigenvalues --   -0.63624  -0.62599  -0.61771  -0.60622  -0.60534
 Alpha  occ. eigenvalues --   -0.59156  -0.58951  -0.58246  -0.57521  -0.56525
 Alpha  occ. eigenvalues --   -0.56472  -0.56187  -0.55423  -0.54934  -0.54260
 Alpha  occ. eigenvalues --   -0.53761  -0.53490  -0.52998  -0.52586  -0.51069
 Alpha  occ. eigenvalues --   -0.50861  -0.50278  -0.49866  -0.49386  -0.49207
 Alpha  occ. eigenvalues --   -0.48870  -0.48537  -0.48334  -0.47955  -0.47613
 Alpha  occ. eigenvalues --   -0.47536  -0.47219  -0.47117  -0.46608  -0.46431
 Alpha  occ. eigenvalues --   -0.46265  -0.45660  -0.45179  -0.45075  -0.44947
 Alpha  occ. eigenvalues --   -0.44666  -0.44252  -0.43683  -0.43557  -0.43353
 Alpha  occ. eigenvalues --   -0.43228  -0.42831  -0.42701  -0.42558  -0.42463
 Alpha  occ. eigenvalues --   -0.42002  -0.41383  -0.41257  -0.40722  -0.40531
 Alpha  occ. eigenvalues --   -0.40464  -0.40077  -0.39955  -0.39469  -0.39342
 Alpha  occ. eigenvalues --   -0.38923  -0.38789  -0.38075  -0.37761  -0.37518
 Alpha  occ. eigenvalues --   -0.37239  -0.37097  -0.36561  -0.36485  -0.35474
 Alpha  occ. eigenvalues --   -0.35340  -0.34044  -0.33149  -0.32378  -0.32074
 Alpha  occ. eigenvalues --   -0.31959  -0.29203  -0.27389  -0.26277  -0.23397
 Alpha  occ. eigenvalues --   -0.20256
 Alpha virt. eigenvalues --   -0.04643  -0.00560   0.03148   0.05437   0.06953
 Alpha virt. eigenvalues --    0.08736   0.10453   0.11478   0.11638   0.12029
 Alpha virt. eigenvalues --    0.12241   0.12700   0.12774   0.13079   0.13523

 Mulliken charges:
               1
     1  O   -0.548431
     2  O   -0.568264
     3  C   -0.016427
     4  C    0.008092
     5  C   -0.211523
     6  C   -0.191816
     7  C    0.218298
     8  C    0.187711
     9  C    0.026229
    10  C    0.054445
    11  C   -0.233061
    12  C   -0.225691
    13  C    0.127259
    14  C    0.090104
    15  C   -0.302015
    16  C   -0.309828
    17  C   -0.292893
    18  C   -0.297894
    19  C   -0.134818
    20  C   -0.140273
    21  C   -0.353515
    22  C   -0.348624
    23  C   -0.113749
    24  C   -0.110848
    25  C    0.083326
    26  C    0.153954
    27  C   -0.383952
    28  C   -0.392622
    29  C   -0.112062
    30  C   -0.097271
    31  C   -0.096218
    32  C   -0.102860
    33  C   -0.121885
    34  C   -0.110815
    35  C    0.128471
    36  C    0.122781
    37  C   -0.371554
    38  C   -0.368080
    39  C   -0.148150
    40  C   -0.140887
    41  C   -0.075762
    42  C   -0.091352
    43  H    0.094636
    44  H    0.072287
    45  H    0.044537
    46  H    0.094630
    47  H    0.057531
    48  H    0.074059
    49  H    0.099694
    50  H    0.100271
    51  H    0.099251
    52  H    0.107218
    53  H    0.098221
    54  H    0.099244
    55  H    0.115715
    56  H    0.118656
    57  H    0.087494
    58  H    0.114099
    59  H    0.086781
    60  H    0.115735
    61  H    0.107735
    62  H    0.115178
    63  H    0.108674
    64  H    0.075020
    65  H    0.088647
    66  H    0.054002
    67  H    0.125642
    68  H    0.068150
    69  H    0.108481
    70  H    0.084725
    71  H    0.132520
    72  H    0.100824
    73  H    0.308484
    74  H    0.296602
    75  H    0.091903
    76  H    0.070825
    77  H    0.108656
    78  H    0.105207
    79  H    0.130255
    80  H    0.114231
    81  H    0.098813
    82  H    0.108459
    83  H    0.083709
    84  H    0.073562
    85  H    0.090086
    86  H    0.090041
    87  H    0.076882
    88  H    0.074308
    89  H    0.109904
    90  H    0.115781
    91  H    0.128101
    92  H    0.139648
    93  H    0.111567
    94  H    0.104146
    95  H    0.075157
    96  H    0.076687
    97  H    0.085653
    98  H    0.094143
 Sum of Mulliken charges =  -0.00000

 Dipole moment (field-independent basis, Debye):
    X=              1.9338    Y=             -1.2265    Z=              2.2337  Tot=              3.1989
 Quadrupole moment (field-independent basis, Debye-Ang):
   XX=           -268.5743   YY=           -248.3575   ZZ=           -257.4706
   XY=              3.7921   XZ=              2.5929   YZ=              2.8404

 Normal termination of Gaussian 16 at Wed Jul  3 00:44:45 2019.
