 Gaussian 16, Revision A.03,
 Gaussian 16:  ES64L-G16RevA.03 25-Dec-2016

 -------------------------------------
 # td=(NStates=1) CAM-B3LYP/6-31G(d,p)
 -------------------------------------

 --
 TD
 --
 Symbolic Z-matrix:
 Charge =  0 Multiplicity = 1

                         Standard orientation:
 ---------------------------------------------------------------------
 Center     Atomic      Atomic             Coordinates (Angstroms)
 Number     Number       Type             X           Y           Z
 ---------------------------------------------------------------------
      1          8           0       14.697932   -2.305478   -0.446701
      2          8           0      -14.931531    1.722408    0.513184
      3          6           0       11.435245   -1.166921    1.156930
      4          6           0      -12.203924   -0.951076    0.759121
      5          6           0       12.978058   -1.435592    1.023551
      6          6           0      -13.590881   -0.352467    0.802994
      7          6           0       13.274918   -2.081856   -0.434108
      8          6           0      -13.657424    1.183982    0.645622
      9          6           0       10.904614   -0.329648    0.002222
     10          6           0      -11.294730   -0.299484   -0.303903
     11          6           0       12.869184   -0.977036   -1.437801
     12          6           0      -12.886246    1.628586   -0.576014
     13          6           0       11.575065   -0.386554   -1.146723
     14          6           0      -11.583207    0.854984   -0.776837
     15          6           0       11.353443   -0.278170    2.501143
     16          6           0       10.664435   -2.539000    1.271001
     17          6           0      -11.637038   -0.900016    2.189402
     18          6           0      -12.475883   -2.500017    0.603248
     19          6           0        9.577271    0.303475    0.221175
     20          6           0      -10.071996   -1.024683   -0.355833
     21          6           0       11.144233    0.356586   -2.413514
     22          6           0      -10.793821    1.466842   -1.920907
     23          6           0        9.303527    1.578246   -0.057386
     24          6           0       -8.816799   -0.455323   -0.266315
     25          6           0        8.039637    2.333845    0.141315
     26          6           0       -7.619591   -1.256816   -0.480516
     27          6           0        8.103243    3.827222    0.351277
     28          6           0       -7.656169   -2.757572   -0.934407
     29          6           0        6.849063    1.700973    0.018771
     30          6           0       -6.479537   -0.582521   -0.318301
     31          6           0        5.471241    2.165874    0.205140
     32          6           0       -5.089775   -1.018540   -0.422698
     33          6           0        4.432135    1.390071    0.028013
     34          6           0       -3.978919   -0.269309   -0.235768
     35          6           0        3.123706    1.768016    0.143568
     36          6           0       -2.517079   -0.725332   -0.269815
     37          6           0        2.873921    3.280121    0.582669
     38          6           0       -2.338625   -2.044073   -1.050607
     39          6           0        2.147857    0.836969   -0.048915
     40          6           0       -1.627760    0.147408   -0.002783
     41          6           0        0.767531    0.985092    0.153090
     42          6           0       -0.141113    0.000582   -0.067635
     43          1           0       13.368110   -0.368012    1.114815
     44          1           0       13.424919   -2.029127    1.916899
     45          1           0      -14.259314   -0.685958    1.602678
     46          1           0      -14.092527   -0.675258   -0.107681
     47          1           0       13.052534   -2.974527   -0.760503
     48          1           0      -13.309768    1.745859    1.690041
     49          1           0       13.725031   -0.283207   -1.599402
     50          1           0       13.041739   -1.691838   -2.479427
     51          1           0      -13.653000    1.617144   -1.494576
     52          1           0      -12.610556    2.660411   -0.515711
     53          1           0       11.830646   -0.790125    3.418850
     54          1           0       10.400722   -0.043471    2.882517
     55          1           0       11.942391    0.614667    2.246548
     56          1           0       10.695538   -2.988843    0.169843
     57          1           0       11.103481   -3.262606    2.109765
     58          1           0        9.565928   -2.352056    1.563673
     59          1           0      -11.857039    0.266898    2.702731
     60          1           0      -10.703733   -1.101698    2.163452
     61          1           0      -12.236130   -1.427727    2.913462
     62          1           0      -13.164559   -2.791136    1.376890
     63          1           0      -11.454882   -3.052864    0.957026
     64          1           0      -12.671433   -2.842470   -0.436130
     65          1           0        8.994308   -0.439804    0.763432
     66          1           0      -10.156497   -2.071592   -0.805719
     67          1           0       10.115798    0.627597   -2.465083
     68          1           0       11.753279    1.393822   -2.271702
     69          1           0       11.364542   -0.158214   -3.224426
     70          1           0      -11.645441    1.680912   -2.744318
     71          1           0       -9.954017    0.811390   -2.347590
     72          1           0      -10.312167    2.421174   -1.685673
     73          1           0       15.264887   -2.918795    0.285877
     74          1           0      -15.510439    1.411743    1.225031
     75          1           0       10.074715    2.350969   -0.288038
     76          1           0       -8.799296    0.560941    0.113023
     77          1           0        8.484690    4.443123   -0.633093
     78          1           0        7.206630    4.283133    0.645289
     79          1           0        8.974476    4.044443    1.191347
     80          1           0       -8.166332   -3.241006   -0.121520
     81          1           0       -8.399324   -2.829168   -1.804398
     82          1           0       -6.625169   -3.226987   -1.097161
     83          1           0        6.828319    0.565663   -0.363151
     84          1           0       -6.683460    0.552298   -0.343560
     85          1           0        5.401209    3.090410    0.404424
     86          1           0       -5.087534   -2.122350   -0.760305
     87          1           0        4.844752    0.311853   -0.118226
     88          1           0       -4.169963    0.852419    0.179632
     89          1           0        3.450613    3.464966    1.449020
     90          1           0        1.796170    3.562922    0.607640
     91          1           0        3.416889    3.843245   -0.158404
     92          1           0       -2.535804   -2.650254   -0.178667
     93          1           0       -2.865476   -2.059370   -1.938589
     94          1           0       -1.308071   -2.257618   -1.229070
     95          1           0        2.663841   -0.207521   -0.325656
     96          1           0       -1.984638    1.144370    0.310827
     97          1           0        0.491381    1.910127    0.378110
     98          1           0        0.240981   -0.885562   -0.293708
 ---------------------------------------------------------------------

 SCF Done:  E(RCAM-B3LYP) =  -1706.94651069     A.U. after   14 cycles

 Excitation energies and oscillator strengths:

 Excited State   1:      Singlet-A      3.0346 eV  408.57 nm  f=3.6738  <S**2>=0.000
     155 ->158        -0.18679
     156 ->157         0.67275
 This state for optimization and/or second-order correction.
 Total Energy, E(TD-HF/TD-DFT) =  -1706.83499088
 Copying the excited state density for this state as the 1-particle RhoCI density.

 The electronic state is 1-A.
 Alpha  occ. eigenvalues --  -19.20740 -19.19353 -10.30955 -10.29517 -10.27927
 Alpha  occ. eigenvalues --  -10.27883 -10.27465 -10.27433 -10.27263 -10.27206
 Alpha  occ. eigenvalues --  -10.27122 -10.27093 -10.27061 -10.27059 -10.26962
 Alpha  occ. eigenvalues --  -10.26787 -10.26742 -10.26720 -10.26684 -10.26491
 Alpha  occ. eigenvalues --  -10.26490 -10.26253 -10.26228 -10.26124 -10.26117
 Alpha  occ. eigenvalues --  -10.26110 -10.26049 -10.25955 -10.25870 -10.25803
 Alpha  occ. eigenvalues --  -10.25789 -10.25675 -10.25640 -10.25544 -10.25360
 Alpha  occ. eigenvalues --  -10.24948 -10.24933 -10.24484 -10.24380 -10.24125
 Alpha  occ. eigenvalues --  -10.24116 -10.23907  -1.10030  -1.04814  -0.94085
 Alpha  occ. eigenvalues --   -0.93192  -0.92815  -0.91602  -0.90604  -0.89787
 Alpha  occ. eigenvalues --   -0.87626  -0.87150  -0.85988  -0.85402  -0.84390
 Alpha  occ. eigenvalues --   -0.82939  -0.81825  -0.79398  -0.79226  -0.78728
 Alpha  occ. eigenvalues --   -0.76980  -0.76745  -0.75925  -0.75915  -0.75302
 Alpha  occ. eigenvalues --   -0.74844  -0.74534  -0.74311  -0.73379  -0.71094
 Alpha  occ. eigenvalues --   -0.69291  -0.68193  -0.66149  -0.65378  -0.64563
 Alpha  occ. eigenvalues --   -0.63803  -0.62625  -0.62032  -0.61522  -0.59721
 Alpha  occ. eigenvalues --   -0.58509  -0.57551  -0.57090  -0.56883  -0.56127
 Alpha  occ. eigenvalues --   -0.55868  -0.55369  -0.53854  -0.53728  -0.53181
 Alpha  occ. eigenvalues --   -0.52898  -0.52521  -0.52003  -0.51537  -0.51363
 Alpha  occ. eigenvalues --   -0.50565  -0.50389  -0.49943  -0.49512  -0.49145
 Alpha  occ. eigenvalues --   -0.48965  -0.48656  -0.48140  -0.48085  -0.47697
 Alpha  occ. eigenvalues --   -0.47461  -0.47251  -0.46706  -0.46515  -0.46219
 Alpha  occ. eigenvalues --   -0.46091  -0.45969  -0.45585  -0.45276  -0.45029
 Alpha  occ. eigenvalues --   -0.44888  -0.44304  -0.43962  -0.43722  -0.43224
 Alpha  occ. eigenvalues --   -0.42991  -0.42880  -0.42675  -0.42370  -0.41924
 Alpha  occ. eigenvalues --   -0.41814  -0.41746  -0.41500  -0.40746  -0.40457
 Alpha  occ. eigenvalues --   -0.40181  -0.39791  -0.39718  -0.39236  -0.38940
 Alpha  occ. eigenvalues --   -0.38817  -0.38766  -0.37955  -0.37841  -0.37638
 Alpha  occ. eigenvalues --   -0.36945  -0.36819  -0.36270  -0.36138  -0.35648
 Alpha  occ. eigenvalues --   -0.35050  -0.34240  -0.32546  -0.32044  -0.30605
 Alpha  occ. eigenvalues --   -0.30157  -0.29939  -0.29151  -0.27031  -0.24445
 Alpha  occ. eigenvalues --   -0.21634
 Alpha virt. eigenvalues --   -0.03660  -0.00249   0.02911   0.06208   0.07890
 Alpha virt. eigenvalues --    0.09272   0.09649   0.11046   0.11803   0.12042
 Alpha virt. eigenvalues --    0.12151   0.12469   0.13155   0.13445   0.13845

 Mulliken charges:
               1
     1  O   -0.636481
     2  O   -0.556888
     3  C   -0.039387
     4  C   -0.015100
     5  C   -0.180761
     6  C   -0.195562
     7  C    0.219556
     8  C    0.191631
     9  C    0.058185
    10  C    0.090884
    11  C   -0.227835
    12  C   -0.216719
    13  C    0.045617
    14  C    0.036109
    15  C   -0.310209
    16  C   -0.287835
    17  C   -0.263692
    18  C   -0.300380
    19  C   -0.092246
    20  C   -0.164150
    21  C   -0.330198
    22  C   -0.356640
    23  C   -0.095134
    24  C   -0.089737
    25  C    0.077946
    26  C    0.110112
    27  C   -0.360180
    28  C   -0.368356
    29  C   -0.128973
    30  C   -0.135788
    31  C   -0.038378
    32  C   -0.087841
    33  C   -0.096548
    34  C   -0.124789
    35  C    0.099714
    36  C    0.078604
    37  C   -0.374337
    38  C   -0.351135
    39  C   -0.135045
    40  C   -0.117076
    41  C   -0.054382
    42  C   -0.079932
    43  H    0.099763
    44  H    0.071319
    45  H    0.074608
    46  H    0.097332
    47  H    0.100521
    48  H    0.037707
    49  H    0.137572
    50  H    0.069272
    51  H    0.111245
    52  H    0.119663
    53  H    0.081689
    54  H    0.106232
    55  H    0.103402
    56  H    0.094766
    57  H    0.090823
    58  H    0.091607
    59  H    0.045099
    60  H    0.112791
    61  H    0.104087
    62  H    0.110340
    63  H    0.070767
    64  H    0.103052
    65  H    0.100220
    66  H    0.089353
    67  H    0.115091
    68  H    0.091936
    69  H    0.115595
    70  H    0.091178
    71  H    0.110472
    72  H    0.111993
    73  H    0.311275
    74  H    0.302350
    75  H    0.088274
    76  H    0.104044
    77  H    0.101959
    78  H    0.126627
    79  H    0.092891
    80  H    0.134182
    81  H    0.121220
    82  H    0.112670
    83  H    0.063531
    84  H    0.074333
    85  H    0.041800
    86  H    0.073299
    87  H    0.077209
    88  H    0.075230
    89  H    0.134550
    90  H    0.112211
    91  H    0.129086
    92  H    0.135277
    93  H    0.137469
    94  H    0.109420
    95  H    0.072491
    96  H    0.078095
    97  H    0.065581
    98  H    0.068790
 Sum of Mulliken charges =  -0.00000

 Dipole moment (field-independent basis, Debye):
    X=             -0.2965    Y=             -1.1430    Z=              1.4261  Tot=              1.8515
 Quadrupole moment (field-independent basis, Debye-Ang):
   XX=           -270.7312   YY=           -244.6377   ZZ=           -261.8463
   XY=             12.3145   XZ=              3.8884   YZ=              0.8665

 Normal termination of Gaussian 16 at Thu Jun 27 01:20:40 2019.
