 Gaussian 16, Revision A.03,
 Gaussian 16:  ES64L-G16RevA.03 25-Dec-2016

 -------------------------------------
 # td=(NStates=1) CAM-B3LYP/6-31G(d,p)
 -------------------------------------

 --
 TD
 --
 Symbolic Z-matrix:
 Charge =  0 Multiplicity = 1

                         Standard orientation:
 ---------------------------------------------------------------------
 Center     Atomic      Atomic             Coordinates (Angstroms)
 Number     Number       Type             X           Y           Z
 ---------------------------------------------------------------------
      1          8           0       14.667252   -2.321438   -0.467647
      2          8           0      -14.824770    1.915620    0.536244
      3          6           0       11.309281   -1.200877    1.232738
      4          6           0      -12.355139   -0.965453    0.856630
      5          6           0       12.838679   -1.372129    1.035663
      6          6           0      -13.781531   -0.227686    0.578266
      7          6           0       13.255573   -2.068015   -0.366702
      8          6           0      -13.480831    1.245660    0.716224
      9          6           0       10.859504   -0.351640    0.005818
     10          6           0      -11.274040   -0.337646   -0.177777
     11          6           0       12.924328   -0.960453   -1.369317
     12          6           0      -12.765063    1.726532   -0.489467
     13          6           0       11.517471   -0.292790   -1.123654
     14          6           0      -11.535532    0.911898   -0.839356
     15          6           0       11.236359   -0.365845    2.556242
     16          6           0       10.516517   -2.395363    1.208748
     17          6           0      -11.837658   -0.802444    2.218375
     18          6           0      -12.476702   -2.521539    0.552614
     19          6           0        9.571009    0.360558    0.227067
     20          6           0      -10.041958   -1.084451   -0.402728
     21          6           0       11.112255    0.431115   -2.415558
     22          6           0      -10.675600    1.472455   -1.904849
     23          6           0        9.396206    1.701276   -0.066541
     24          6           0       -8.839172   -0.535018   -0.300199
     25          6           0        8.083370    2.395512    0.162461
     26          6           0       -7.482561   -1.257768   -0.349392
     27          6           0        8.163627    3.811066    0.560028
     28          6           0       -7.579836   -2.754568   -0.852992
     29          6           0        6.935546    1.642952   -0.041169
     30          6           0       -6.368217   -0.615378   -0.195752
     31          6           0        5.580030    2.060237    0.194844
     32          6           0       -5.039104   -1.000161   -0.464137
     33          6           0        4.513760    1.329454   -0.062533
     34          6           0       -3.946800   -0.353480   -0.306363
     35          6           0        3.119385    1.638255    0.099440
     36          6           0       -2.470175   -0.738159   -0.435015
     37          6           0        2.808836    3.164849    0.568389
     38          6           0       -2.228764   -2.134472   -0.871013
     39          6           0        2.167871    0.766326   -0.185723
     40          6           0       -1.581635    0.203108   -0.176903
     41          6           0        0.764205    0.920005    0.029796
     42          6           0       -0.150142   -0.024569   -0.359936
     43          1           0       13.389285   -0.495482    1.183885
     44          1           0       13.166834   -2.189084    1.894868
     45          1           0      -14.510738   -0.699291    1.373889
     46          1           0      -14.215513   -0.665205   -0.205505
     47          1           0       12.773434   -2.781214   -0.556159
     48          1           0      -12.968415    1.601767    1.648640
     49          1           0       13.653786   -0.182813   -1.041405
     50          1           0       13.076131   -1.359699   -2.303639
     51          1           0      -13.459474    1.773560   -1.358216
     52          1           0      -12.571757    2.779223   -0.476257
     53          1           0       11.769165   -0.908042    3.440099
     54          1           0       10.344350   -0.244433    2.840932
     55          1           0       11.517973    0.799022    2.416239
     56          1           0       10.826123   -2.947685    0.427810
     57          1           0       10.656061   -2.978645    2.035296
     58          1           0        9.360677   -2.044399    1.390677
     59          1           0      -12.241238    0.191187    2.800572
     60          1           0      -10.693911   -0.935858    2.362547
     61          1           0      -12.327587   -1.786601    2.721233
     62          1           0      -13.251954   -3.092503    1.111272
     63          1           0      -11.436763   -2.923347    0.889144
     64          1           0      -12.568615   -2.661258   -0.532078
     65          1           0        8.585070   -0.303027    0.383538
     66          1           0      -10.183923   -2.202294   -0.526333
     67          1           0       10.128350    0.921387   -2.175305
     68          1           0       11.810513    1.129987   -2.757338
     69          1           0       10.942475   -0.270362   -3.358679
     70          1           0      -11.179025    1.857710   -2.756248
     71          1           0      -10.022171    0.675833   -2.170239
     72          1           0      -10.206560    2.326217   -1.669007
     73          1           0       14.963104   -2.757282    0.310671
     74          1           0      -15.483799    1.582325    1.196356
     75          1           0       10.145437    2.375386   -0.376243
     76          1           0       -8.733155    0.495054    0.006280
     77          1           0        8.900954    4.244461   -0.167288
     78          1           0        7.118002    4.055999    0.767583
     79          1           0        8.556713    3.759965    1.372823
     80          1           0       -8.116099   -3.347420   -0.180127
     81          1           0       -8.152869   -2.801292   -1.708595
     82          1           0       -6.525896   -3.094940   -0.726742
     83          1           0        7.226906    0.560189   -0.395432
     84          1           0       -6.537069    0.273607    0.193439
     85          1           0        5.277067    2.954991    0.772129
     86          1           0       -4.997324   -2.145395   -0.649182
     87          1           0        4.608173    0.472547   -0.578439
     88          1           0       -4.182255    0.684485   -0.073368
     89          1           0        3.416623    3.323852    1.481637
     90          1           0        1.673993    3.291691    1.032614
     91          1           0        2.799903    3.998477   -0.233942
     92          1           0       -2.926622   -2.944118   -0.362129
     93          1           0       -2.471857   -2.227590   -1.943590
     94          1           0       -1.126082   -2.374934   -0.551579
     95          1           0        2.251982   -0.211760   -0.650162
     96          1           0       -1.898735    1.270769   -0.145739
     97          1           0        0.432261    1.806124    0.661275
     98          1           0        0.298087   -0.911433   -0.912876
 ---------------------------------------------------------------------

 SCF Done:  E(RCAM-B3LYP) =  -1706.90524682     A.U. after   14 cycles

 Excitation energies and oscillator strengths:

 Excited State   1:      Singlet-A      3.1515 eV  393.41 nm  f=3.3953  <S**2>=0.000
     155 ->158         0.17808
     156 ->157         0.66908
 This state for optimization and/or second-order correction.
 Total Energy, E(TD-HF/TD-DFT) =  -1706.78942981
 Copying the excited state density for this state as the 1-particle RhoCI density.

 The electronic state is 1-A.
 Alpha  occ. eigenvalues --  -19.20573 -19.19920 -10.31070 -10.28267 -10.28255
 Alpha  occ. eigenvalues --  -10.28143 -10.27576 -10.27511 -10.27472 -10.27186
 Alpha  occ. eigenvalues --  -10.27120 -10.27026 -10.26987 -10.26925 -10.26890
 Alpha  occ. eigenvalues --  -10.26837 -10.26593 -10.26529 -10.26461 -10.26302
 Alpha  occ. eigenvalues --  -10.26274 -10.26193 -10.26188 -10.26095 -10.26066
 Alpha  occ. eigenvalues --  -10.25978 -10.25871 -10.25737 -10.25573 -10.25537
 Alpha  occ. eigenvalues --  -10.25536 -10.25402 -10.25153 -10.24677 -10.24540
 Alpha  occ. eigenvalues --  -10.24399 -10.24370 -10.24245 -10.24106 -10.24074
 Alpha  occ. eigenvalues --  -10.23878 -10.22708  -1.08910  -1.05743  -0.93876
 Alpha  occ. eigenvalues --   -0.92625  -0.92158  -0.91754  -0.90784  -0.89982
 Alpha  occ. eigenvalues --   -0.87412  -0.87052  -0.86810  -0.86058  -0.84761
 Alpha  occ. eigenvalues --   -0.83765  -0.82013  -0.80747  -0.80597  -0.77988
 Alpha  occ. eigenvalues --   -0.77788  -0.77294  -0.76543  -0.76457  -0.75366
 Alpha  occ. eigenvalues --   -0.74941  -0.74774  -0.74479  -0.74139  -0.70282
 Alpha  occ. eigenvalues --   -0.69182  -0.67934  -0.66513  -0.65652  -0.63962
 Alpha  occ. eigenvalues --   -0.63406  -0.62110  -0.61310  -0.60819  -0.60222
 Alpha  occ. eigenvalues --   -0.59391  -0.59174  -0.57996  -0.57253  -0.55990
 Alpha  occ. eigenvalues --   -0.55771  -0.55077  -0.54393  -0.54322  -0.53635
 Alpha  occ. eigenvalues --   -0.53451  -0.52606  -0.52291  -0.51608  -0.51045
 Alpha  occ. eigenvalues --   -0.50792  -0.50423  -0.50186  -0.50097  -0.49748
 Alpha  occ. eigenvalues --   -0.49548  -0.49055  -0.48864  -0.48641  -0.48273
 Alpha  occ. eigenvalues --   -0.48114  -0.47506  -0.47059  -0.46890  -0.46712
 Alpha  occ. eigenvalues --   -0.46695  -0.46236  -0.45333  -0.44889  -0.44733
 Alpha  occ. eigenvalues --   -0.44695  -0.44430  -0.44346  -0.44132  -0.43905
 Alpha  occ. eigenvalues --   -0.43203  -0.42833  -0.42491  -0.41965  -0.41954
 Alpha  occ. eigenvalues --   -0.41437  -0.41347  -0.41091  -0.40885  -0.40634
 Alpha  occ. eigenvalues --   -0.40355  -0.40334  -0.40063  -0.39591  -0.39428
 Alpha  occ. eigenvalues --   -0.39234  -0.38729  -0.38532  -0.38062  -0.37787
 Alpha  occ. eigenvalues --   -0.37494  -0.36358  -0.36242  -0.35753  -0.35557
 Alpha  occ. eigenvalues --   -0.34883  -0.34097  -0.33295  -0.32516  -0.32185
 Alpha  occ. eigenvalues --   -0.31327  -0.29948  -0.28583  -0.26454  -0.24250
 Alpha  occ. eigenvalues --   -0.21759
 Alpha virt. eigenvalues --   -0.03082   0.00312   0.02986   0.06182   0.08042
 Alpha virt. eigenvalues --    0.09000   0.10445   0.11888   0.12200   0.12453
 Alpha virt. eigenvalues --    0.12551   0.12932   0.13213   0.13528   0.13631

 Mulliken charges:
               1
     1  O   -0.570860
     2  O   -0.593197
     3  C   -0.004099
     4  C   -0.006648
     5  C   -0.204797
     6  C   -0.163889
     7  C    0.204081
     8  C    0.159442
     9  C    0.042859
    10  C    0.016469
    11  C   -0.215191
    12  C   -0.213425
    13  C    0.041224
    14  C    0.056104
    15  C   -0.291190
    16  C   -0.278122
    17  C   -0.276383
    18  C   -0.331084
    19  C   -0.129054
    20  C   -0.145531
    21  C   -0.358197
    22  C   -0.365864
    23  C   -0.106606
    24  C   -0.088892
    25  C    0.041477
    26  C    0.069315
    27  C   -0.332534
    28  C   -0.364313
    29  C   -0.114200
    30  C   -0.089352
    31  C   -0.091561
    32  C   -0.068170
    33  C   -0.079800
    34  C   -0.118255
    35  C    0.083819
    36  C    0.134256
    37  C   -0.366511
    38  C   -0.370283
    39  C   -0.118754
    40  C   -0.130416
    41  C   -0.063365
    42  C   -0.125816
    43  H    0.115243
    44  H    0.033348
    45  H    0.060338
    46  H    0.119356
    47  H    0.070647
    48  H    0.103888
    49  H    0.120270
    50  H    0.106940
    51  H    0.126324
    52  H    0.110775
    53  H    0.089216
    54  H    0.111099
    55  H    0.084809
    56  H    0.113598
    57  H    0.106431
    58  H    0.087016
    59  H    0.081964
    60  H    0.112868
    61  H    0.074538
    62  H    0.106360
    63  H    0.095783
    64  H    0.110585
    65  H    0.096165
    66  H    0.087836
    67  H    0.110217
    68  H    0.122951
    69  H    0.092999
    70  H    0.106275
    71  H    0.121878
    72  H    0.121259
    73  H    0.301230
    74  H    0.297086
    75  H    0.090678
    76  H    0.088521
    77  H    0.116116
    78  H    0.111943
    79  H    0.142472
    80  H    0.119695
    81  H    0.130463
    82  H    0.101116
    83  H    0.077276
    84  H    0.060212
    85  H    0.074397
    86  H    0.052805
    87  H    0.067311
    88  H    0.066296
    89  H    0.123380
    90  H    0.079611
    91  H    0.130064
    92  H    0.107411
    93  H    0.136352
    94  H    0.104300
    95  H    0.077576
    96  H    0.103037
    97  H    0.076699
    98  H    0.090288
 Sum of Mulliken charges =  -0.00000

 Dipole moment (field-independent basis, Debye):
    X=             -0.0734    Y=             -0.9962    Z=              1.8546  Tot=              2.1065
 Quadrupole moment (field-independent basis, Debye-Ang):
   XX=           -274.5396   YY=           -246.6027   ZZ=           -260.6808
   XY=             17.7066   XZ=              6.2480   YZ=              0.7843

 Normal termination of Gaussian 16 at Sat Jun 29 07:01:28 2019.
