 Gaussian 16, Revision A.03,
 Gaussian 16:  ES64L-G16RevA.03 25-Dec-2016

 -------------------------------------
 # td=(NStates=1) CAM-B3LYP/6-31G(d,p)
 -------------------------------------

 --
 TD
 --
 Symbolic Z-matrix:
 Charge =  0 Multiplicity = 1

                         Standard orientation:
 ---------------------------------------------------------------------
 Center     Atomic      Atomic             Coordinates (Angstroms)
 Number     Number       Type             X           Y           Z
 ---------------------------------------------------------------------
      1          8           0       14.737642   -2.201349   -0.345600
      2          8           0      -14.812960    2.057535    0.666962
      3          6           0       11.512053   -1.032095    1.298163
      4          6           0      -12.396365   -0.829717    0.851082
      5          6           0       13.029409   -1.312966    1.077521
      6          6           0      -13.663327   -0.169009    0.676969
      7          6           0       13.404812   -1.862911   -0.203793
      8          6           0      -13.528632    1.310747    0.739075
      9          6           0       10.934244   -0.346910   -0.133978
     10          6           0      -11.360425   -0.402974   -0.247648
     11          6           0       13.045380   -0.963266   -1.386524
     12          6           0      -12.730379    1.790487   -0.522124
     13          6           0       11.654447   -0.374341   -1.286414
     14          6           0      -11.597434    0.837222   -0.904628
     15          6           0       11.361547   -0.129546    2.521849
     16          6           0       10.752511   -2.370084    1.528695
     17          6           0      -11.760366   -0.800378    2.218818
     18          6           0      -12.597637   -2.398068    0.571125
     19          6           0        9.666258    0.282706    0.174942
     20          6           0      -10.047216   -1.216044   -0.372348
     21          6           0       11.095219    0.216932   -2.523183
     22          6           0      -10.667307    1.366264   -2.007351
     23          6           0        9.366317    1.547035   -0.398794
     24          6           0       -8.853659   -0.632933   -0.396082
     25          6           0        8.092343    2.235367   -0.033448
     26          6           0       -7.574050   -1.363259   -0.497086
     27          6           0        8.298952    3.632109    0.388615
     28          6           0       -7.676177   -2.744410   -0.829013
     29          6           0        6.876950    1.595431   -0.101493
     30          6           0       -6.515470   -0.641937   -0.313845
     31          6           0        5.511428    2.150982    0.241478
     32          6           0       -5.175996   -1.130137   -0.469907
     33          6           0        4.461947    1.321853    0.064322
     34          6           0       -4.098708   -0.368339   -0.231051
     35          6           0        3.082342    1.704924    0.161162
     36          6           0       -2.638156   -0.767346   -0.269678
     37          6           0        2.877093    3.136324    0.589640
     38          6           0       -2.365011   -2.139877   -0.867203
     39          6           0        2.022242    0.794674   -0.019486
     40          6           0       -1.731718    0.217313   -0.123304
     41          6           0        0.731335    0.982227    0.020778
     42          6           0       -0.241583    0.033198   -0.153530
     43          1           0       13.666653   -0.453717    0.989703
     44          1           0       13.366878   -2.107132    1.921437
     45          1           0      -14.259103   -0.717813    1.659854
     46          1           0      -14.118160   -0.660264   -0.329529
     47          1           0       12.626018   -2.668456   -0.255096
     48          1           0      -13.065682    1.754449    1.665805
     49          1           0       13.819696   -0.014788   -1.444006
     50          1           0       12.987241   -1.381828   -2.468220
     51          1           0      -13.379156    1.775249   -1.265452
     52          1           0      -12.658768    2.840159   -0.496264
     53          1           0       11.800224   -0.779468    3.198643
     54          1           0       10.341890    0.306534    2.587705
     55          1           0       11.873702    0.747226    2.333106
     56          1           0       10.931478   -3.044584    0.647062
     57          1           0       11.031206   -2.860411    2.533821
     58          1           0        9.662761   -2.248212    1.567735
     59          1           0      -11.471483    0.292839    2.562449
     60          1           0      -10.984424   -1.531420    2.217447
     61          1           0      -12.491057   -1.251715    2.734184
     62          1           0      -13.617022   -2.878237    0.955838
     63          1           0      -11.774390   -2.928424    1.044469
     64          1           0      -12.475687   -2.493206   -0.603189
     65          1           0        8.796296   -0.410377    0.582608
     66          1           0      -10.221743   -2.157417   -0.546142
     67          1           0        9.828743    0.504189   -2.453373
     68          1           0       11.539555    1.246830   -2.830722
     69          1           0       11.152422   -0.637212   -3.271882
     70          1           0      -11.263840    1.789971   -2.765116
     71          1           0       -9.933836    0.474249   -2.508090
     72          1           0      -10.178360    2.410994   -1.791534
     73          1           0       14.976496   -2.760600    0.206138
     74          1           0      -15.229736    1.790727    1.454139
     75          1           0       10.276662    2.080559   -0.931038
     76          1           0       -8.802594    0.482822   -0.074741
     77          1           0        8.729862    4.120398   -0.437011
     78          1           0        7.447535    4.060208    0.663375
     79          1           0        8.895696    3.931709    1.222813
     80          1           0       -8.229560   -3.235064    0.019319
     81          1           0       -8.621112   -3.085613   -1.543874
     82          1           0       -6.741686   -3.107081   -1.412015
     83          1           0        6.804298    0.466190   -0.549171
     84          1           0       -6.718173    0.429909   -0.121822
     85          1           0        5.525616    3.045609    0.543655
     86          1           0       -4.821687   -2.130407   -0.699415
     87          1           0        4.609497    0.201894    0.251860
     88          1           0       -4.117657    0.529183    0.255123
     89          1           0        3.484648    3.319336    1.507889
     90          1           0        1.725134    3.272967    0.903245
     91          1           0        3.043416    3.852985    0.003639
     92          1           0       -2.739817   -2.840654   -0.130861
     93          1           0       -3.085794   -2.481287   -1.728965
     94          1           0       -1.334986   -2.671655   -1.258021
     95          1           0        2.521139   -0.190592   -0.158850
     96          1           0       -2.189864    1.300327    0.258709
     97          1           0        0.314784    2.041186    0.330975
     98          1           0        0.005097   -1.146039   -0.313180
 ---------------------------------------------------------------------

 SCF Done:  E(RCAM-B3LYP) =  -1706.82018215     A.U. after   14 cycles

 Excitation energies and oscillator strengths:

 Excited State   1:      Singlet-A      2.7476 eV  451.24 nm  f=3.4420  <S**2>=0.000
     155 ->158         0.14644
     156 ->157         0.68591
 This state for optimization and/or second-order correction.
 Total Energy, E(TD-HF/TD-DFT) =  -1706.71920863
 Copying the excited state density for this state as the 1-particle RhoCI density.

 The electronic state is 1-A.
 Alpha  occ. eigenvalues --  -19.20612 -19.20244 -10.31233 -10.30124 -10.28336
 Alpha  occ. eigenvalues --  -10.28285 -10.28165 -10.27931 -10.27834 -10.27768
 Alpha  occ. eigenvalues --  -10.27727 -10.27582 -10.27500 -10.27431 -10.27429
 Alpha  occ. eigenvalues --  -10.27398 -10.27297 -10.27133 -10.27071 -10.26836
 Alpha  occ. eigenvalues --  -10.26784 -10.26574 -10.26550 -10.26528 -10.26506
 Alpha  occ. eigenvalues --  -10.26352 -10.26313 -10.26085 -10.26024 -10.25922
 Alpha  occ. eigenvalues --  -10.25882 -10.25867 -10.25716 -10.25668 -10.25619
 Alpha  occ. eigenvalues --  -10.25214 -10.25020 -10.24895 -10.24270 -10.23973
 Alpha  occ. eigenvalues --  -10.23900 -10.23141  -1.14198  -1.08243  -0.93768
 Alpha  occ. eigenvalues --   -0.92928  -0.92823  -0.92175  -0.90670  -0.90039
 Alpha  occ. eigenvalues --   -0.87679  -0.86995  -0.86767  -0.85799  -0.85331
 Alpha  occ. eigenvalues --   -0.83418  -0.82089  -0.80765  -0.80082  -0.78421
 Alpha  occ. eigenvalues --   -0.76991  -0.76787  -0.76722  -0.76329  -0.75500
 Alpha  occ. eigenvalues --   -0.75176  -0.74839  -0.74062  -0.73525  -0.70891
 Alpha  occ. eigenvalues --   -0.68938  -0.67891  -0.66375  -0.64878  -0.63985
 Alpha  occ. eigenvalues --   -0.62444  -0.62199  -0.61653  -0.60548  -0.60362
 Alpha  occ. eigenvalues --   -0.59957  -0.59129  -0.57899  -0.57383  -0.56614
 Alpha  occ. eigenvalues --   -0.56380  -0.55232  -0.54844  -0.54727  -0.53941
 Alpha  occ. eigenvalues --   -0.53301  -0.52539  -0.51905  -0.51382  -0.51060
 Alpha  occ. eigenvalues --   -0.50799  -0.49999  -0.49710  -0.49626  -0.49137
 Alpha  occ. eigenvalues --   -0.48911  -0.48871  -0.48654  -0.48298  -0.47450
 Alpha  occ. eigenvalues --   -0.47140  -0.47062  -0.46940  -0.46544  -0.46439
 Alpha  occ. eigenvalues --   -0.46272  -0.45911  -0.45548  -0.45360  -0.45074
 Alpha  occ. eigenvalues --   -0.44145  -0.44035  -0.43862  -0.43854  -0.43552
 Alpha  occ. eigenvalues --   -0.42742  -0.42697  -0.42175  -0.42100  -0.41774
 Alpha  occ. eigenvalues --   -0.41488  -0.41408  -0.41211  -0.41114  -0.40941
 Alpha  occ. eigenvalues --   -0.40773  -0.40255  -0.39901  -0.39681  -0.39101
 Alpha  occ. eigenvalues --   -0.38975  -0.38664  -0.38257  -0.37813  -0.37797
 Alpha  occ. eigenvalues --   -0.37485  -0.37087  -0.36835  -0.36570  -0.35383
 Alpha  occ. eigenvalues --   -0.34763  -0.33925  -0.32765  -0.32439  -0.31955
 Alpha  occ. eigenvalues --   -0.31300  -0.29496  -0.27623  -0.26127  -0.24591
 Alpha  occ. eigenvalues --   -0.21043
 Alpha virt. eigenvalues --   -0.04637   0.00034   0.02314   0.05456   0.07483
 Alpha virt. eigenvalues --    0.09093   0.09680   0.11055   0.11194   0.11496
 Alpha virt. eigenvalues --    0.11987   0.12391   0.12916   0.13193   0.13564

 Mulliken charges:
               1
     1  O   -0.500874
     2  O   -0.568266
     3  C   -0.027892
     4  C   -0.008014
     5  C   -0.170511
     6  C   -0.167587
     7  C    0.167633
     8  C    0.143250
     9  C    0.031863
    10  C    0.008890
    11  C   -0.194999
    12  C   -0.229697
    13  C    0.060922
    14  C    0.049624
    15  C   -0.281068
    16  C   -0.305233
    17  C   -0.270267
    18  C   -0.324927
    19  C   -0.110474
    20  C   -0.114899
    21  C   -0.360752
    22  C   -0.357154
    23  C   -0.138316
    24  C   -0.097768
    25  C    0.059146
    26  C    0.192550
    27  C   -0.363467
    28  C   -0.400922
    29  C   -0.124992
    30  C   -0.137486
    31  C   -0.048298
    32  C   -0.092014
    33  C   -0.125157
    34  C   -0.096564
    35  C    0.085081
    36  C    0.114829
    37  C   -0.360451
    38  C   -0.395421
    39  C   -0.087693
    40  C   -0.130298
    41  C   -0.078414
    42  C   -0.101426
    43  H    0.099697
    44  H    0.056997
    45  H    0.044358
    46  H    0.103707
    47  H    0.060681
    48  H    0.092317
    49  H    0.089926
    50  H    0.098601
    51  H    0.140119
    52  H    0.118591
    53  H    0.103608
    54  H    0.105849
    55  H    0.110969
    56  H    0.106119
    57  H    0.088933
    58  H    0.105298
    59  H    0.091216
    60  H    0.108618
    61  H    0.104215
    62  H    0.089763
    63  H    0.103528
    64  H    0.099135
    65  H    0.100700
    66  H    0.068772
    67  H    0.095311
    68  H    0.110182
    69  H    0.102721
    70  H    0.110954
    71  H    0.104737
    72  H    0.095381
    73  H    0.270251
    74  H    0.298622
    75  H    0.102085
    76  H    0.093138
    77  H    0.125762
    78  H    0.111087
    79  H    0.124171
    80  H    0.132836
    81  H    0.097511
    82  H    0.116947
    83  H    0.075001
    84  H    0.091292
    85  H    0.069583
    86  H    0.078848
    87  H    0.090807
    88  H    0.073214
    89  H    0.114026
    90  H    0.079857
    91  H    0.136997
    92  H    0.129827
    93  H    0.114565
    94  H    0.107248
    95  H    0.075503
    96  H    0.070870
    97  H    0.085234
    98  H    0.081229
 Sum of Mulliken charges =  -0.00000

 Dipole moment (field-independent basis, Debye):
    X=              0.3416    Y=             -1.1168    Z=              2.1605  Tot=              2.4560
 Quadrupole moment (field-independent basis, Debye-Ang):
   XX=           -288.7908   YY=           -242.0627   ZZ=           -263.2187
   XY=             17.5944   XZ=             -0.6180   YZ=              1.1253

 Normal termination of Gaussian 16 at Mon Jul  8 17:12:17 2019.
