 Gaussian 16, Revision A.03,
 Gaussian 16:  ES64L-G16RevA.03 25-Dec-2016

 -------------------------------------
 # td=(NStates=1) CAM-B3LYP/6-31G(d,p)
 -------------------------------------

 --
 TD
 --
 Symbolic Z-matrix:
 Charge =  0 Multiplicity = 1

                         Standard orientation:
 ---------------------------------------------------------------------
 Center     Atomic      Atomic             Coordinates (Angstroms)
 Number     Number       Type             X           Y           Z
 ---------------------------------------------------------------------
      1          8           0       14.858636   -1.944920   -0.487431
      2          8           0      -14.561427    2.209736    0.674391
      3          6           0       11.537093   -1.134112    1.262553
      4          6           0      -12.319954   -0.752102    1.011791
      5          6           0       13.057947   -1.215722    1.078281
      6          6           0      -13.604488   -0.074766    0.946158
      7          6           0       13.416186   -1.783934   -0.363568
      8          6           0      -13.341704    1.443101    0.777172
      9          6           0       10.931109   -0.187175    0.045102
     10          6           0      -11.325281   -0.372581   -0.071391
     11          6           0       13.049009   -0.770224   -1.356879
     12          6           0      -12.773575    1.647841   -0.678358
     13          6           0       11.642062   -0.072887   -1.145246
     14          6           0      -11.543954    0.824087   -0.816517
     15          6           0       11.273364   -0.375510    2.705959
     16          6           0       10.818570   -2.537439    1.247657
     17          6           0      -11.669735   -0.605308    2.383932
     18          6           0      -12.707158   -2.269210    0.726418
     19          6           0        9.690201    0.383028    0.348725
     20          6           0      -10.079752   -1.097724   -0.258416
     21          6           0       11.117144    0.608108   -2.337389
     22          6           0      -10.716870    1.258229   -2.122463
     23          6           0        9.259987    1.601644    0.091716
     24          6           0       -8.867561   -0.676692   -0.267659
     25          6           0        7.990142    2.263566    0.161534
     26          6           0       -7.638150   -1.329488   -0.471365
     27          6           0        7.904250    3.608626    0.715057
     28          6           0       -7.774353   -2.774409   -0.693879
     29          6           0        6.817371    1.487573    0.037102
     30          6           0       -6.392460   -0.613081   -0.411321
     31          6           0        5.473103    1.906263    0.133174
     32          6           0       -5.046088   -1.197772   -0.609488
     33          6           0        4.362613    1.113511   -0.054071
     34          6           0       -4.004997   -0.397242   -0.456618
     35          6           0        2.932316    1.495596    0.060037
     36          6           0       -2.607501   -0.841283   -0.648422
     37          6           0        2.757312    2.986740    0.417778
     38          6           0       -2.413341   -2.335176   -0.969006
     39          6           0        2.104515    0.589575   -0.277908
     40          6           0       -1.616539    0.000064   -0.544823
     41          6           0        0.608120    0.786919   -0.156136
     42          6           0       -0.176912   -0.130123   -0.584407
     43          1           0       13.570782   -0.116346    1.345372
     44          1           0       13.341995   -1.896694    1.953255
     45          1           0      -14.319108   -0.273722    1.617419
     46          1           0      -14.096990   -0.218370    0.032485
     47          1           0       12.993005   -2.775189   -0.504226
     48          1           0      -12.774265    1.910366    1.474581
     49          1           0       13.695526    0.091113   -1.278728
     50          1           0       12.983014   -1.054662   -2.455460
     51          1           0      -13.611552    1.495363   -1.292047
     52          1           0      -12.655187    2.678244   -0.875252
     53          1           0       11.834743   -1.040176    3.299805
     54          1           0       10.194670   -0.477259    2.948336
     55          1           0       11.560881    0.732749    2.675505
     56          1           0       11.012962   -2.994009    0.272036
     57          1           0       10.954682   -2.959628    2.244919
     58          1           0        9.651401   -2.432870    1.125307
     59          1           0      -10.994460    0.404703    2.418829
     60          1           0      -10.950175   -1.420857    2.602539
     61          1           0      -12.336349   -0.948746    3.316416
     62          1           0      -13.401516   -2.768751    1.572575
     63          1           0      -11.665078   -2.838167    0.653000
     64          1           0      -13.196258   -2.459341   -0.228965
     65          1           0        8.876505   -0.178160    0.952388
     66          1           0      -10.218987   -2.232285   -0.526791
     67          1           0       10.224417    0.996966   -1.989989
     68          1           0       11.626262    1.458970   -2.697731
     69          1           0       11.116219   -0.077107   -3.102082
     70          1           0      -11.442829    1.562350   -3.070274
     71          1           0      -10.132306    0.526343   -2.303228
     72          1           0      -10.104801    2.289225   -1.821624
     73          1           0       15.150740   -2.689639    0.049306
     74          1           0      -14.917655    2.085100    1.655769
     75          1           0       10.152154    2.328906   -0.354998
     76          1           0       -8.843114    0.494625   -0.271984
     77          1           0        8.550188    4.325837    0.065909
     78          1           0        6.963683    3.983884    0.686360
     79          1           0        8.377276    4.062850    1.683551
     80          1           0       -8.138719   -3.144640    0.153019
     81          1           0       -8.192488   -3.149641   -1.536490
     82          1           0       -6.904259   -3.396296   -0.709727
     83          1           0        7.087266    0.441689   -0.270104
     84          1           0       -6.457150    0.414144   -0.133502
     85          1           0        5.140810    2.948459    0.468219
     86          1           0       -4.912962   -2.236282   -0.699408
     87          1           0        4.619266    0.079151   -0.207258
     88          1           0       -4.144986    0.565902   -0.232123
     89          1           0        3.445197    3.428993    1.406246
     90          1           0        1.600399    3.091609    0.708296
     91          1           0        3.116510    3.401220   -0.611189
     92          1           0       -2.579877   -2.945559    0.046016
     93          1           0       -3.167047   -2.824968   -1.740367
     94          1           0       -1.314104   -2.430028   -1.138515
     95          1           0        2.301811   -0.441998   -0.758747
     96          1           0       -1.921234    1.101121   -0.390400
     97          1           0        0.121816    1.694620    0.100395
     98          1           0        0.019371   -1.054700   -0.951204
 ---------------------------------------------------------------------

 SCF Done:  E(RCAM-B3LYP) =  -1706.92619212     A.U. after   14 cycles

 Excitation energies and oscillator strengths:

 Excited State   1:      Singlet-A      3.1616 eV  392.15 nm  f=3.5996  <S**2>=0.000
     155 ->158         0.26761
     156 ->157         0.63954
 This state for optimization and/or second-order correction.
 Total Energy, E(TD-HF/TD-DFT) =  -1706.81000376
 Copying the excited state density for this state as the 1-particle RhoCI density.

 The electronic state is 1-A.
 Alpha  occ. eigenvalues --  -19.21040 -19.20335 -10.31063 -10.29959 -10.28596
 Alpha  occ. eigenvalues --  -10.28161 -10.27869 -10.27562 -10.27507 -10.27386
 Alpha  occ. eigenvalues --  -10.27313 -10.27218 -10.27049 -10.26995 -10.26971
 Alpha  occ. eigenvalues --  -10.26907 -10.26845 -10.26814 -10.26627 -10.26570
 Alpha  occ. eigenvalues --  -10.26407 -10.26392 -10.26334 -10.26124 -10.26057
 Alpha  occ. eigenvalues --  -10.25965 -10.25871 -10.25785 -10.25751 -10.25745
 Alpha  occ. eigenvalues --  -10.25724 -10.25638 -10.25633 -10.25312 -10.25310
 Alpha  occ. eigenvalues --  -10.25089 -10.25045 -10.24943 -10.23548 -10.23022
 Alpha  occ. eigenvalues --  -10.22923 -10.22611  -1.07952  -1.07275  -0.93798
 Alpha  occ. eigenvalues --   -0.92860  -0.92418  -0.91748  -0.90989  -0.90213
 Alpha  occ. eigenvalues --   -0.88278  -0.86449  -0.86141  -0.85606  -0.84878
 Alpha  occ. eigenvalues --   -0.83634  -0.82453  -0.80863  -0.79778  -0.77548
 Alpha  occ. eigenvalues --   -0.76779  -0.76184  -0.75930  -0.75525  -0.75391
 Alpha  occ. eigenvalues --   -0.74932  -0.74560  -0.74414  -0.74015  -0.70410
 Alpha  occ. eigenvalues --   -0.69057  -0.67339  -0.66259  -0.65465  -0.63451
 Alpha  occ. eigenvalues --   -0.63420  -0.63390  -0.61944  -0.61235  -0.60211
 Alpha  occ. eigenvalues --   -0.58918  -0.58488  -0.58266  -0.57331  -0.55840
 Alpha  occ. eigenvalues --   -0.55728  -0.55000  -0.54581  -0.54368  -0.53688
 Alpha  occ. eigenvalues --   -0.53167  -0.52880  -0.51802  -0.51547  -0.51153
 Alpha  occ. eigenvalues --   -0.50896  -0.50452  -0.49746  -0.49579  -0.49469
 Alpha  occ. eigenvalues --   -0.49117  -0.49083  -0.48351  -0.48196  -0.47786
 Alpha  occ. eigenvalues --   -0.47713  -0.46969  -0.46693  -0.46539  -0.46055
 Alpha  occ. eigenvalues --   -0.45858  -0.45478  -0.45243  -0.45117  -0.44809
 Alpha  occ. eigenvalues --   -0.44416  -0.44282  -0.44024  -0.43921  -0.43648
 Alpha  occ. eigenvalues --   -0.43455  -0.42991  -0.42557  -0.42376  -0.42267
 Alpha  occ. eigenvalues --   -0.41618  -0.41247  -0.41115  -0.40472  -0.40346
 Alpha  occ. eigenvalues --   -0.40125  -0.39745  -0.39730  -0.39436  -0.39121
 Alpha  occ. eigenvalues --   -0.38778  -0.38461  -0.38212  -0.38008  -0.37882
 Alpha  occ. eigenvalues --   -0.37479  -0.37173  -0.36820  -0.36399  -0.36073
 Alpha  occ. eigenvalues --   -0.35148  -0.34240  -0.33484  -0.32455  -0.31452
 Alpha  occ. eigenvalues --   -0.31280  -0.29474  -0.27733  -0.26653  -0.23506
 Alpha  occ. eigenvalues --   -0.21909
 Alpha virt. eigenvalues --   -0.03137  -0.00889   0.03197   0.05498   0.06868
 Alpha virt. eigenvalues --    0.09783   0.11542   0.11685   0.12065   0.12349
 Alpha virt. eigenvalues --    0.12595   0.12937   0.13077   0.13126   0.13173

 Mulliken charges:
               1
     1  O   -0.572607
     2  O   -0.570651
     3  C   -0.017485
     4  C    0.014346
     5  C   -0.181759
     6  C   -0.154396
     7  C    0.171339
     8  C    0.123721
     9  C    0.048049
    10  C    0.036088
    11  C   -0.193053
    12  C   -0.224224
    13  C    0.007816
    14  C    0.030753
    15  C   -0.309540
    16  C   -0.308058
    17  C   -0.304399
    18  C   -0.308782
    19  C   -0.106851
    20  C   -0.144584
    21  C   -0.353896
    22  C   -0.317523
    23  C   -0.123819
    24  C   -0.079440
    25  C    0.100975
    26  C    0.097058
    27  C   -0.364590
    28  C   -0.389196
    29  C   -0.126549
    30  C   -0.141009
    31  C   -0.089464
    32  C   -0.072592
    33  C   -0.113036
    34  C   -0.070664
    35  C    0.117487
    36  C    0.123161
    37  C   -0.351888
    38  C   -0.371951
    39  C   -0.129833
    40  C   -0.170957
    41  C   -0.094908
    42  C   -0.023983
    43  H    0.089118
    44  H    0.070729
    45  H    0.085323
    46  H    0.109973
    47  H    0.090947
    48  H    0.090776
    49  H    0.137999
    50  H    0.095863
    51  H    0.130059
    52  H    0.109306
    53  H    0.101800
    54  H    0.101997
    55  H    0.111555
    56  H    0.115477
    57  H    0.108333
    58  H    0.091519
    59  H    0.100607
    60  H    0.109591
    61  H    0.084826
    62  H    0.080009
    63  H    0.080948
    64  H    0.115038
    65  H    0.083011
    66  H    0.081809
    67  H    0.120846
    68  H    0.116088
    69  H    0.115696
    70  H    0.091076
    71  H    0.128188
    72  H    0.086824
    73  H    0.300560
    74  H    0.294315
    75  H    0.054939
    76  H    0.069899
    77  H    0.092042
    78  H    0.120879
    79  H    0.115592
    80  H    0.137000
    81  H    0.130563
    82  H    0.096932
    83  H    0.085315
    84  H    0.084425
    85  H    0.074194
    86  H    0.086545
    87  H    0.073615
    88  H    0.071322
    89  H    0.104865
    90  H    0.102554
    91  H    0.142069
    92  H    0.106655
    93  H    0.117823
    94  H    0.104218
    95  H    0.099162
    96  H    0.060884
    97  H    0.084034
    98  H    0.065162
 Sum of Mulliken charges =  -0.00000

 Dipole moment (field-independent basis, Debye):
    X=             -0.1328    Y=             -2.0430    Z=              1.6771  Tot=              2.6465
 Quadrupole moment (field-independent basis, Debye-Ang):
   XX=           -295.9302   YY=           -244.0653   ZZ=           -258.8189
   XY=              5.4010   XZ=             -4.9224   YZ=              2.5109

 Normal termination of Gaussian 16 at Mon Jul  1 23:36:23 2019.
