 Gaussian 16, Revision A.03,
 Gaussian 16:  ES64L-G16RevA.03 25-Dec-2016

 -------------------------------------
 # td=(NStates=1) CAM-B3LYP/6-31G(d,p)
 -------------------------------------

 --
 TD
 --
 Symbolic Z-matrix:
 Charge =  0 Multiplicity = 1

                         Standard orientation:
 ---------------------------------------------------------------------
 Center     Atomic      Atomic             Coordinates (Angstroms)
 Number     Number       Type             X           Y           Z
 ---------------------------------------------------------------------
      1          8           0       14.596342   -2.245958   -0.314598
      2          8           0      -14.717086    1.946377    0.714794
      3          6           0       11.307544   -1.228446    1.225640
      4          6           0      -12.267384   -0.985330    0.772399
      5          6           0       12.838254   -1.538174    1.087992
      6          6           0      -13.658522   -0.160622    0.613377
      7          6           0       13.243460   -2.042734   -0.276569
      8          6           0      -13.430221    1.381991    0.708108
      9          6           0       10.867319   -0.352830   -0.079099
     10          6           0      -11.274573   -0.257752   -0.119309
     11          6           0       12.986728   -0.993874   -1.255863
     12          6           0      -12.717875    1.662301   -0.525903
     13          6           0       11.638923   -0.234063   -1.066766
     14          6           0      -11.477671    0.874442   -0.673048
     15          6           0       11.100716   -0.422628    2.416181
     16          6           0       10.575167   -2.460193    1.304395
     17          6           0      -11.703497   -1.011558    2.254281
     18          6           0      -12.555089   -2.421564    0.415009
     19          6           0        9.572935    0.472367    0.214118
     20          6           0      -10.002659   -1.104175   -0.283808
     21          6           0       11.130095    0.342485   -2.386468
     22          6           0      -10.660219    1.372642   -1.834816
     23          6           0        9.390940    1.676097   -0.129038
     24          6           0       -8.827613   -0.546928   -0.178484
     25          6           0        8.107325    2.332267    0.039405
     26          6           0       -7.588405   -1.324283   -0.424327
     27          6           0        8.194807    3.854095    0.405649
     28          6           0       -7.660888   -2.768032   -0.758378
     29          6           0        6.901682    1.691525   -0.013687
     30          6           0       -6.387191   -0.613710   -0.307020
     31          6           0        5.462078    2.132059    0.195695
     32          6           0       -5.056634   -1.030828   -0.462624
     33          6           0        4.467472    1.330501    0.037145
     34          6           0       -3.970655   -0.290377   -0.373798
     35          6           0        3.088146    1.720189    0.280165
     36          6           0       -2.594695   -0.657584   -0.585736
     37          6           0        2.787705    3.075452    0.631737
     38          6           0       -2.393081   -2.168934   -1.014078
     39          6           0        2.207483    0.780619   -0.128124
     40          6           0       -1.591980    0.223739   -0.369406
     41          6           0        0.721815    0.930730    0.010786
     42          6           0       -0.135718    0.024663   -0.491689
     43          1           0       13.432053   -0.547209    1.388506
     44          1           0       13.179115   -2.336711    1.743624
     45          1           0      -14.420880   -0.604302    1.301241
     46          1           0      -14.022100   -0.212154   -0.410617
     47          1           0       12.659687   -2.819149   -0.559192
     48          1           0      -12.836950    1.620954    1.601464
     49          1           0       13.644708   -0.184603   -1.353384
     50          1           0       13.150262   -1.275322   -2.363557
     51          1           0      -13.425289    1.514035   -1.428381
     52          1           0      -12.542576    2.704956   -0.630724
     53          1           0       11.405443   -0.824645    3.503094
     54          1           0       10.072567   -0.150859    2.742978
     55          1           0       11.632596    0.557435    2.310837
     56          1           0       10.673128   -3.105556    0.540219
     57          1           0       10.905490   -2.728713    2.375875
     58          1           0        9.557490   -2.291130    1.380228
     59          1           0      -11.765712    0.112580    2.689078
     60          1           0      -10.702230   -1.313877    2.492467
     61          1           0      -12.447240   -1.398267    2.924349
     62          1           0      -13.332262   -2.852624    1.131395
     63          1           0      -11.669598   -3.178474    0.681770
     64          1           0      -12.695749   -2.883365   -0.666272
     65          1           0        8.784092   -0.051059    0.749590
     66          1           0      -10.014872   -1.947010   -0.740191
     67          1           0       10.117014    0.551624   -2.358111
     68          1           0       11.696535    1.233778   -2.670579
     69          1           0       11.182050   -0.318980   -3.198093
     70          1           0      -11.281836    1.473774   -2.690497
     71          1           0       -9.891354    0.653662   -2.352296
     72          1           0      -10.258622    2.402595   -1.625879
     73          1           0       14.830851   -3.306797   -0.003464
     74          1           0      -15.211803    1.932517    1.686187
     75          1           0       10.076710    2.437431   -0.465295
     76          1           0       -8.682791    0.403072    0.029966
     77          1           0        8.766736    4.386416   -0.382655
     78          1           0        7.267474    4.522092    0.071636
     79          1           0        8.631814    4.125199    1.395139
     80          1           0       -8.339531   -3.328929   -0.235310
     81          1           0       -8.278587   -2.903045   -1.629896
     82          1           0       -6.768305   -3.453236   -0.647563
     83          1           0        6.988898    0.715161   -0.292922
     84          1           0       -6.542827    0.529928   -0.189347
     85          1           0        5.394367    3.252327    0.585979
     86          1           0       -4.993086   -1.998222   -0.864621
     87          1           0        4.662430    0.263926   -0.307929
     88          1           0       -3.943533    0.715855    0.003374
     89          1           0        3.276277    3.532508    1.500690
     90          1           0        1.927195    3.342859    0.944662
     91          1           0        3.165454    3.793555    0.004841
     92          1           0       -2.875862   -2.830078   -0.401812
     93          1           0       -2.907596   -2.336690   -1.917096
     94          1           0       -1.423043   -2.514839   -1.074995
     95          1           0        2.638694   -0.259903   -0.303073
     96          1           0       -1.900679    1.219294   -0.170940
     97          1           0        0.326659    1.837307    0.587997
     98          1           0        0.278924   -1.063711   -0.878339
 ---------------------------------------------------------------------

 SCF Done:  E(RCAM-B3LYP) =  -1706.95887354     A.U. after   13 cycles

 Excitation energies and oscillator strengths:

 Excited State   1:      Singlet-A      3.1699 eV  391.13 nm  f=3.6304  <S**2>=0.000
     155 ->158        -0.18248
     156 ->157         0.67649
 This state for optimization and/or second-order correction.
 Total Energy, E(TD-HF/TD-DFT) =  -1706.84238268
 Copying the excited state density for this state as the 1-particle RhoCI density.

 The electronic state is 1-A.
 Alpha  occ. eigenvalues --  -19.22287 -19.21579 -10.29697 -10.28600 -10.27812
 Alpha  occ. eigenvalues --  -10.27601 -10.27464 -10.27081 -10.27060 -10.26750
 Alpha  occ. eigenvalues --  -10.26714 -10.26548 -10.26467 -10.26401 -10.26332
 Alpha  occ. eigenvalues --  -10.26167 -10.26135 -10.25883 -10.25615 -10.25407
 Alpha  occ. eigenvalues --  -10.25256 -10.25235 -10.25170 -10.25133 -10.25107
 Alpha  occ. eigenvalues --  -10.25035 -10.24955 -10.24937 -10.24929 -10.24844
 Alpha  occ. eigenvalues --  -10.24717 -10.24677 -10.24615 -10.24522 -10.24471
 Alpha  occ. eigenvalues --  -10.24241 -10.24181 -10.23630 -10.23583 -10.23233
 Alpha  occ. eigenvalues --  -10.22999 -10.22817  -1.09295  -1.07734  -0.93891
 Alpha  occ. eigenvalues --   -0.93593  -0.92380  -0.91604  -0.90358  -0.90100
 Alpha  occ. eigenvalues --   -0.87775  -0.87218  -0.86582  -0.85378  -0.84424
 Alpha  occ. eigenvalues --   -0.83126  -0.82552  -0.80461  -0.80348  -0.79408
 Alpha  occ. eigenvalues --   -0.77681  -0.76911  -0.76812  -0.75825  -0.75716
 Alpha  occ. eigenvalues --   -0.75290  -0.74879  -0.74661  -0.74012  -0.70625
 Alpha  occ. eigenvalues --   -0.68560  -0.66870  -0.65971  -0.65414  -0.64391
 Alpha  occ. eigenvalues --   -0.63068  -0.62704  -0.61090  -0.60871  -0.60280
 Alpha  occ. eigenvalues --   -0.59856  -0.59667  -0.59200  -0.57988  -0.56261
 Alpha  occ. eigenvalues --   -0.55963  -0.55267  -0.54888  -0.54623  -0.54230
 Alpha  occ. eigenvalues --   -0.53303  -0.52777  -0.52038  -0.51897  -0.51028
 Alpha  occ. eigenvalues --   -0.50670  -0.50117  -0.50031  -0.49434  -0.49200
 Alpha  occ. eigenvalues --   -0.48944  -0.48649  -0.48614  -0.48188  -0.48035
 Alpha  occ. eigenvalues --   -0.47905  -0.47532  -0.47155  -0.46653  -0.46050
 Alpha  occ. eigenvalues --   -0.45910  -0.45527  -0.45263  -0.45056  -0.44854
 Alpha  occ. eigenvalues --   -0.44810  -0.44237  -0.43419  -0.43183  -0.43127
 Alpha  occ. eigenvalues --   -0.42686  -0.42287  -0.42211  -0.41980  -0.41270
 Alpha  occ. eigenvalues --   -0.41020  -0.40883  -0.40868  -0.40665  -0.40246
 Alpha  occ. eigenvalues --   -0.40192  -0.39895  -0.39790  -0.39423  -0.39002
 Alpha  occ. eigenvalues --   -0.38913  -0.38682  -0.38498  -0.38137  -0.38040
 Alpha  occ. eigenvalues --   -0.37758  -0.37290  -0.37222  -0.36308  -0.35920
 Alpha  occ. eigenvalues --   -0.35072  -0.34347  -0.32582  -0.32256  -0.31216
 Alpha  occ. eigenvalues --   -0.30400  -0.30139  -0.29160  -0.27463  -0.24529
 Alpha  occ. eigenvalues --   -0.21559
 Alpha virt. eigenvalues --   -0.02985   0.00643   0.04049   0.07349   0.08468
 Alpha virt. eigenvalues --    0.09081   0.09723   0.10779   0.11720   0.12851
 Alpha virt. eigenvalues --    0.13178   0.13392   0.13586   0.14128   0.14571

 Mulliken charges:
               1
     1  O   -0.556602
     2  O   -0.580152
     3  C   -0.005842
     4  C    0.001529
     5  C   -0.167258
     6  C   -0.186987
     7  C    0.193952
     8  C    0.182164
     9  C    0.047332
    10  C    0.051927
    11  C   -0.216876
    12  C   -0.228322
    13  C    0.017197
    14  C    0.069955
    15  C   -0.312232
    16  C   -0.274722
    17  C   -0.307693
    18  C   -0.301350
    19  C   -0.129023
    20  C   -0.119670
    21  C   -0.365986
    22  C   -0.365145
    23  C   -0.044080
    24  C   -0.032351
    25  C    0.049784
    26  C    0.108046
    27  C   -0.380054
    28  C   -0.404555
    29  C   -0.122247
    30  C   -0.148318
    31  C   -0.088790
    32  C   -0.075817
    33  C   -0.100197
    34  C   -0.100244
    35  C    0.153014
    36  C    0.122409
    37  C   -0.380636
    38  C   -0.378222
    39  C   -0.148467
    40  C   -0.161369
    41  C   -0.095273
    42  C   -0.075598
    43  H    0.083964
    44  H    0.070323
    45  H    0.066446
    46  H    0.108624
    47  H    0.087495
    48  H    0.081876
    49  H    0.126019
    50  H    0.086351
    51  H    0.111091
    52  H    0.103559
    53  H    0.075235
    54  H    0.101310
    55  H    0.104951
    56  H    0.101583
    57  H    0.089046
    58  H    0.100965
    59  H    0.065139
    60  H    0.129039
    61  H    0.103300
    62  H    0.099420
    63  H    0.074891
    64  H    0.093984
    65  H    0.096229
    66  H    0.067696
    67  H    0.120829
    68  H    0.101667
    69  H    0.112139
    70  H    0.117193
    71  H    0.105114
    72  H    0.103063
    73  H    0.298046
    74  H    0.312407
    75  H    0.090993
    76  H    0.071944
    77  H    0.108373
    78  H    0.091114
    79  H    0.127140
    80  H    0.130876
    81  H    0.123510
    82  H    0.116085
    83  H    0.062196
    84  H    0.069362
    85  H    0.078072
    86  H    0.076662
    87  H    0.086655
    88  H    0.071669
    89  H    0.110315
    90  H    0.110741
    91  H    0.136288
    92  H    0.124915
    93  H    0.123875
    94  H    0.106155
    95  H    0.085609
    96  H    0.081674
    97  H    0.093365
    98  H    0.080187
 Sum of Mulliken charges =  -0.00000

 Dipole moment (field-independent basis, Debye):
    X=             -0.5196    Y=             -1.5779    Z=              1.1519  Tot=              2.0216
 Quadrupole moment (field-independent basis, Debye-Ang):
   XX=           -270.5920   YY=           -235.2651   ZZ=           -257.7041
   XY=             -4.6187   XZ=            -12.7455   YZ=              6.3978

 Normal termination of Gaussian 16 at Sat Jun 29 18:26:33 2019.
