 Gaussian 16, Revision A.03,
 Gaussian 16:  ES64L-G16RevA.03 25-Dec-2016

 -------------------------------------
 # td=(NStates=1) CAM-B3LYP/6-31G(d,p)
 -------------------------------------

 --
 TD
 --
 Symbolic Z-matrix:
 Charge =  0 Multiplicity = 1

                         Standard orientation:
 ---------------------------------------------------------------------
 Center     Atomic      Atomic             Coordinates (Angstroms)
 Number     Number       Type             X           Y           Z
 ---------------------------------------------------------------------
      1          8           0       14.747082   -2.303092   -0.577772
      2          8           0      -15.026450    1.878893    0.514688
      3          6           0       11.592667   -1.108770    1.148766
      4          6           0      -12.355228   -0.930629    0.836637
      5          6           0       13.155051   -1.518390    1.097091
      6          6           0      -13.753999   -0.268846    0.730009
      7          6           0       13.416827   -1.979913   -0.390704
      8          6           0      -13.645372    1.199039    0.561540
      9          6           0       11.011981   -0.405363    0.022048
     10          6           0      -11.420069   -0.433824   -0.129158
     11          6           0       12.975274   -0.814585   -1.281782
     12          6           0      -12.859365    1.588385   -0.581610
     13          6           0       11.651943   -0.324409   -1.133221
     14          6           0      -11.606164    0.701630   -0.780778
     15          6           0       11.484661   -0.232198    2.504613
     16          6           0       10.762991   -2.442348    1.350289
     17          6           0      -11.750992   -0.856073    2.298683
     18          6           0      -12.665463   -2.393792    0.500259
     19          6           0        9.773003    0.289714    0.235363
     20          6           0      -10.120774   -1.115582   -0.225631
     21          6           0       11.142615    0.379573   -2.432521
     22          6           0      -10.647651    1.456782   -1.789254
     23          6           0        9.435302    1.578039   -0.058947
     24          6           0       -8.923943   -0.567860   -0.171338
     25          6           0        8.152081    2.177597    0.156511
     26          6           0       -7.656987   -1.264822   -0.527908
     27          6           0        8.219741    3.663394    0.636865
     28          6           0       -7.782137   -2.696547   -0.764171
     29          6           0        6.950519    1.482113   -0.095934
     30          6           0       -6.523475   -0.510195   -0.362640
     31          6           0        5.575217    2.126629    0.033845
     32          6           0       -5.111443   -0.910196   -0.484092
     33          6           0        4.431795    1.297278   -0.048717
     34          6           0       -4.066527   -0.192771   -0.490779
     35          6           0        3.093978    1.702376    0.273247
     36          6           0       -2.684683   -0.622923   -0.558664
     37          6           0        2.853339    3.075233    0.578016
     38          6           0       -2.473153   -2.101643   -0.838639
     39          6           0        2.065551    0.883442   -0.105221
     40          6           0       -1.696230    0.342962   -0.397309
     41          6           0        0.688003    0.966961   -0.047764
     42          6           0       -0.217628    0.066817   -0.352958
     43          1           0       13.936795   -0.635969    1.269996
     44          1           0       13.439073   -2.325070    1.801355
     45          1           0      -14.232041   -0.471181    1.620375
     46          1           0      -14.409720   -0.718583   -0.150394
     47          1           0       12.822078   -2.749613   -0.763747
     48          1           0      -13.006826    1.624752    1.350239
     49          1           0       13.823734   -0.071082   -0.931014
     50          1           0       13.283525   -1.150833   -2.388612
     51          1           0      -13.481508    1.454606   -1.447217
     52          1           0      -12.800531    2.706532   -0.391300
     53          1           0       12.024310   -0.798068    3.333987
     54          1           0       10.335693    0.049919    2.518373
     55          1           0       11.937294    0.810464    2.283390
     56          1           0       10.763352   -3.126079    0.486853
     57          1           0       10.802107   -3.132594    2.422105
     58          1           0        9.857312   -2.059740    1.536720
     59          1           0      -11.627937    0.249209    2.749741
     60          1           0      -10.730178   -1.427278    2.218121
     61          1           0      -12.411932   -1.323597    3.029194
     62          1           0      -13.218819   -2.895256    1.326837
     63          1           0      -11.760176   -2.938504    0.611909
     64          1           0      -13.166757   -2.462549   -0.595052
     65          1           0        9.027748   -0.355343    0.621777
     66          1           0      -10.084123   -2.261860   -0.366918
     67          1           0       10.152959    0.759280   -2.152279
     68          1           0       11.736534    1.321006   -2.415187
     69          1           0       11.387428   -0.119828   -3.315005
     70          1           0      -11.192503    1.794707   -2.514376
     71          1           0       -9.696445    0.950645   -2.008483
     72          1           0      -10.216838    2.477399   -1.099498
     73          1           0       14.787861   -3.047888    0.064927
     74          1           0      -15.476326    1.333295    1.314060
     75          1           0       10.183805    2.269619   -0.481545
     76          1           0       -8.914329    0.530067    0.007626
     77          1           0        8.886705    4.323396   -0.014973
     78          1           0        7.237668    4.131922    0.583491
     79          1           0        8.744446    3.720671    1.714187
     80          1           0       -8.293896   -3.345212    0.053667
     81          1           0       -8.322868   -3.121103   -1.642184
     82          1           0       -6.689332   -3.144070   -1.135076
     83          1           0        7.229077    0.511053   -0.316709
     84          1           0       -6.718984    0.593878    0.074841
     85          1           0        5.392984    3.167541    0.453890
     86          1           0       -4.808697   -2.117168   -0.676099
     87          1           0        4.612408    0.273881   -0.404748
     88          1           0       -4.094521    0.788103   -0.219106
     89          1           0        3.502749    3.252488    1.537723
     90          1           0        1.737607    3.457205    1.046020
     91          1           0        3.362718    3.762772   -0.196210
     92          1           0       -2.903148   -2.572651   -0.088593
     93          1           0       -2.975204   -2.253709   -1.763993
     94          1           0       -1.312052   -2.246598   -0.990584
     95          1           0        2.552040   -0.057295   -0.452071
     96          1           0       -1.915014    1.228072    0.228229
     97          1           0        0.217498    1.956648    0.338916
     98          1           0        0.090600   -0.894518   -0.657139
 ---------------------------------------------------------------------

 SCF Done:  E(RCAM-B3LYP) =  -1706.94083068     A.U. after   14 cycles

 Excitation energies and oscillator strengths:

 Excited State   1:      Singlet-A      2.8588 eV  433.69 nm  f=3.4902  <S**2>=0.000
     155 ->158        -0.17276
     156 ->157         0.67587
 This state for optimization and/or second-order correction.
 Total Energy, E(TD-HF/TD-DFT) =  -1706.83577179
 Copying the excited state density for this state as the 1-particle RhoCI density.

 The electronic state is 1-A.
 Alpha  occ. eigenvalues --  -19.21651 -19.21396 -10.29332 -10.29165 -10.28539
 Alpha  occ. eigenvalues --  -10.28453 -10.28282 -10.28108 -10.28073 -10.28033
 Alpha  occ. eigenvalues --  -10.27788 -10.27687 -10.27514 -10.27416 -10.27349
 Alpha  occ. eigenvalues --  -10.27143 -10.27117 -10.27081 -10.27001 -10.26955
 Alpha  occ. eigenvalues --  -10.26939 -10.26627 -10.26461 -10.26448 -10.26355
 Alpha  occ. eigenvalues --  -10.26237 -10.26201 -10.26109 -10.26011 -10.25971
 Alpha  occ. eigenvalues --  -10.25962 -10.25907 -10.25659 -10.25599 -10.25550
 Alpha  occ. eigenvalues --  -10.25499 -10.25486 -10.25269 -10.24918 -10.24777
 Alpha  occ. eigenvalues --  -10.24727 -10.24544  -1.10948  -1.04743  -0.95106
 Alpha  occ. eigenvalues --   -0.94503  -0.92814  -0.92272  -0.90793  -0.89999
 Alpha  occ. eigenvalues --   -0.88088  -0.87036  -0.86349  -0.86056  -0.84723
 Alpha  occ. eigenvalues --   -0.83715  -0.81819  -0.80243  -0.79320  -0.78688
 Alpha  occ. eigenvalues --   -0.77068  -0.76782  -0.76411  -0.76147  -0.75613
 Alpha  occ. eigenvalues --   -0.75491  -0.75329  -0.74748  -0.73625  -0.70696
 Alpha  occ. eigenvalues --   -0.69286  -0.67425  -0.65688  -0.65186  -0.64560
 Alpha  occ. eigenvalues --   -0.63553  -0.62788  -0.61703  -0.60126  -0.59652
 Alpha  occ. eigenvalues --   -0.59255  -0.59022  -0.58175  -0.57298  -0.56138
 Alpha  occ. eigenvalues --   -0.55436  -0.55416  -0.54792  -0.54109  -0.53711
 Alpha  occ. eigenvalues --   -0.53664  -0.52994  -0.52027  -0.51622  -0.51393
 Alpha  occ. eigenvalues --   -0.50776  -0.50498  -0.50247  -0.50020  -0.49367
 Alpha  occ. eigenvalues --   -0.48728  -0.48624  -0.48584  -0.48094  -0.47998
 Alpha  occ. eigenvalues --   -0.47577  -0.47489  -0.47266  -0.46937  -0.46820
 Alpha  occ. eigenvalues --   -0.46338  -0.45755  -0.45443  -0.45165  -0.45089
 Alpha  occ. eigenvalues --   -0.44598  -0.44382  -0.44046  -0.43885  -0.43643
 Alpha  occ. eigenvalues --   -0.42952  -0.42554  -0.42445  -0.42050  -0.41741
 Alpha  occ. eigenvalues --   -0.41508  -0.41309  -0.41271  -0.41032  -0.40968
 Alpha  occ. eigenvalues --   -0.40527  -0.40475  -0.40341  -0.39829  -0.39367
 Alpha  occ. eigenvalues --   -0.38994  -0.38882  -0.38325  -0.38320  -0.37681
 Alpha  occ. eigenvalues --   -0.37398  -0.37125  -0.36748  -0.36688  -0.35839
 Alpha  occ. eigenvalues --   -0.35500  -0.34903  -0.33814  -0.32300  -0.32149
 Alpha  occ. eigenvalues --   -0.30972  -0.30090  -0.28589  -0.26930  -0.24840
 Alpha  occ. eigenvalues --   -0.21558
 Alpha virt. eigenvalues --   -0.04403  -0.00630   0.02330   0.05260   0.07252
 Alpha virt. eigenvalues --    0.08514   0.10156   0.10675   0.11006   0.11658
 Alpha virt. eigenvalues --    0.11816   0.11875   0.12351   0.12662   0.13248

 Mulliken charges:
               1
     1  O   -0.542644
     2  O   -0.576458
     3  C   -0.048859
     4  C   -0.057295
     5  C   -0.190027
     6  C   -0.175033
     7  C    0.152634
     8  C    0.138093
     9  C    0.098323
    10  C    0.133653
    11  C   -0.243950
    12  C   -0.215862
    13  C    0.067614
    14  C   -0.002783
    15  C   -0.296786
    16  C   -0.294191
    17  C   -0.303162
    18  C   -0.291617
    19  C   -0.141215
    20  C   -0.147938
    21  C   -0.353295
    22  C   -0.313826
    23  C   -0.109348
    24  C   -0.098123
    25  C    0.058431
    26  C    0.158006
    27  C   -0.357621
    28  C   -0.396890
    29  C   -0.095696
    30  C   -0.146805
    31  C   -0.120670
    32  C   -0.098095
    33  C   -0.111595
    34  C   -0.041334
    35  C    0.144834
    36  C    0.079959
    37  C   -0.387742
    38  C   -0.362688
    39  C   -0.115421
    40  C   -0.161080
    41  C   -0.071179
    42  C   -0.069709
    43  H    0.088999
    44  H    0.082026
    45  H    0.085669
    46  H    0.090284
    47  H    0.081821
    48  H    0.084155
    49  H    0.104205
    50  H    0.082127
    51  H    0.118091
    52  H    0.113469
    53  H    0.105679
    54  H    0.092057
    55  H    0.098143
    56  H    0.109192
    57  H    0.059857
    58  H    0.117044
    59  H    0.093647
    60  H    0.107445
    61  H    0.105395
    62  H    0.094637
    63  H    0.096964
    64  H    0.098073
    65  H    0.094556
    66  H    0.076324
    67  H    0.118692
    68  H    0.114246
    69  H    0.120290
    70  H    0.124454
    71  H    0.124980
    72  H    0.064495
    73  H    0.308379
    74  H    0.302774
    75  H    0.097563
    76  H    0.085670
    77  H    0.107654
    78  H    0.113443
    79  H    0.110423
    80  H    0.124997
    81  H    0.130791
    82  H    0.086323
    83  H    0.083667
    84  H    0.087521
    85  H    0.094154
    86  H    0.058385
    87  H    0.091541
    88  H    0.069315
    89  H    0.102566
    90  H    0.095869
    91  H    0.128523
    92  H    0.146118
    93  H    0.134443
    94  H    0.099558
    95  H    0.067742
    96  H    0.089537
    97  H    0.067822
    98  H    0.075597
 Sum of Mulliken charges =  -0.00000

 Dipole moment (field-independent basis, Debye):
    X=             -0.6721    Y=             -2.3090    Z=              2.0299  Tot=              3.1471
 Quadrupole moment (field-independent basis, Debye-Ang):
   XX=           -305.3174   YY=           -247.7183   ZZ=           -262.5227
   XY=             22.6380   XZ=             -3.8099   YZ=              1.3415

 Normal termination of Gaussian 16 at Tue Jul  9 03:18:30 2019.
