 Gaussian 16, Revision A.03,
 Gaussian 16:  ES64L-G16RevA.03 25-Dec-2016

 -------------------------------------
 # td=(NStates=1) CAM-B3LYP/6-31G(d,p)
 -------------------------------------

 --
 TD
 --
 Symbolic Z-matrix:
 Charge =  0 Multiplicity = 1

                         Standard orientation:
 ---------------------------------------------------------------------
 Center     Atomic      Atomic             Coordinates (Angstroms)
 Number     Number       Type             X           Y           Z
 ---------------------------------------------------------------------
      1          8           0       14.797552   -2.187654   -0.417623
      2          8           0      -14.790726    1.993069    0.748940
      3          6           0       11.511558   -1.021154    1.122769
      4          6           0      -12.320182   -0.907846    0.634643
      5          6           0       13.037710   -1.400655    1.115248
      6          6           0      -13.646819   -0.118924    0.547002
      7          6           0       13.356712   -1.900657   -0.243125
      8          6           0      -13.534233    1.375219    0.755948
      9          6           0       10.973382   -0.300177    0.011679
     10          6           0      -11.305905   -0.228678   -0.181333
     11          6           0       12.946677   -0.828410   -1.370049
     12          6           0      -12.589790    1.893759   -0.350765
     13          6           0       11.669991   -0.179326   -1.100207
     14          6           0      -11.415409    0.970409   -0.644867
     15          6           0       11.312644   -0.106902    2.424265
     16          6           0       10.645016   -2.249617    1.577887
     17          6           0      -11.819182   -1.006448    2.107412
     18          6           0      -12.612583   -2.283461    0.103989
     19          6           0        9.626097    0.364737    0.093924
     20          6           0      -10.097388   -1.137027   -0.465658
     21          6           0       11.251679    0.468943   -2.417929
     22          6           0      -10.525171    1.790898   -1.534880
     23          6           0        9.408178    1.651205   -0.160570
     24          6           0       -8.907432   -0.565234   -0.392450
     25          6           0        8.132807    2.272150   -0.068433
     26          6           0       -7.685803   -1.283458   -0.555101
     27          6           0        8.046292    3.666107    0.333815
     28          6           0       -7.755826   -2.756482   -0.902586
     29          6           0        6.922230    1.574498   -0.162690
     30          6           0       -6.554646   -0.611478   -0.352060
     31          6           0        5.534781    2.016253   -0.035856
     32          6           0       -5.183201   -1.131280   -0.336973
     33          6           0        4.455637    1.156878   -0.054247
     34          6           0       -4.091616   -0.332437   -0.210933
     35          6           0        3.083364    1.480168    0.215323
     36          6           0       -2.712779   -0.863987   -0.316946
     37          6           0        2.803866    3.003456    0.532708
     38          6           0       -2.518384   -2.365174   -0.717737
     39          6           0        2.174894    0.503231    0.023690
     40          6           0       -1.676770   -0.039704   -0.065723
     41          6           0        0.701546    0.686980    0.074541
     42          6           0       -0.283308   -0.263927   -0.127868
     43          1           0       13.679749   -0.339311    1.348258
     44          1           0       13.218169   -2.153291    1.834831
     45          1           0      -14.335748   -0.602543    1.303174
     46          1           0      -14.204546   -0.259753   -0.432036
     47          1           0       12.775538   -2.839469   -0.227075
     48          1           0      -12.976238    1.385252    1.675007
     49          1           0       13.785582   -0.039705   -1.384084
     50          1           0       12.814407   -1.325938   -2.379946
     51          1           0      -13.168297    1.773819   -1.317792
     52          1           0      -12.337344    2.896513   -0.241258
     53          1           0       11.674535   -0.628550    3.365901
     54          1           0       10.366318    0.212344    2.474213
     55          1           0       11.994947    0.834492    2.572749
     56          1           0       10.828506   -2.859624    0.721594
     57          1           0       11.025568   -2.721112    2.437924
     58          1           0        9.598929   -1.852789    1.597588
     59          1           0      -11.759950   -0.098556    2.599876
     60          1           0      -10.898975   -1.400719    1.922148
     61          1           0      -12.410896   -1.634766    2.727318
     62          1           0      -13.540933   -2.971917    0.444887
     63          1           0      -11.768954   -2.844883    0.322943
     64          1           0      -12.711928   -2.390256   -0.919728
     65          1           0        8.797932   -0.330352    0.585907
     66          1           0      -10.443063   -2.113390   -0.385399
     67          1           0       10.319804    0.742935   -2.464056
     68          1           0       11.807376    1.334423   -2.615313
     69          1           0       11.324469   -0.399087   -3.258759
     70          1           0      -10.947773    1.997038   -2.367231
     71          1           0       -9.673791    0.915529   -1.881363
     72          1           0      -10.108559    2.720472   -1.018466
     73          1           0       14.973265   -2.934122    0.126224
     74          1           0      -15.361631    1.920218    1.532059
     75          1           0       10.258732    2.321685   -0.528540
     76          1           0       -8.872825    0.506158   -0.132180
     77          1           0        8.317106    4.373241   -0.621681
     78          1           0        7.020093    4.014063    0.591969
     79          1           0        8.836322    3.919110    1.356869
     80          1           0       -8.325427   -3.297744   -0.228489
     81          1           0       -8.217806   -2.845951   -1.824973
     82          1           0       -6.880267   -3.257423   -1.147729
     83          1           0        7.077856    0.500149   -0.501508
     84          1           0       -6.659630    0.425001   -0.070289
     85          1           0        5.283390    3.170554    0.169882
     86          1           0       -4.976892   -2.132480   -0.535959
     87          1           0        4.581418    0.142987   -0.363917
     88          1           0       -3.962485    0.776877   -0.270690
     89          1           0        3.226776    3.444161    1.427431
     90          1           0        1.661885    3.219982    0.547592
     91          1           0        3.180223    3.550745   -0.170435
     92          1           0       -2.993428   -3.021620    0.066254
     93          1           0       -2.774457   -2.489849   -1.527541
     94          1           0       -1.341486   -2.544742   -0.866380
     95          1           0        2.432118   -0.437559   -0.500170
     96          1           0       -2.044513    0.983205    0.211369
     97          1           0        0.417718    1.581936    0.428015
     98          1           0        0.212694   -1.293387   -0.294675
 ---------------------------------------------------------------------

 SCF Done:  E(RCAM-B3LYP) =  -1706.95208936     A.U. after   14 cycles

 Excitation energies and oscillator strengths:

 Excited State   1:      Singlet-A      2.7947 eV  443.64 nm  f=3.6587  <S**2>=0.000
     155 ->158        -0.18444
     156 ->157         0.67628
 This state for optimization and/or second-order correction.
 Total Energy, E(TD-HF/TD-DFT) =  -1706.84938532
 Copying the excited state density for this state as the 1-particle RhoCI density.

 The electronic state is 1-A.
 Alpha  occ. eigenvalues --  -19.20763 -19.20444 -10.30718 -10.29461 -10.28137
 Alpha  occ. eigenvalues --  -10.27968 -10.27937 -10.27385 -10.27243 -10.27233
 Alpha  occ. eigenvalues --  -10.27198 -10.27048 -10.26826 -10.26797 -10.26704
 Alpha  occ. eigenvalues --  -10.26626 -10.26503 -10.26369 -10.26194 -10.26183
 Alpha  occ. eigenvalues --  -10.26161 -10.26114 -10.26091 -10.25783 -10.25633
 Alpha  occ. eigenvalues --  -10.25569 -10.25505 -10.25493 -10.25372 -10.25227
 Alpha  occ. eigenvalues --  -10.24886 -10.24822 -10.24780 -10.24679 -10.24407
 Alpha  occ. eigenvalues --  -10.24335 -10.24266 -10.24084 -10.23991 -10.23917
 Alpha  occ. eigenvalues --  -10.23813 -10.22784  -1.08859  -1.07893  -0.94649
 Alpha  occ. eigenvalues --   -0.94619  -0.91935  -0.91612  -0.90868  -0.90254
 Alpha  occ. eigenvalues --   -0.87574  -0.87390  -0.86878  -0.85400  -0.84733
 Alpha  occ. eigenvalues --   -0.83140  -0.81946  -0.80420  -0.80249  -0.79092
 Alpha  occ. eigenvalues --   -0.78213  -0.77713  -0.77382  -0.77059  -0.76163
 Alpha  occ. eigenvalues --   -0.75539  -0.75034  -0.74682  -0.73900  -0.70639
 Alpha  occ. eigenvalues --   -0.69028  -0.67611  -0.66089  -0.65440  -0.64646
 Alpha  occ. eigenvalues --   -0.64453  -0.62940  -0.61892  -0.60936  -0.60511
 Alpha  occ. eigenvalues --   -0.59447  -0.58815  -0.58182  -0.57655  -0.56320
 Alpha  occ. eigenvalues --   -0.55706  -0.55332  -0.54592  -0.54310  -0.53801
 Alpha  occ. eigenvalues --   -0.53135  -0.52721  -0.52183  -0.51900  -0.51041
 Alpha  occ. eigenvalues --   -0.51028  -0.50577  -0.50192  -0.49955  -0.49538
 Alpha  occ. eigenvalues --   -0.49456  -0.49235  -0.48832  -0.48654  -0.48283
 Alpha  occ. eigenvalues --   -0.48141  -0.47976  -0.47443  -0.47035  -0.46767
 Alpha  occ. eigenvalues --   -0.46539  -0.46211  -0.45759  -0.45349  -0.45013
 Alpha  occ. eigenvalues --   -0.44955  -0.44554  -0.44297  -0.43925  -0.43446
 Alpha  occ. eigenvalues --   -0.43373  -0.42858  -0.42778  -0.42561  -0.42021
 Alpha  occ. eigenvalues --   -0.41644  -0.41274  -0.41222  -0.40915  -0.40747
 Alpha  occ. eigenvalues --   -0.40568  -0.40081  -0.39921  -0.39668  -0.39302
 Alpha  occ. eigenvalues --   -0.39057  -0.38886  -0.38413  -0.38380  -0.37947
 Alpha  occ. eigenvalues --   -0.37598  -0.37219  -0.36651  -0.36214  -0.35759
 Alpha  occ. eigenvalues --   -0.35437  -0.34827  -0.33197  -0.32378  -0.31818
 Alpha  occ. eigenvalues --   -0.31135  -0.30233  -0.28519  -0.26820  -0.24043
 Alpha  occ. eigenvalues --   -0.21059
 Alpha virt. eigenvalues --   -0.04211  -0.00423   0.03061   0.06252   0.08493
 Alpha virt. eigenvalues --    0.09746   0.11124   0.11930   0.12064   0.12423
 Alpha virt. eigenvalues --    0.12861   0.13052   0.13235   0.13477   0.14054

 Mulliken charges:
               1
     1  O   -0.562477
     2  O   -0.572197
     3  C   -0.096655
     4  C   -0.056928
     5  C   -0.158162
     6  C   -0.179916
     7  C    0.144411
     8  C    0.185760
     9  C    0.143966
    10  C    0.093322
    11  C   -0.210521
    12  C   -0.217059
    13  C    0.011628
    14  C    0.010939
    15  C   -0.289207
    16  C   -0.287651
    17  C   -0.292950
    18  C   -0.314623
    19  C   -0.141425
    20  C   -0.110267
    21  C   -0.337382
    22  C   -0.345424
    23  C   -0.084360
    24  C   -0.119002
    25  C    0.109598
    26  C    0.125823
    27  C   -0.346279
    28  C   -0.373148
    29  C   -0.126226
    30  C   -0.137826
    31  C   -0.101517
    32  C   -0.105222
    33  C   -0.100903
    34  C   -0.095211
    35  C    0.127051
    36  C    0.082488
    37  C   -0.374833
    38  C   -0.331828
    39  C   -0.153755
    40  C   -0.132908
    41  C   -0.079430
    42  C   -0.088308
    43  H    0.077180
    44  H    0.088330
    45  H    0.062183
    46  H    0.083029
    47  H    0.076938
    48  H    0.070699
    49  H    0.121647
    50  H    0.107431
    51  H    0.110614
    52  H    0.104426
    53  H    0.082569
    54  H    0.112175
    55  H    0.074878
    56  H    0.098171
    57  H    0.113269
    58  H    0.100282
    59  H    0.107563
    60  H    0.108695
    61  H    0.102638
    62  H    0.083471
    63  H    0.103516
    64  H    0.119718
    65  H    0.092085
    66  H    0.074879
    67  H    0.120387
    68  H    0.121730
    69  H    0.082911
    70  H    0.127999
    71  H    0.080753
    72  H    0.108359
    73  H    0.297763
    74  H    0.310887
    75  H    0.097922
    76  H    0.118094
    77  H    0.093671
    78  H    0.115896
    79  H    0.078065
    80  H    0.124875
    81  H    0.128417
    82  H    0.110239
    83  H    0.077653
    84  H    0.078476
    85  H    0.075399
    86  H    0.085617
    87  H    0.082133
    88  H    0.088424
    89  H    0.124171
    90  H    0.098824
    91  H    0.142777
    92  H    0.118086
    93  H    0.131444
    94  H    0.081571
    95  H    0.086671
    96  H    0.074976
    97  H    0.067911
    98  H    0.080126
 Sum of Mulliken charges =  -0.00000

 Dipole moment (field-independent basis, Debye):
    X=             -1.2418    Y=             -1.4258    Z=              1.3440  Tot=              2.3197
 Quadrupole moment (field-independent basis, Debye-Ang):
   XX=           -286.0643   YY=           -240.8007   ZZ=           -260.2827
   XY=              5.0580   XZ=             -4.6474   YZ=              1.3445

 Normal termination of Gaussian 16 at Fri Jun 28 05:03:45 2019.
