 Gaussian 16, Revision A.03,
 Gaussian 16:  ES64L-G16RevA.03 25-Dec-2016

 -------------------------------------
 # td=(NStates=1) CAM-B3LYP/6-31G(d,p)
 -------------------------------------

 --
 TD
 --
 Symbolic Z-matrix:
 Charge =  0 Multiplicity = 1

                         Standard orientation:
 ---------------------------------------------------------------------
 Center     Atomic      Atomic             Coordinates (Angstroms)
 Number     Number       Type             X           Y           Z
 ---------------------------------------------------------------------
      1          8           0       14.672937   -2.360788   -0.270689
      2          8           0      -14.889761    1.918097    0.636672
      3          6           0       11.443058   -1.095617    1.304239
      4          6           0      -12.350746   -0.965097    0.885932
      5          6           0       12.872446   -1.462250    1.034703
      6          6           0      -13.726372   -0.297523    0.667141
      7          6           0       13.285491   -2.017162   -0.309513
      8          6           0      -13.617852    1.187674    0.598523
      9          6           0       10.945655   -0.335421    0.009506
     10          6           0      -11.354929   -0.363501   -0.143028
     11          6           0       13.084433   -0.964886   -1.267087
     12          6           0      -12.897926    1.630649   -0.544737
     13          6           0       11.703397   -0.322218   -1.188332
     14          6           0      -11.540737    0.869858   -0.800772
     15          6           0       11.265723   -0.249417    2.536636
     16          6           0       10.537148   -2.320261    1.461908
     17          6           0      -11.819069   -0.670785    2.261607
     18          6           0      -12.486617   -2.418379    0.504897
     19          6           0        9.650661    0.380080    0.016543
     20          6           0      -10.091380   -1.057856   -0.358416
     21          6           0       11.432001    0.518135   -2.394887
     22          6           0      -10.699700    1.479420   -1.768649
     23          6           0        9.383514    1.684775   -0.124879
     24          6           0       -8.850545   -0.621357   -0.074217
     25          6           0        7.990051    2.266771    0.130567
     26          6           0       -7.527288   -1.324986   -0.444268
     27          6           0        7.966051    3.779906    0.271028
     28          6           0       -7.672986   -2.733753   -1.005005
     29          6           0        6.878174    1.537744   -0.127636
     30          6           0       -6.396408   -0.640208   -0.206285
     31          6           0        5.515521    2.114267    0.121688
     32          6           0       -4.988415   -1.136777   -0.512285
     33          6           0        4.399377    1.359602   -0.089323
     34          6           0       -3.906880   -0.376417   -0.227358
     35          6           0        3.062483    1.730691    0.151729
     36          6           0       -2.554647   -0.809268   -0.545455
     37          6           0        2.782202    3.156501    0.646159
     38          6           0       -2.325782   -2.155440   -1.089085
     39          6           0        2.134163    0.770484   -0.092124
     40          6           0       -1.613825    0.048289   -0.117825
     41          6           0        0.705878    0.873155    0.037760
     42          6           0       -0.169569   -0.055627   -0.270367
     43          1           0       13.369904   -0.324240    1.084094
     44          1           0       13.378963   -2.108042    1.959412
     45          1           0      -14.323444   -0.465342    1.584687
     46          1           0      -14.161586   -0.643892   -0.401870
     47          1           0       12.737074   -2.756165   -0.705524
     48          1           0      -13.012426    1.678892    1.486020
     49          1           0       13.925331   -0.281271   -1.228199
     50          1           0       13.263762   -1.454362   -2.194524
     51          1           0      -13.343322    1.593435   -1.446671
     52          1           0      -12.802216    2.797279   -0.742388
     53          1           0       11.691035   -0.558432    3.561361
     54          1           0       10.325685   -0.024671    2.695891
     55          1           0       11.844856    0.748420    2.341020
     56          1           0       10.894326   -3.089627    0.715712
     57          1           0       10.916120   -2.744855    2.327447
     58          1           0        9.432076   -2.331231    1.444297
     59          1           0      -11.835273    0.325438    2.340627
     60          1           0      -10.874177   -0.944342    2.302262
     61          1           0      -12.496553   -1.067978    3.138088
     62          1           0      -13.302798   -2.751932    1.283079
     63          1           0      -11.622498   -2.880210    0.543985
     64          1           0      -12.935965   -2.646700   -0.468056
     65          1           0        8.870522   -0.122549    0.728850
     66          1           0      -10.187876   -2.051988   -0.677755
     67          1           0       10.435613    0.862095   -2.681945
     68          1           0       12.048917    1.433226   -2.424259
     69          1           0       11.684583   -0.045729   -3.186483
     70          1           0      -11.123679    1.932999   -2.700485
     71          1           0       -9.744473    0.830932   -1.899434
     72          1           0      -10.208931    2.494026   -1.529431
     73          1           0       14.808385   -3.324507    0.273097
     74          1           0      -15.420973    1.532598    1.258324
     75          1           0       10.285858    2.356064   -0.407209
     76          1           0       -8.548869    0.413545    0.315053
     77          1           0        8.364270    4.282232   -0.342575
     78          1           0        7.054024    4.426826    0.285786
     79          1           0        8.322349    3.773126    1.331402
     80          1           0       -8.240655   -3.068626   -0.341620
     81          1           0       -8.211744   -2.720332   -2.106582
     82          1           0       -6.733446   -3.285505   -1.205645
     83          1           0        7.009690    0.561927   -0.370881
     84          1           0       -6.430188    0.441600    0.252794
     85          1           0        5.562686    3.119361    0.415331
     86          1           0       -4.884808   -2.250695   -0.847970
     87          1           0        4.640519    0.581647   -0.480467
     88          1           0       -4.072242    0.803158    0.155410
     89          1           0        3.074239    3.403907    1.655828
     90          1           0        1.712533    3.431430    0.724262
     91          1           0        3.358451    3.778500   -0.107068
     92          1           0       -2.569125   -2.911638   -0.275641
     93          1           0       -2.820306   -2.254060   -1.995299
     94          1           0       -1.337726   -2.566082   -1.514938
     95          1           0        2.582898   -0.291300   -0.316986
     96          1           0       -1.863703    1.081516    0.147038
     97          1           0        0.397142    1.900004    0.452490
     98          1           0        0.177256   -1.039132   -0.765770
 ---------------------------------------------------------------------

 SCF Done:  E(RCAM-B3LYP) =  -1706.88645133     A.U. after   14 cycles

 Excitation energies and oscillator strengths:

 Excited State   1:      Singlet-A      3.0449 eV  407.19 nm  f=3.5313  <S**2>=0.000
     155 ->158         0.18265
     156 ->157         0.67393
 This state for optimization and/or second-order correction.
 Total Energy, E(TD-HF/TD-DFT) =  -1706.77455448
 Copying the excited state density for this state as the 1-particle RhoCI density.

 The electronic state is 1-A.
 Alpha  occ. eigenvalues --  -19.22047 -19.19800 -10.30227 -10.28674 -10.27814
 Alpha  occ. eigenvalues --  -10.27645 -10.27527 -10.27453 -10.27376 -10.27281
 Alpha  occ. eigenvalues --  -10.27259 -10.27216 -10.27206 -10.27124 -10.27120
 Alpha  occ. eigenvalues --  -10.27114 -10.26971 -10.26951 -10.26928 -10.26461
 Alpha  occ. eigenvalues --  -10.26417 -10.26316 -10.26268 -10.26250 -10.26146
 Alpha  occ. eigenvalues --  -10.26086 -10.25996 -10.25714 -10.25702 -10.25557
 Alpha  occ. eigenvalues --  -10.25535 -10.25434 -10.24926 -10.24366 -10.24171
 Alpha  occ. eigenvalues --  -10.24166 -10.24097 -10.23965 -10.23891 -10.23804
 Alpha  occ. eigenvalues --  -10.23522 -10.23173  -1.08886  -1.07229  -0.94140
 Alpha  occ. eigenvalues --   -0.93390  -0.92177  -0.91586  -0.90088  -0.89782
 Alpha  occ. eigenvalues --   -0.87709  -0.87660  -0.87158  -0.85807  -0.85082
 Alpha  occ. eigenvalues --   -0.83111  -0.82063  -0.81218  -0.80562  -0.78541
 Alpha  occ. eigenvalues --   -0.78467  -0.77579  -0.77113  -0.76521  -0.76194
 Alpha  occ. eigenvalues --   -0.76081  -0.75438  -0.74944  -0.74186  -0.70138
 Alpha  occ. eigenvalues --   -0.68296  -0.67303  -0.65693  -0.64601  -0.64028
 Alpha  occ. eigenvalues --   -0.63471  -0.63207  -0.61684  -0.60336  -0.59873
 Alpha  occ. eigenvalues --   -0.58922  -0.58376  -0.57892  -0.57493  -0.56826
 Alpha  occ. eigenvalues --   -0.55669  -0.55339  -0.54999  -0.54187  -0.53696
 Alpha  occ. eigenvalues --   -0.53612  -0.52821  -0.52377  -0.52024  -0.51879
 Alpha  occ. eigenvalues --   -0.51126  -0.50765  -0.50734  -0.50411  -0.49959
 Alpha  occ. eigenvalues --   -0.49723  -0.49283  -0.49005  -0.48652  -0.48495
 Alpha  occ. eigenvalues --   -0.48210  -0.47714  -0.47307  -0.47055  -0.46279
 Alpha  occ. eigenvalues --   -0.45949  -0.45488  -0.45135  -0.44929  -0.44856
 Alpha  occ. eigenvalues --   -0.44430  -0.44100  -0.43872  -0.43831  -0.42999
 Alpha  occ. eigenvalues --   -0.42732  -0.42708  -0.42599  -0.41894  -0.41597
 Alpha  occ. eigenvalues --   -0.41177  -0.41021  -0.40955  -0.40676  -0.40513
 Alpha  occ. eigenvalues --   -0.40283  -0.40054  -0.39531  -0.39478  -0.38993
 Alpha  occ. eigenvalues --   -0.38609  -0.38482  -0.38212  -0.38003  -0.37826
 Alpha  occ. eigenvalues --   -0.37699  -0.37537  -0.36852  -0.36643  -0.36218
 Alpha  occ. eigenvalues --   -0.35686  -0.34742  -0.33854  -0.32677  -0.31880
 Alpha  occ. eigenvalues --   -0.31609  -0.29489  -0.27384  -0.26188  -0.24343
 Alpha  occ. eigenvalues --   -0.21286
 Alpha virt. eigenvalues --   -0.03208   0.00465   0.03009   0.05517   0.07351
 Alpha virt. eigenvalues --    0.08857   0.09429   0.11306   0.11628   0.12610
 Alpha virt. eigenvalues --    0.12772   0.12802   0.13319   0.13583   0.13940

 Mulliken charges:
               1
     1  O   -0.577878
     2  O   -0.568753
     3  C    0.004198
     4  C   -0.006679
     5  C   -0.181851
     6  C   -0.189044
     7  C    0.199727
     8  C    0.171518
     9  C    0.034345
    10  C    0.004898
    11  C   -0.230204
    12  C   -0.218313
    13  C    0.036043
    14  C    0.122677
    15  C   -0.285758
    16  C   -0.303793
    17  C   -0.279248
    18  C   -0.289484
    19  C   -0.129996
    20  C   -0.171539
    21  C   -0.361196
    22  C   -0.402288
    23  C   -0.090603
    24  C   -0.082404
    25  C    0.025673
    26  C    0.093405
    27  C   -0.335625
    28  C   -0.338489
    29  C   -0.095668
    30  C   -0.145195
    31  C   -0.098791
    32  C   -0.113389
    33  C   -0.048079
    34  C   -0.095295
    35  C    0.121558
    36  C    0.122484
    37  C   -0.370019
    38  C   -0.384556
    39  C   -0.139183
    40  C   -0.130879
    41  C   -0.080696
    42  C   -0.081394
    43  H    0.080027
    44  H    0.051754
    45  H    0.080676
    46  H    0.097580
    47  H    0.093088
    48  H    0.075937
    49  H    0.122666
    50  H    0.100921
    51  H    0.124796
    52  H    0.087342
    53  H    0.095803
    54  H    0.116908
    55  H    0.084713
    56  H    0.085714
    57  H    0.105670
    58  H    0.112209
    59  H    0.116458
    60  H    0.116816
    61  H    0.079209
    62  H    0.079994
    63  H    0.107541
    64  H    0.106572
    65  H    0.076110
    66  H    0.089960
    67  H    0.116216
    68  H    0.115990
    69  H    0.116160
    70  H    0.112322
    71  H    0.115424
    72  H    0.106006
    73  H    0.304358
    74  H    0.290880
    75  H    0.093845
    76  H    0.083783
    77  H    0.120184
    78  H    0.095939
    79  H    0.120929
    80  H    0.136725
    81  H    0.097870
    82  H    0.107158
    83  H    0.079768
    84  H    0.078254
    85  H    0.073918
    86  H    0.089486
    87  H    0.039961
    88  H    0.081130
    89  H    0.129548
    90  H    0.106513
    91  H    0.117412
    92  H    0.126702
    93  H    0.135051
    94  H    0.106576
    95  H    0.076881
    96  H    0.076704
    97  H    0.074872
    98  H    0.074734
 Sum of Mulliken charges =  -0.00000

 Dipole moment (field-independent basis, Debye):
    X=              0.5186    Y=             -1.8098    Z=              0.7009  Tot=              2.0089
 Quadrupole moment (field-independent basis, Debye-Ang):
   XX=           -290.7771   YY=           -241.4897   ZZ=           -257.5413
   XY=             12.1726   XZ=             -1.4440   YZ=              2.0618

 Normal termination of Gaussian 16 at Tue Jul  9 17:49:36 2019.
