 Gaussian 16, Revision A.03,
 Gaussian 16:  ES64L-G16RevA.03 25-Dec-2016

 -------------------------------------
 # td=(NStates=1) CAM-B3LYP/6-31G(d,p)
 -------------------------------------

 --
 TD
 --
 Symbolic Z-matrix:
 Charge =  0 Multiplicity = 1

                         Standard orientation:
 ---------------------------------------------------------------------
 Center     Atomic      Atomic             Coordinates (Angstroms)
 Number     Number       Type             X           Y           Z
 ---------------------------------------------------------------------
      1          8           0       14.730162   -2.150503   -0.220400
      2          8           0      -14.652905    2.246124    0.970323
      3          6           0       11.451176   -0.974428    1.292160
      4          6           0      -12.347084   -0.849168    0.784992
      5          6           0       12.925346   -1.351981    1.201516
      6          6           0      -13.616880   -0.054101    0.778121
      7          6           0       13.313529   -1.929460   -0.170580
      8          6           0      -13.393118    1.441707    0.878859
      9          6           0       11.026770   -0.213095    0.054720
     10          6           0      -11.313737   -0.261097   -0.183337
     11          6           0       13.070904   -0.795259   -1.266184
     12          6           0      -12.674796    1.905973   -0.275496
     13          6           0       11.743336   -0.160980   -1.101912
     14          6           0      -11.536763    0.953698   -0.745348
     15          6           0       11.248859   -0.182484    2.524400
     16          6           0       10.551850   -2.306959    1.453303
     17          6           0      -11.795685   -0.992697    2.201689
     18          6           0      -12.741651   -2.333015    0.314623
     19          6           0        9.585238    0.408107    0.117221
     20          6           0      -10.132510   -1.036756   -0.406124
     21          6           0       11.236969    0.515023   -2.334205
     22          6           0      -10.670508    1.559938   -1.789081
     23          6           0        9.327572    1.691359   -0.024916
     24          6           0       -8.799780   -0.609587   -0.247802
     25          6           0        8.062299    2.291164    0.015965
     26          6           0       -7.674565   -1.372624   -0.492776
     27          6           0        7.984655    3.760603    0.438818
     28          6           0       -7.726901   -2.871396   -0.960122
     29          6           0        6.940332    1.555252   -0.232048
     30          6           0       -6.520456   -0.781876   -0.340017
     31          6           0        5.571119    1.904811   -0.017051
     32          6           0       -5.146912   -1.240842   -0.602897
     33          6           0        4.447977    1.168746   -0.272389
     34          6           0       -4.053504   -0.391638   -0.516270
     35          6           0        3.105059    1.472179    0.019231
     36          6           0       -2.635881   -0.876184   -0.572098
     37          6           0        2.752703    2.911774    0.435851
     38          6           0       -2.369495   -2.294675   -0.918687
     39          6           0        2.079473    0.534691   -0.169049
     40          6           0       -1.555012   -0.068193   -0.245419
     41          6           0        0.637999    0.769259    0.059168
     42          6           0       -0.191707   -0.226178   -0.335952
     43          1           0       13.624227   -0.355146    1.137391
     44          1           0       13.182884   -2.127707    2.039349
     45          1           0      -14.095698   -0.392552    1.590344
     46          1           0      -14.222871   -0.079834   -0.239604
     47          1           0       12.628746   -2.848284   -0.359762
     48          1           0      -12.745622    1.557371    1.773614
     49          1           0       13.761073   -0.054091   -0.965259
     50          1           0       13.277516   -1.303422   -2.255322
     51          1           0      -13.165889    2.148134   -1.235205
     52          1           0      -12.215117    2.973354   -0.080611
     53          1           0       11.830070   -0.827299    3.340476
     54          1           0       10.171276   -0.119061    2.835434
     55          1           0       11.845359    0.667997    2.274863
     56          1           0       10.776562   -2.982291    0.597160
     57          1           0       11.225175   -2.782686    2.257393
     58          1           0        9.659715   -2.166390    1.596027
     59          1           0      -11.620756    0.002325    2.598166
     60          1           0      -10.952667   -1.613978    2.202183
     61          1           0      -12.441657   -1.356005    2.747281
     62          1           0      -13.546790   -2.701516    1.126469
     63          1           0      -11.997209   -3.307949    0.389708
     64          1           0      -12.990457   -2.287937   -0.791575
     65          1           0        8.867052   -0.293095    0.343192
     66          1           0      -10.301659   -2.177564   -0.646042
     67          1           0       10.326586    1.059957   -2.380320
     68          1           0       11.783876    1.321965   -2.525325
     69          1           0       11.390763   -0.184231   -3.130915
     70          1           0      -11.301623    1.823156   -2.478761
     71          1           0      -10.123759    0.716215   -2.106698
     72          1           0      -10.119462    2.372604   -1.391973
     73          1           0       15.153772   -2.564263    0.569212
     74          1           0      -15.108930    1.861607    1.670103
     75          1           0       10.029369    2.515948   -0.571892
     76          1           0       -8.620079    0.504489    0.051834
     77          1           0        8.606693    4.250312   -0.295720
     78          1           0        6.985924    4.030080    0.664921
     79          1           0        8.476194    3.883329    1.242551
     80          1           0       -8.180557   -3.501865   -0.325266
     81          1           0       -8.244837   -2.892006   -2.079869
     82          1           0       -6.663663   -3.239776   -0.833902
     83          1           0        6.888822    0.523873   -0.657653
     84          1           0       -6.551861    0.347450   -0.065837
     85          1           0        5.355645    3.021506    0.428466
     86          1           0       -4.874633   -2.276971   -0.815079
     87          1           0        4.593504    0.162412   -0.831056
     88          1           0       -4.134780    0.676257   -0.394270
     89          1           0        3.460166    3.192558    1.106108
     90          1           0        1.631628    2.973808    0.637529
     91          1           0        2.921677    3.750916   -0.430287
     92          1           0       -3.058716   -2.844998   -0.343330
     93          1           0       -2.485440   -2.440526   -2.035979
     94          1           0       -1.333841   -2.641813   -0.613951
     95          1           0        2.407571   -0.414868   -0.341060
     96          1           0       -2.032459    0.975462   -0.028759
     97          1           0        0.477603    1.856968    0.534962
     98          1           0        0.176219   -1.174568   -0.608080
 ---------------------------------------------------------------------

 SCF Done:  E(RCAM-B3LYP) =  -1706.94202988     A.U. after   14 cycles

 Excitation energies and oscillator strengths:

 Excited State   1:      Singlet-A      2.6017 eV  476.55 nm  f=3.7086  <S**2>=0.000
     155 ->158        -0.16780
     156 ->157         0.68273
 This state for optimization and/or second-order correction.
 Total Energy, E(TD-HF/TD-DFT) =  -1706.84641897
 Copying the excited state density for this state as the 1-particle RhoCI density.

 The electronic state is 1-A.
 Alpha  occ. eigenvalues --  -19.21328 -19.20706 -10.31532 -10.30265 -10.27982
 Alpha  occ. eigenvalues --  -10.27527 -10.27432 -10.27341 -10.27319 -10.27190
 Alpha  occ. eigenvalues --  -10.27137 -10.27087 -10.27006 -10.26968 -10.26939
 Alpha  occ. eigenvalues --  -10.26706 -10.26689 -10.26598 -10.26594 -10.26479
 Alpha  occ. eigenvalues --  -10.26414 -10.26293 -10.26251 -10.26206 -10.26187
 Alpha  occ. eigenvalues --  -10.26129 -10.26082 -10.25956 -10.25918 -10.25774
 Alpha  occ. eigenvalues --  -10.25677 -10.25578 -10.25452 -10.25415 -10.24986
 Alpha  occ. eigenvalues --  -10.24901 -10.24744 -10.24117 -10.24020 -10.22821
 Alpha  occ. eigenvalues --  -10.22184 -10.22181  -1.08375  -1.08309  -0.94181
 Alpha  occ. eigenvalues --   -0.93705  -0.92073  -0.91840  -0.91251  -0.90039
 Alpha  occ. eigenvalues --   -0.87815  -0.87766  -0.87268  -0.85630  -0.84719
 Alpha  occ. eigenvalues --   -0.83266  -0.82173  -0.81090  -0.80369  -0.78047
 Alpha  occ. eigenvalues --   -0.77366  -0.77237  -0.76959  -0.76898  -0.76132
 Alpha  occ. eigenvalues --   -0.75926  -0.75155  -0.74514  -0.73721  -0.70999
 Alpha  occ. eigenvalues --   -0.69352  -0.67502  -0.65979  -0.65011  -0.63949
 Alpha  occ. eigenvalues --   -0.63514  -0.62663  -0.61954  -0.59966  -0.59305
 Alpha  occ. eigenvalues --   -0.58903  -0.58398  -0.57761  -0.57309  -0.56581
 Alpha  occ. eigenvalues --   -0.56363  -0.55885  -0.55289  -0.54228  -0.54172
 Alpha  occ. eigenvalues --   -0.53390  -0.52942  -0.52432  -0.51955  -0.51607
 Alpha  occ. eigenvalues --   -0.50843  -0.50410  -0.50274  -0.50214  -0.49889
 Alpha  occ. eigenvalues --   -0.49436  -0.49265  -0.49160  -0.48879  -0.48438
 Alpha  occ. eigenvalues --   -0.48108  -0.47762  -0.47527  -0.47256  -0.46868
 Alpha  occ. eigenvalues --   -0.46569  -0.46474  -0.45387  -0.45167  -0.45147
 Alpha  occ. eigenvalues --   -0.44802  -0.44555  -0.44153  -0.43852  -0.43706
 Alpha  occ. eigenvalues --   -0.43438  -0.43210  -0.42562  -0.42489  -0.42214
 Alpha  occ. eigenvalues --   -0.41889  -0.41479  -0.41444  -0.41001  -0.40641
 Alpha  occ. eigenvalues --   -0.40106  -0.39986  -0.39661  -0.39490  -0.38998
 Alpha  occ. eigenvalues --   -0.38839  -0.38756  -0.38452  -0.38264  -0.37857
 Alpha  occ. eigenvalues --   -0.37442  -0.37358  -0.36889  -0.36050  -0.36025
 Alpha  occ. eigenvalues --   -0.35455  -0.34822  -0.33965  -0.32399  -0.32396
 Alpha  occ. eigenvalues --   -0.31716  -0.29489  -0.27821  -0.26498  -0.23800
 Alpha  occ. eigenvalues --   -0.20377
 Alpha virt. eigenvalues --   -0.04604  -0.00590   0.02928   0.06309   0.08245
 Alpha virt. eigenvalues --    0.09095   0.10664   0.11499   0.11587   0.12003
 Alpha virt. eigenvalues --    0.12160   0.12718   0.12906   0.13589   0.13618

 Mulliken charges:
               1
     1  O   -0.573861
     2  O   -0.559376
     3  C   -0.038237
     4  C   -0.040998
     5  C   -0.201385
     6  C   -0.170252
     7  C    0.178188
     8  C    0.147766
     9  C    0.024173
    10  C    0.091089
    11  C   -0.225703
    12  C   -0.204085
    13  C    0.059019
    14  C   -0.002781
    15  C   -0.256366
    16  C   -0.277009
    17  C   -0.281159
    18  C   -0.295103
    19  C   -0.120945
    20  C   -0.187371
    21  C   -0.355428
    22  C   -0.335651
    23  C   -0.070205
    24  C   -0.102333
    25  C    0.045674
    26  C    0.158931
    27  C   -0.339311
    28  C   -0.349776
    29  C   -0.103768
    30  C   -0.144775
    31  C   -0.089779
    32  C   -0.104029
    33  C   -0.123095
    34  C   -0.095274
    35  C    0.104975
    36  C    0.076299
    37  C   -0.347668
    38  C   -0.374094
    39  C   -0.128346
    40  C   -0.117021
    41  C   -0.067212
    42  C   -0.079034
    43  H    0.083954
    44  H    0.072001
    45  H    0.080894
    46  H    0.096048
    47  H    0.071532
    48  H    0.083414
    49  H    0.131420
    50  H    0.113020
    51  H    0.117581
    52  H    0.096176
    53  H    0.071212
    54  H    0.103106
    55  H    0.108894
    56  H    0.097238
    57  H    0.086156
    58  H    0.104712
    59  H    0.094435
    60  H    0.116780
    61  H    0.103186
    62  H    0.081662
    63  H    0.077129
    64  H    0.108536
    65  H    0.098789
    66  H    0.080514
    67  H    0.113248
    68  H    0.122315
    69  H    0.107466
    70  H    0.113370
    71  H    0.118877
    72  H    0.116474
    73  H    0.308784
    74  H    0.298228
    75  H    0.067291
    76  H    0.084803
    77  H    0.116005
    78  H    0.112727
    79  H    0.136666
    80  H    0.132086
    81  H    0.106191
    82  H    0.100453
    83  H    0.078783
    84  H    0.074582
    85  H    0.053770
    86  H    0.089556
    87  H    0.073963
    88  H    0.085812
    89  H    0.130716
    90  H    0.093814
    91  H    0.096318
    92  H    0.122568
    93  H    0.120534
    94  H    0.100594
    95  H    0.074255
    96  H    0.058551
    97  H    0.093271
    98  H    0.094857
 Sum of Mulliken charges =  -0.00000

 Dipole moment (field-independent basis, Debye):
    X=              1.4255    Y=             -1.6206    Z=              1.7798  Tot=              2.7975
 Quadrupole moment (field-independent basis, Debye-Ang):
   XX=           -269.9626   YY=           -249.0455   ZZ=           -260.1955
   XY=             19.1426   XZ=             -0.2926   YZ=             -1.3409

 Normal termination of Gaussian 16 at Wed Jul 10 19:49:53 2019.
