 Gaussian 16, Revision A.03,
 Gaussian 16:  ES64L-G16RevA.03 25-Dec-2016

 -------------------------------------
 # td=(NStates=1) CAM-B3LYP/6-31G(d,p)
 -------------------------------------

 --
 TD
 --
 Symbolic Z-matrix:
 Charge =  0 Multiplicity = 1

                         Standard orientation:
 ---------------------------------------------------------------------
 Center     Atomic      Atomic             Coordinates (Angstroms)
 Number     Number       Type             X           Y           Z
 ---------------------------------------------------------------------
      1          8           0       14.719053   -2.255774   -0.412893
      2          8           0      -14.757278    2.016860    0.781179
      3          6           0       11.495980   -1.149790    1.225345
      4          6           0      -12.308387   -0.936682    0.848957
      5          6           0       12.959619   -1.502966    1.098485
      6          6           0      -13.646380   -0.248085    0.763638
      7          6           0       13.307205   -2.031377   -0.265291
      8          6           0      -13.499719    1.373729    0.855945
      9          6           0       10.968035   -0.267947    0.023429
     10          6           0      -11.371607   -0.284637   -0.196634
     11          6           0       13.012467   -0.791171   -1.252551
     12          6           0      -12.738212    1.768640   -0.438522
     13          6           0       11.574022   -0.292642   -1.157006
     14          6           0      -11.523911    0.952021   -0.775560
     15          6           0       11.340134   -0.256031    2.483508
     16          6           0       10.678612   -2.379468    1.369610
     17          6           0      -11.655482   -0.978247    2.228944
     18          6           0      -12.572634   -2.319700    0.391622
     19          6           0        9.605074    0.378416    0.261025
     20          6           0      -10.109481   -1.050750   -0.565094
     21          6           0       11.055527    0.381484   -2.425683
     22          6           0      -10.691577    1.600953   -1.721268
     23          6           0        9.271607    1.634329   -0.048101
     24          6           0       -8.822735   -0.641664   -0.305885
     25          6           0        8.053273    2.333332    0.158593
     26          6           0       -7.592748   -1.367101   -0.514998
     27          6           0        8.101298    3.806956    0.431909
     28          6           0       -7.642182   -2.807900   -0.908232
     29          6           0        6.907607    1.539930    0.017713
     30          6           0       -6.446905   -0.591616   -0.407592
     31          6           0        5.545885    2.084434    0.125378
     32          6           0       -5.029014   -1.214484   -0.528753
     33          6           0        4.439813    1.329626   -0.176482
     34          6           0       -4.000493   -0.384165   -0.272227
     35          6           0        3.053896    1.747566    0.019052
     36          6           0       -2.594319   -0.863836   -0.475814
     37          6           0        2.812023    3.155257    0.300318
     38          6           0       -2.355888   -2.224947   -0.858175
     39          6           0        2.039128    0.783923   -0.083367
     40          6           0       -1.645168    0.129514   -0.134855
     41          6           0        0.651728    0.810790    0.005962
     42          6           0       -0.196499   -0.037887   -0.201280
     43          1           0       13.641754   -0.620405    1.411859
     44          1           0       12.955170   -2.383472    1.881616
     45          1           0      -14.267146   -0.578156    1.536060
     46          1           0      -14.333790   -0.632194    0.034869
     47          1           0       12.653417   -2.828994   -0.665829
     48          1           0      -13.117515    1.419495    1.715314
     49          1           0       13.709911    0.077032   -1.355212
     50          1           0       13.175071   -1.161642   -2.315729
     51          1           0      -13.325564    1.902059   -1.321651
     52          1           0      -12.385673    2.828568   -0.163769
     53          1           0       11.754882   -0.850112    3.334938
     54          1           0       10.331569   -0.021511    2.782264
     55          1           0       11.908758    0.661834    2.428974
     56          1           0       10.297382   -2.921735    0.354506
     57          1           0       10.950571   -3.026906    2.186581
     58          1           0        9.701956   -1.984340    1.647960
     59          1           0      -11.831745    0.068317    2.514310
     60          1           0      -10.653369   -1.332700    2.056451
     61          1           0      -12.205778   -1.495046    2.882923
     62          1           0      -13.626908   -2.607809    0.628380
     63          1           0      -11.640934   -3.248197    0.735878
     64          1           0      -12.498738   -2.478040   -0.677698
     65          1           0        8.829665   -0.218466    0.806649
     66          1           0      -10.268332   -2.245755   -0.778153
     67          1           0       10.016914    0.732201   -2.507423
     68          1           0       11.679454    1.229358   -2.656614
     69          1           0       11.168692   -0.074750   -3.149628
     70          1           0      -11.124068    1.745462   -2.625804
     71          1           0       -9.776568    0.916406   -2.186623
     72          1           0      -10.340476    2.403268   -1.246461
     73          1           0       15.018746   -2.982806    0.178135
     74          1           0      -15.394428    1.661219    1.347453
     75          1           0       10.202817    2.100661   -0.302290
     76          1           0       -8.713898    0.291829   -0.124865
     77          1           0        8.555920    4.336014   -0.310721
     78          1           0        7.216128    4.282056    0.589813
     79          1           0        8.724757    3.929828    1.477234
     80          1           0       -7.899580   -3.467968    0.065158
     81          1           0       -8.402767   -3.239723   -1.732879
     82          1           0       -6.588832   -3.109407   -1.295937
     83          1           0        7.060417    0.573025   -0.112208
     84          1           0       -6.592340    0.384627    0.137948
     85          1           0        5.639949    3.211519    0.190721
     86          1           0       -4.877523   -2.305468   -0.794661
     87          1           0        4.419414    0.330804   -0.558137
     88          1           0       -4.121830    0.781107   -0.142982
     89          1           0        3.140886    3.466810    1.341702
     90          1           0        1.841991    3.934225    0.333753
     91          1           0        3.402006    3.734336   -0.372576
     92          1           0       -3.038957   -2.741469   -0.212979
     93          1           0       -2.767538   -2.432615   -1.903421
     94          1           0       -1.277860   -2.705954   -1.016313
     95          1           0        2.446057   -0.308700   -0.254626
     96          1           0       -1.864209    0.975828    0.165552
     97          1           0        0.126414    1.856818    0.207487
     98          1           0        0.093940   -1.045890   -0.511950
 ---------------------------------------------------------------------

 SCF Done:  E(RCAM-B3LYP) =  -1706.85673739     A.U. after   14 cycles

 Excitation energies and oscillator strengths:

 Excited State   1:      Singlet-A      2.8918 eV  428.74 nm  f=3.5204  <S**2>=0.000
     155 ->158         0.19145
     156 ->157         0.67229
 This state for optimization and/or second-order correction.
 Total Energy, E(TD-HF/TD-DFT) =  -1706.75046445
 Copying the excited state density for this state as the 1-particle RhoCI density.

 The electronic state is 1-A.
 Alpha  occ. eigenvalues --  -19.21190 -19.20598 -10.31262 -10.29923 -10.28053
 Alpha  occ. eigenvalues --  -10.27889 -10.27724 -10.27361 -10.27316 -10.27294
 Alpha  occ. eigenvalues --  -10.27227 -10.27200 -10.26986 -10.26920 -10.26850
 Alpha  occ. eigenvalues --  -10.26782 -10.26733 -10.26676 -10.26341 -10.26213
 Alpha  occ. eigenvalues --  -10.26161 -10.26125 -10.25869 -10.25860 -10.25842
 Alpha  occ. eigenvalues --  -10.25688 -10.25683 -10.25679 -10.25531 -10.25337
 Alpha  occ. eigenvalues --  -10.25148 -10.24966 -10.24744 -10.24721 -10.24606
 Alpha  occ. eigenvalues --  -10.24194 -10.24082 -10.24048 -10.23973 -10.23467
 Alpha  occ. eigenvalues --  -10.23333 -10.22198  -1.09969  -1.08270  -0.93684
 Alpha  occ. eigenvalues --   -0.93340  -0.92300  -0.91324  -0.90620  -0.89813
 Alpha  occ. eigenvalues --   -0.88595  -0.88197  -0.87187  -0.84459  -0.84000
 Alpha  occ. eigenvalues --   -0.82557  -0.81943  -0.80891  -0.79925  -0.79006
 Alpha  occ. eigenvalues --   -0.77805  -0.77382  -0.76393  -0.76199  -0.76029
 Alpha  occ. eigenvalues --   -0.75357  -0.74815  -0.74343  -0.73785  -0.70345
 Alpha  occ. eigenvalues --   -0.69622  -0.67839  -0.66251  -0.64886  -0.63738
 Alpha  occ. eigenvalues --   -0.63547  -0.62945  -0.61831  -0.60467  -0.59943
 Alpha  occ. eigenvalues --   -0.59415  -0.59233  -0.58494  -0.57914  -0.56264
 Alpha  occ. eigenvalues --   -0.55723  -0.55477  -0.54735  -0.54100  -0.53696
 Alpha  occ. eigenvalues --   -0.53366  -0.52766  -0.52422  -0.51967  -0.51426
 Alpha  occ. eigenvalues --   -0.50485  -0.50081  -0.49994  -0.49680  -0.49386
 Alpha  occ. eigenvalues --   -0.48842  -0.48687  -0.48487  -0.48284  -0.48192
 Alpha  occ. eigenvalues --   -0.48115  -0.47781  -0.47737  -0.46955  -0.46425
 Alpha  occ. eigenvalues --   -0.46190  -0.45926  -0.45791  -0.45240  -0.45183
 Alpha  occ. eigenvalues --   -0.45028  -0.44230  -0.43987  -0.43778  -0.43681
 Alpha  occ. eigenvalues --   -0.43205  -0.42707  -0.42665  -0.41861  -0.41794
 Alpha  occ. eigenvalues --   -0.41392  -0.41093  -0.41032  -0.41014  -0.40517
 Alpha  occ. eigenvalues --   -0.40406  -0.39750  -0.39277  -0.39256  -0.38966
 Alpha  occ. eigenvalues --   -0.38238  -0.38160  -0.37674  -0.37618  -0.37489
 Alpha  occ. eigenvalues --   -0.37020  -0.36924  -0.36742  -0.36106  -0.35544
 Alpha  occ. eigenvalues --   -0.34995  -0.34261  -0.33670  -0.32544  -0.31521
 Alpha  occ. eigenvalues --   -0.31083  -0.29350  -0.28120  -0.26207  -0.23583
 Alpha  occ. eigenvalues --   -0.20880
 Alpha virt. eigenvalues --   -0.03500  -0.00077   0.03294   0.06354   0.08109
 Alpha virt. eigenvalues --    0.09240   0.11088   0.11896   0.12305   0.12537
 Alpha virt. eigenvalues --    0.12796   0.12908   0.13098   0.13267   0.13398

 Mulliken charges:
               1
     1  O   -0.565231
     2  O   -0.564186
     3  C   -0.016342
     4  C    0.017290
     5  C   -0.168963
     6  C   -0.258755
     7  C    0.178705
     8  C    0.212432
     9  C    0.043868
    10  C    0.034022
    11  C   -0.241136
    12  C   -0.215568
    13  C    0.035088
    14  C    0.061549
    15  C   -0.304703
    16  C   -0.304988
    17  C   -0.273736
    18  C   -0.293542
    19  C   -0.122173
    20  C   -0.165868
    21  C   -0.331570
    22  C   -0.354997
    23  C   -0.100696
    24  C   -0.050785
    25  C    0.069825
    26  C    0.143243
    27  C   -0.358330
    28  C   -0.365449
    29  C   -0.083749
    30  C   -0.158230
    31  C   -0.101718
    32  C   -0.123552
    33  C   -0.113055
    34  C   -0.092364
    35  C    0.139503
    36  C    0.114328
    37  C   -0.390180
    38  C   -0.394694
    39  C   -0.171750
    40  C   -0.092248
    41  C   -0.043156
    42  C   -0.047062
    43  H    0.101941
    44  H    0.059838
    45  H    0.072949
    46  H    0.101882
    47  H    0.097984
    48  H    0.087203
    49  H    0.119661
    50  H    0.089371
    51  H    0.129583
    52  H    0.089377
    53  H    0.082632
    54  H    0.108301
    55  H    0.109306
    56  H    0.092756
    57  H    0.108820
    58  H    0.105483
    59  H    0.084963
    60  H    0.119364
    61  H    0.110375
    62  H    0.092886
    63  H    0.038333
    64  H    0.118695
    65  H    0.079428
    66  H    0.062751
    67  H    0.114589
    68  H    0.103108
    69  H    0.107398
    70  H    0.124586
    71  H    0.091283
    72  H    0.127107
    73  H    0.303436
    74  H    0.298284
    75  H    0.083208
    76  H    0.061694
    77  H    0.134990
    78  H    0.120097
    79  H    0.100232
    80  H    0.109613
    81  H    0.110315
    82  H    0.097782
    83  H    0.072480
    84  H    0.097145
    85  H    0.086306
    86  H    0.098540
    87  H    0.091467
    88  H    0.097195
    89  H    0.118367
    90  H    0.095445
    91  H    0.124104
    92  H    0.133971
    93  H    0.120481
    94  H    0.116178
    95  H    0.060774
    96  H    0.039382
    97  H    0.059373
    98  H    0.056111
 Sum of Mulliken charges =  -0.00000

 Dipole moment (field-independent basis, Debye):
    X=             -0.5871    Y=             -1.1149    Z=              1.1658  Tot=              1.7166
 Quadrupole moment (field-independent basis, Debye-Ang):
   XX=           -256.6167   YY=           -242.6296   ZZ=           -259.4913
   XY=             10.0574   XZ=             -1.7595   YZ=              1.1878

 Normal termination of Gaussian 16 at Wed Jul  3 18:38:03 2019.
