 Gaussian 16, Revision A.03,
 Gaussian 16:  ES64L-G16RevA.03 25-Dec-2016

 -------------------------------------
 # td=(NStates=1) CAM-B3LYP/6-31G(d,p)
 -------------------------------------

 --
 TD
 --
 Symbolic Z-matrix:
 Charge =  0 Multiplicity = 1

                         Standard orientation:
 ---------------------------------------------------------------------
 Center     Atomic      Atomic             Coordinates (Angstroms)
 Number     Number       Type             X           Y           Z
 ---------------------------------------------------------------------
      1          8           0       14.816864   -2.133516   -0.250009
      2          8           0      -14.824350    1.881059    1.003431
      3          6           0       11.511139   -1.046810    1.320525
      4          6           0      -12.372335   -0.985136    0.827163
      5          6           0       12.985646   -1.353721    1.149804
      6          6           0      -13.716024   -0.218325    0.899871
      7          6           0       13.459174   -1.887277   -0.162616
      8          6           0      -13.505341    1.281522    0.893129
      9          6           0       10.988144   -0.331149   -0.015480
     10          6           0      -11.398995   -0.386257   -0.132732
     11          6           0       12.946522   -1.071581   -1.357183
     12          6           0      -13.009250    1.594361   -0.489254
     13          6           0       11.635644   -0.312802   -1.196590
     14          6           0      -11.634310    0.813807   -0.728842
     15          6           0       11.398027   -0.144960    2.532487
     16          6           0       10.688616   -2.354020    1.510172
     17          6           0      -11.736155   -1.095810    2.257163
     18          6           0      -12.570686   -2.474267    0.387811
     19          6           0        9.756035    0.287062    0.226124
     20          6           0      -10.040870   -1.003887   -0.404012
     21          6           0       11.029095    0.306780   -2.463027
     22          6           0      -10.857442    1.535481   -1.767427
     23          6           0        9.412478    1.554103   -0.121113
     24          6           0       -8.874562   -0.480218   -0.404750
     25          6           0        8.064256    2.174657    0.022029
     26          6           0       -7.621750   -1.128384   -0.520912
     27          6           0        8.162488    3.653466    0.396096
     28          6           0       -7.648321   -2.507653   -1.191815
     29          6           0        6.935556    1.508525   -0.133876
     30          6           0       -6.488505   -0.535539   -0.367888
     31          6           0        5.602590    2.002230   -0.059370
     32          6           0       -5.202982   -1.081558   -0.709297
     33          6           0        4.484873    1.250824   -0.074372
     34          6           0       -4.023599   -0.307494   -0.401741
     35          6           0        3.139715    1.695731    0.065979
     36          6           0       -2.658385   -0.659666   -0.435145
     37          6           0        2.848611    3.159504    0.588845
     38          6           0       -2.353875   -2.121364   -0.915050
     39          6           0        2.136183    0.821026   -0.323525
     40          6           0       -1.588978    0.192310   -0.197419
     41          6           0        0.687759    0.944661   -0.073348
     42          6           0       -0.152807   -0.052312   -0.319900
     43          1           0       13.735865   -0.460829    1.449657
     44          1           0       13.273332   -2.042734    1.922274
     45          1           0      -14.250883   -0.402829    1.878509
     46          1           0      -14.518570   -0.512964    0.053753
     47          1           0       12.872712   -2.786309   -0.295343
     48          1           0      -12.833649    1.657991    1.704499
     49          1           0       13.586258   -0.165849   -1.246924
     50          1           0       13.222887   -1.558418   -2.373212
     51          1           0      -13.637562    1.296541   -1.311264
     52          1           0      -12.879424    2.603793   -0.708096
     53          1           0       11.547735   -0.889273    3.402470
     54          1           0       10.245769   -0.002399    2.622461
     55          1           0       12.097550    0.670647    2.452667
     56          1           0       10.685196   -3.002585    0.567048
     57          1           0       11.131684   -2.859478    2.437989
     58          1           0        9.655210   -1.982232    1.808716
     59          1           0      -11.383346    0.073244    2.703045
     60          1           0      -10.778667   -1.699968    2.170394
     61          1           0      -12.342243   -1.572212    3.134253
     62          1           0      -13.282282   -2.771351    1.185626
     63          1           0      -11.594883   -2.909746    0.683581
     64          1           0      -12.987212   -2.832788   -0.686769
     65          1           0        8.980919   -0.273590    0.841022
     66          1           0      -10.289762   -2.092185   -0.725799
     67          1           0        9.915916    0.431402   -2.256182
     68          1           0       11.474882    1.171866   -2.580253
     69          1           0       11.242260   -0.555483   -3.249183
     70          1           0      -11.300777    1.955113   -2.809102
     71          1           0      -10.003489    0.934478   -2.040881
     72          1           0      -10.390710    2.398391   -1.446078
     73          1           0       15.083206   -2.821184    0.357913
     74          1           0      -15.160545    1.714623    2.000402
     75          1           0       10.195635    2.275470   -0.500442
     76          1           0       -8.773330    0.560216    0.030656
     77          1           0        9.224437    4.081221    0.000572
     78          1           0        7.272921    4.289981    0.102486
     79          1           0        8.092750    3.799534    1.646934
     80          1           0       -8.022150   -3.365459   -0.396226
     81          1           0       -8.388023   -2.658297   -2.022682
     82          1           0       -6.734338   -2.946753   -1.453594
     83          1           0        7.074190    0.507072   -0.467580
     84          1           0       -6.446973    0.518584   -0.040968
     85          1           0        5.639521    3.127803    0.233209
     86          1           0       -5.188012   -2.004732   -0.770556
     87          1           0        4.819031    0.189613   -0.325488
     88          1           0       -4.165077    0.791184   -0.263507
     89          1           0        3.512866    3.375565    1.380366
     90          1           0        1.660980    3.123255    0.770208
     91          1           0        3.104409    3.851825   -0.366720
     92          1           0       -3.078363   -2.832794   -0.251160
     93          1           0       -2.848255   -2.221457   -2.110844
     94          1           0       -1.349740   -2.470264   -0.798273
     95          1           0        2.201132   -0.196924   -0.593205
     96          1           0       -1.836929    1.147054    0.298991
     97          1           0        0.249482    1.888329    0.354504
     98          1           0        0.222077   -0.939205   -0.794330
 ---------------------------------------------------------------------

 SCF Done:  E(RCAM-B3LYP) =  -1706.99084025     A.U. after   14 cycles

 Excitation energies and oscillator strengths:

 Excited State   1:      Singlet-A      2.7173 eV  456.27 nm  f=3.6843  <S**2>=0.000
     155 ->158        -0.17400
     156 ->157         0.68087
 This state for optimization and/or second-order correction.
 Total Energy, E(TD-HF/TD-DFT) =  -1706.89098081
 Copying the excited state density for this state as the 1-particle RhoCI density.

 The electronic state is 1-A.
 Alpha  occ. eigenvalues --  -19.21827 -19.20976 -10.30110 -10.30018 -10.28576
 Alpha  occ. eigenvalues --  -10.28518 -10.28317 -10.28233 -10.28071 -10.27878
 Alpha  occ. eigenvalues --  -10.27619 -10.27398 -10.27279 -10.27246 -10.27241
 Alpha  occ. eigenvalues --  -10.27103 -10.26951 -10.26691 -10.26684 -10.26541
 Alpha  occ. eigenvalues --  -10.26490 -10.26464 -10.26395 -10.26340 -10.26130
 Alpha  occ. eigenvalues --  -10.26048 -10.26000 -10.25968 -10.25959 -10.25954
 Alpha  occ. eigenvalues --  -10.25910 -10.25889 -10.25686 -10.25355 -10.25253
 Alpha  occ. eigenvalues --  -10.25212 -10.25118 -10.25019 -10.24976 -10.24853
 Alpha  occ. eigenvalues --  -10.24271 -10.23775  -1.11193  -1.06428  -0.93789
 Alpha  occ. eigenvalues --   -0.93424  -0.92106  -0.91838  -0.90900  -0.89528
 Alpha  occ. eigenvalues --   -0.87787  -0.87333  -0.86313  -0.85731  -0.85154
 Alpha  occ. eigenvalues --   -0.82863  -0.81888  -0.80167  -0.79408  -0.77095
 Alpha  occ. eigenvalues --   -0.76235  -0.76058  -0.75597  -0.75535  -0.75111
 Alpha  occ. eigenvalues --   -0.75039  -0.74952  -0.73786  -0.73578  -0.71136
 Alpha  occ. eigenvalues --   -0.69296  -0.67176  -0.65948  -0.64543  -0.63814
 Alpha  occ. eigenvalues --   -0.63330  -0.63075  -0.62655  -0.61193  -0.60144
 Alpha  occ. eigenvalues --   -0.59636  -0.59082  -0.57810  -0.57288  -0.56028
 Alpha  occ. eigenvalues --   -0.55422  -0.55045  -0.54702  -0.54505  -0.53446
 Alpha  occ. eigenvalues --   -0.53207  -0.52739  -0.52229  -0.51583  -0.51305
 Alpha  occ. eigenvalues --   -0.50418  -0.50193  -0.49785  -0.49085  -0.48839
 Alpha  occ. eigenvalues --   -0.47926  -0.47859  -0.47827  -0.47528  -0.47252
 Alpha  occ. eigenvalues --   -0.46679  -0.46588  -0.46009  -0.45904  -0.45657
 Alpha  occ. eigenvalues --   -0.45451  -0.45352  -0.45014  -0.44843  -0.44732
 Alpha  occ. eigenvalues --   -0.44345  -0.43931  -0.43677  -0.43597  -0.43524
 Alpha  occ. eigenvalues --   -0.43388  -0.43047  -0.42895  -0.42735  -0.42162
 Alpha  occ. eigenvalues --   -0.41959  -0.41529  -0.41168  -0.40820  -0.40700
 Alpha  occ. eigenvalues --   -0.40431  -0.40024  -0.39572  -0.39349  -0.39277
 Alpha  occ. eigenvalues --   -0.39202  -0.38697  -0.38604  -0.38320  -0.38141
 Alpha  occ. eigenvalues --   -0.38133  -0.37583  -0.36604  -0.36321  -0.35670
 Alpha  occ. eigenvalues --   -0.35066  -0.34272  -0.33500  -0.32431  -0.32109
 Alpha  occ. eigenvalues --   -0.31429  -0.30070  -0.28007  -0.26681  -0.24143
 Alpha  occ. eigenvalues --   -0.21042
 Alpha virt. eigenvalues --   -0.04667  -0.00517   0.03313   0.05654   0.08204
 Alpha virt. eigenvalues --    0.09596   0.10603   0.11358   0.11504   0.12005
 Alpha virt. eigenvalues --    0.12272   0.12665   0.12865   0.13050   0.13530

 Mulliken charges:
               1
     1  O   -0.546487
     2  O   -0.574139
     3  C   -0.032985
     4  C   -0.031637
     5  C   -0.184677
     6  C   -0.171368
     7  C    0.180821
     8  C    0.167061
     9  C    0.084685
    10  C    0.091625
    11  C   -0.235006
    12  C   -0.203999
    13  C    0.020689
    14  C    0.025167
    15  C   -0.274011
    16  C   -0.291662
    17  C   -0.291021
    18  C   -0.298503
    19  C   -0.133148
    20  C   -0.129483
    21  C   -0.336576
    22  C   -0.378207
    23  C   -0.130403
    24  C   -0.106436
    25  C    0.102562
    26  C    0.148420
    27  C   -0.357896
    28  C   -0.375898
    29  C   -0.112003
    30  C   -0.129907
    31  C   -0.073805
    32  C   -0.057171
    33  C   -0.104703
    34  C   -0.130114
    35  C    0.067639
    36  C    0.114134
    37  C   -0.337937
    38  C   -0.344847
    39  C   -0.116652
    40  C   -0.141756
    41  C   -0.074327
    42  C   -0.080630
    43  H    0.069411
    44  H    0.075597
    45  H    0.066174
    46  H    0.098286
    47  H    0.068858
    48  H    0.087605
    49  H    0.120053
    50  H    0.104520
    51  H    0.121796
    52  H    0.102557
    53  H    0.086988
    54  H    0.092020
    55  H    0.119958
    56  H    0.111851
    57  H    0.093617
    58  H    0.096668
    59  H    0.065405
    60  H    0.112239
    61  H    0.100137
    62  H    0.099662
    63  H    0.103656
    64  H    0.099587
    65  H    0.089140
    66  H    0.087408
    67  H    0.124922
    68  H    0.134348
    69  H    0.093590
    70  H    0.089578
    71  H    0.114929
    72  H    0.126287
    73  H    0.311090
    74  H    0.296911
    75  H    0.082481
    76  H    0.084203
    77  H    0.098924
    78  H    0.114523
    79  H    0.095318
    80  H    0.077181
    81  H    0.122360
    82  H    0.116772
    83  H    0.074543
    84  H    0.074558
    85  H    0.062134
    86  H    0.065693
    87  H    0.083984
    88  H    0.079663
    89  H    0.136046
    90  H    0.103610
    91  H    0.115432
    92  H    0.097282
    93  H    0.086117
    94  H    0.114612
    95  H    0.083049
    96  H    0.081165
    97  H    0.079182
    98  H    0.090911
 Sum of Mulliken charges =  -0.00000

 Dipole moment (field-independent basis, Debye):
    X=              2.4506    Y=             -1.4584    Z=              2.2231  Tot=              3.6159
 Quadrupole moment (field-independent basis, Debye-Ang):
   XX=           -278.9213   YY=           -247.5939   ZZ=           -259.3072
   XY=              2.1371   XZ=             -3.2391   YZ=              1.1759

 Normal termination of Gaussian 16 at Mon Jul  8 05:42:29 2019.
