 Gaussian 16, Revision A.03,
 Gaussian 16:  ES64L-G16RevA.03 25-Dec-2016

 -------------------------------------
 # td=(NStates=1) CAM-B3LYP/6-31G(d,p)
 -------------------------------------

 --
 TD
 --
 Symbolic Z-matrix:
 Charge =  0 Multiplicity = 1

                         Standard orientation:
 ---------------------------------------------------------------------
 Center     Atomic      Atomic             Coordinates (Angstroms)
 Number     Number       Type             X           Y           Z
 ---------------------------------------------------------------------
      1          8           0       14.659947   -2.433527   -0.381964
      2          8           0      -14.888862    1.800375    0.645710
      3          6           0       11.377646   -1.179241    1.142116
      4          6           0      -12.235748   -0.924604    0.875127
      5          6           0       12.913382   -1.573718    1.036492
      6          6           0      -13.569529   -0.123337    0.867081
      7          6           0       13.247206   -2.081234   -0.336868
      8          6           0      -13.622176    1.295768    0.692440
      9          6           0       10.942446   -0.309391   -0.076132
     10          6           0      -11.310343   -0.339167   -0.222678
     11          6           0       12.975530   -0.865799   -1.351766
     12          6           0      -12.876485    1.620182   -0.648703
     13          6           0       11.711677   -0.197173   -1.160176
     14          6           0      -11.568850    0.825390   -0.931468
     15          6           0       11.277062   -0.399260    2.497768
     16          6           0       10.528083   -2.395450    1.231223
     17          6           0      -11.543385   -0.732201    2.232158
     18          6           0      -12.507463   -2.353434    0.615853
     19          6           0        9.671311    0.467606    0.213941
     20          6           0      -10.091223   -1.107746   -0.403116
     21          6           0       11.418533    0.676513   -2.492787
     22          6           0      -10.840808    1.387687   -1.976311
     23          6           0        9.332653    1.698116    0.026209
     24          6           0       -8.797491   -0.577135   -0.260923
     25          6           0        8.111780    2.368525    0.240272
     26          6           0       -7.576355   -1.300955   -0.430105
     27          6           0        8.103050    3.813459    0.755144
     28          6           0       -7.689737   -2.813660   -0.723276
     29          6           0        6.941976    1.631152    0.094896
     30          6           0       -6.381213   -0.642884   -0.490004
     31          6           0        5.610627    2.076797    0.299296
     32          6           0       -5.081604   -1.109015   -0.647773
     33          6           0        4.463858    1.296198   -0.008485
     34          6           0       -3.995135   -0.337259   -0.345758
     35          6           0        3.117688    1.700661    0.058699
     36          6           0       -2.583030   -0.829493   -0.440298
     37          6           0        2.722657    3.107810    0.621244
     38          6           0       -2.285830   -2.211345   -0.690887
     39          6           0        2.019031    0.891940   -0.346175
     40          6           0       -1.656386    0.176226   -0.255502
     41          6           0        0.687899    0.993691   -0.082897
     42          6           0       -0.282012   -0.008396   -0.365855
     43          1           0       13.580284   -0.702202    1.173110
     44          1           0       13.298057   -2.497080    1.666557
     45          1           0      -14.096073   -0.401024    1.767698
     46          1           0      -14.246454   -0.711810    0.084239
     47          1           0       12.631311   -2.940087   -0.779557
     48          1           0      -13.043442    1.850014    1.412784
     49          1           0       13.644369   -0.153503   -1.250203
     50          1           0       12.980982   -1.159918   -2.415321
     51          1           0      -13.657300    1.587471   -1.483342
     52          1           0      -12.790843    2.707862   -0.682780
     53          1           0       11.599852   -1.134391    3.503071
     54          1           0       10.249977   -0.128826    2.490524
     55          1           0       11.936837    0.588164    2.516029
     56          1           0       10.529147   -3.101876    0.324834
     57          1           0       10.713350   -2.996075    2.049232
     58          1           0        9.532348   -2.028230    1.419568
     59          1           0      -11.557165    0.332562    2.781882
     60          1           0      -10.599876   -1.156526    1.993510
     61          1           0      -12.212435   -1.398794    3.068888
     62          1           0      -13.205747   -3.032057    1.328328
     63          1           0      -11.432927   -3.044449    0.777071
     64          1           0      -12.839547   -2.568573   -0.347312
     65          1           0        8.906284   -0.168914    0.572678
     66          1           0      -10.186243   -2.065695   -0.763745
     67          1           0       10.377090    1.078937   -2.415252
     68          1           0       12.062201    1.467137   -2.492938
     69          1           0       11.514970    0.095462   -3.475288
     70          1           0      -11.418372    1.719104   -2.999692
     71          1           0       -9.940753    0.581229   -2.271781
     72          1           0      -10.412875    2.434876   -1.624505
     73          1           0       14.871974   -3.443671    0.107685
     74          1           0      -15.216666    1.957493    1.684481
     75          1           0       10.074337    2.200754   -0.358306
     76          1           0       -8.629158    0.509306    0.162771
     77          1           0        8.928077    4.202761   -0.092567
     78          1           0        7.100241    4.483496    0.545739
     79          1           0        8.324807    4.230843    1.827972
     80          1           0       -8.144977   -3.427705    0.095071
     81          1           0       -8.265329   -2.888279   -1.729343
     82          1           0       -6.613110   -3.284726   -0.781312
     83          1           0        7.031473    0.638135   -0.652666
     84          1           0       -6.367557    0.513166   -0.226356
     85          1           0        5.462533    3.008286    0.548893
     86          1           0       -4.976118   -2.151473   -0.951437
     87          1           0        4.580584    0.364214   -0.386321
     88          1           0       -4.019350    0.740479   -0.109620
     89          1           0        3.183278    3.276939    1.728036
     90          1           0        1.719292    3.296573    0.744103
     91          1           0        3.093422    3.917168   -0.096720
     92          1           0       -2.746139   -2.775066    0.167626
     93          1           0       -2.836358   -2.434120   -1.721742
     94          1           0       -1.309725   -2.542779   -0.539907
     95          1           0        2.367847   -0.213885   -0.604274
     96          1           0       -2.091964    1.183016   -0.058660
     97          1           0        0.232147    1.861241    0.332312
     98          1           0        0.085000   -0.904678   -0.545809
 ---------------------------------------------------------------------

 SCF Done:  E(RCAM-B3LYP) =  -1706.91972952     A.U. after   15 cycles

 Excitation energies and oscillator strengths:

 Excited State   1:      Singlet-A      2.1776 eV  569.37 nm  f=3.7084  <S**2>=0.000
     155 ->158        -0.13523
     156 ->157         0.69556
 This state for optimization and/or second-order correction.
 Total Energy, E(TD-HF/TD-DFT) =  -1706.83970571
 Copying the excited state density for this state as the 1-particle RhoCI density.

 The electronic state is 1-A.
 Alpha  occ. eigenvalues --  -19.22232 -19.21679 -10.30699 -10.29448 -10.29109
 Alpha  occ. eigenvalues --  -10.28097 -10.28048 -10.27588 -10.27537 -10.27493
 Alpha  occ. eigenvalues --  -10.27395 -10.27361 -10.27300 -10.27248 -10.27170
 Alpha  occ. eigenvalues --  -10.27058 -10.27008 -10.26806 -10.26743 -10.26676
 Alpha  occ. eigenvalues --  -10.26664 -10.26570 -10.26552 -10.26380 -10.26261
 Alpha  occ. eigenvalues --  -10.26249 -10.26212 -10.26167 -10.26142 -10.26116
 Alpha  occ. eigenvalues --  -10.25960 -10.25782 -10.25679 -10.25643 -10.25570
 Alpha  occ. eigenvalues --  -10.25431 -10.25217 -10.24869 -10.23982 -10.23919
 Alpha  occ. eigenvalues --  -10.23828 -10.23820  -1.09641  -1.05219  -0.93414
 Alpha  occ. eigenvalues --   -0.93357  -0.92541  -0.91508  -0.90741  -0.89992
 Alpha  occ. eigenvalues --   -0.87480  -0.87186  -0.87104  -0.85680  -0.84455
 Alpha  occ. eigenvalues --   -0.83074  -0.81864  -0.79968  -0.79618  -0.78609
 Alpha  occ. eigenvalues --   -0.76417  -0.76047  -0.75665  -0.75559  -0.75038
 Alpha  occ. eigenvalues --   -0.74856  -0.74650  -0.74491  -0.72939  -0.70940
 Alpha  occ. eigenvalues --   -0.68860  -0.67429  -0.65421  -0.64811  -0.64144
 Alpha  occ. eigenvalues --   -0.63038  -0.62906  -0.61877  -0.61124  -0.60537
 Alpha  occ. eigenvalues --   -0.59522  -0.58511  -0.57945  -0.57653  -0.55917
 Alpha  occ. eigenvalues --   -0.55331  -0.54799  -0.54616  -0.54034  -0.53296
 Alpha  occ. eigenvalues --   -0.52916  -0.52709  -0.52321  -0.51761  -0.50658
 Alpha  occ. eigenvalues --   -0.50424  -0.50041  -0.49766  -0.49717  -0.49165
 Alpha  occ. eigenvalues --   -0.48954  -0.48350  -0.48239  -0.48070  -0.48038
 Alpha  occ. eigenvalues --   -0.47345  -0.47144  -0.47015  -0.46657  -0.46105
 Alpha  occ. eigenvalues --   -0.45853  -0.45624  -0.45584  -0.45412  -0.45176
 Alpha  occ. eigenvalues --   -0.44306  -0.44182  -0.43950  -0.43525  -0.42685
 Alpha  occ. eigenvalues --   -0.42401  -0.42363  -0.42160  -0.42069  -0.41682
 Alpha  occ. eigenvalues --   -0.41213  -0.40995  -0.40834  -0.40644  -0.39993
 Alpha  occ. eigenvalues --   -0.39939  -0.39723  -0.39366  -0.39260  -0.39234
 Alpha  occ. eigenvalues --   -0.39011  -0.38680  -0.38590  -0.38466  -0.38110
 Alpha  occ. eigenvalues --   -0.37530  -0.37419  -0.35906  -0.35627  -0.35316
 Alpha  occ. eigenvalues --   -0.34669  -0.34012  -0.33606  -0.32566  -0.32006
 Alpha  occ. eigenvalues --   -0.31172  -0.29569  -0.28218  -0.26753  -0.23948
 Alpha  occ. eigenvalues --   -0.19389
 Alpha virt. eigenvalues --   -0.06207  -0.00944   0.02649   0.05775   0.07161
 Alpha virt. eigenvalues --    0.08380   0.09069   0.09301   0.11107   0.12085
 Alpha virt. eigenvalues --    0.12135   0.12752   0.12966   0.13173   0.13270

 Mulliken charges:
               1
     1  O   -0.578889
     2  O   -0.552014
     3  C   -0.034302
     4  C    0.007915
     5  C   -0.153369
     6  C   -0.161355
     7  C    0.161262
     8  C    0.183207
     9  C    0.060275
    10  C    0.034889
    11  C   -0.214090
    12  C   -0.250209
    13  C    0.020160
    14  C    0.133603
    15  C   -0.274879
    16  C   -0.291891
    17  C   -0.269224
    18  C   -0.297823
    19  C   -0.121035
    20  C   -0.174935
    21  C   -0.362170
    22  C   -0.372395
    23  C   -0.059011
    24  C   -0.082810
    25  C    0.078739
    26  C    0.102042
    27  C   -0.344645
    28  C   -0.365413
    29  C   -0.120329
    30  C   -0.116429
    31  C   -0.061298
    32  C   -0.088095
    33  C   -0.102972
    34  C   -0.109927
    35  C    0.103743
    36  C    0.121925
    37  C   -0.362706
    38  C   -0.372696
    39  C   -0.139601
    40  C   -0.125052
    41  C   -0.068954
    42  C   -0.077034
    43  H    0.106486
    44  H    0.060311
    45  H    0.068486
    46  H    0.076252
    47  H    0.075486
    48  H    0.072713
    49  H    0.130582
    50  H    0.100091
    51  H    0.106734
    52  H    0.095648
    53  H    0.070490
    54  H    0.110674
    55  H    0.093421
    56  H    0.094864
    57  H    0.109053
    58  H    0.101246
    59  H    0.089818
    60  H    0.116416
    61  H    0.060838
    62  H    0.092778
    63  H    0.058803
    64  H    0.123889
    65  H    0.082676
    66  H    0.101804
    67  H    0.111816
    68  H    0.132185
    69  H    0.107504
    70  H    0.098033
    71  H    0.095917
    72  H    0.102958
    73  H    0.298843
    74  H    0.309550
    75  H    0.059972
    76  H    0.085741
    77  H    0.091361
    78  H    0.096795
    79  H    0.127244
    80  H    0.123524
    81  H    0.119604
    82  H    0.091753
    83  H    0.076792
    84  H    0.068002
    85  H    0.072050
    86  H    0.084905
    87  H    0.072296
    88  H    0.088726
    89  H    0.095723
    90  H    0.119747
    91  H    0.111573
    92  H    0.123696
    93  H    0.119167
    94  H    0.123174
    95  H    0.063369
    96  H    0.078966
    97  H    0.079688
    98  H    0.067558
 Sum of Mulliken charges =  -0.00000

 Dipole moment (field-independent basis, Debye):
    X=              0.0792    Y=             -0.9222    Z=              1.6084  Tot=              1.8557
 Quadrupole moment (field-independent basis, Debye-Ang):
   XX=           -294.6364   YY=           -238.4533   ZZ=           -260.9453
   XY=             -3.3022   XZ=            -14.2957   YZ=              4.4662

 Normal termination of Gaussian 16 at Sat Jul  6 23:38:18 2019.
