 Gaussian 16, Revision A.03,
 Gaussian 16:  ES64L-G16RevA.03 25-Dec-2016

 -------------------------------------
 # td=(NStates=1) CAM-B3LYP/6-31G(d,p)
 -------------------------------------

 --
 TD
 --
 Symbolic Z-matrix:
 Charge =  0 Multiplicity = 1

                         Standard orientation:
 ---------------------------------------------------------------------
 Center     Atomic      Atomic             Coordinates (Angstroms)
 Number     Number       Type             X           Y           Z
 ---------------------------------------------------------------------
      1          8           0       14.684698   -2.115549   -0.332263
      2          8           0      -14.799711    2.083673    0.758200
      3          6           0       11.468830   -1.116820    1.271951
      4          6           0      -12.234360   -0.846979    0.920998
      5          6           0       12.876431   -1.318806    1.080276
      6          6           0      -13.660243   -0.189968    0.920300
      7          6           0       13.327496   -1.877256   -0.239100
      8          6           0      -13.500400    1.348155    0.778261
      9          6           0       10.984633   -0.378155    0.061914
     10          6           0      -11.355706   -0.240326   -0.268255
     11          6           0       13.019383   -0.822077   -1.348795
     12          6           0      -12.773476    1.703069   -0.614426
     13          6           0       11.652658   -0.211402   -1.095312
     14          6           0      -11.650365    0.836099   -0.972764
     15          6           0       11.230941   -0.252764    2.488136
     16          6           0       10.579736   -2.356085    1.343095
     17          6           0      -11.581149   -0.532684    2.340705
     18          6           0      -12.412488   -2.384356    0.944604
     19          6           0        9.643005    0.380467    0.221100
     20          6           0      -10.063308   -1.105795   -0.516398
     21          6           0       11.251661    0.335827   -2.404286
     22          6           0      -10.648366    1.357280   -2.014978
     23          6           0        9.378441    1.631431   -0.121422
     24          6           0       -8.853447   -0.632278   -0.497237
     25          6           0        7.943602    2.184742    0.164952
     26          6           0       -7.508564   -1.353353   -0.661113
     27          6           0        8.050314    3.651068    0.508215
     28          6           0       -7.630926   -2.900382   -0.867584
     29          6           0        6.861094    1.506241   -0.085376
     30          6           0       -6.444779   -0.626773   -0.469722
     31          6           0        5.554951    1.969017    0.232550
     32          6           0       -5.152130   -1.153678   -0.550813
     33          6           0        4.394397    1.336895   -0.136600
     34          6           0       -4.001032   -0.489115   -0.393968
     35          6           0        2.999141    1.749929    0.011103
     36          6           0       -2.546404   -0.903822   -0.556405
     37          6           0        2.686024    3.141801    0.434043
     38          6           0       -2.373349   -2.330665   -0.916952
     39          6           0        2.052221    0.873793   -0.147686
     40          6           0       -1.692490    0.103865   -0.188124
     41          6           0        0.556714    0.928266    0.022656
     42          6           0       -0.303022   -0.063242   -0.256981
     43          1           0       13.470404   -0.198618    1.175988
     44          1           0       13.375507   -2.101358    1.838650
     45          1           0      -14.231755   -0.418482    1.999178
     46          1           0      -13.986909   -0.554029   -0.121897
     47          1           0       12.819353   -2.918024   -0.325530
     48          1           0      -13.077421    1.756394    1.799365
     49          1           0       13.684697   -0.022743   -1.015223
     50          1           0       13.340032   -1.131718   -2.304793
     51          1           0      -13.597693    1.623158   -1.263670
     52          1           0      -12.430865    2.869849   -0.651893
     53          1           0       11.588475   -0.698614    3.514201
     54          1           0       10.144086    0.063870    2.617747
     55          1           0       11.827669    0.569622    2.527126
     56          1           0       10.692068   -3.255765    0.475676
     57          1           0       10.732420   -2.875865    2.195223
     58          1           0        9.595786   -2.207605    1.239500
     59          1           0      -11.401158    0.533557    2.503028
     60          1           0      -10.623448   -1.125392    2.417195
     61          1           0      -12.350728   -0.716255    3.087238
     62          1           0      -13.072653   -2.847275    1.646608
     63          1           0      -11.462328   -3.076650    1.196562
     64          1           0      -12.783930   -2.755202   -0.055305
     65          1           0        8.993519   -0.178742    0.764973
     66          1           0      -10.164726   -2.249708   -0.588206
     67          1           0       10.149292    0.772938   -2.310464
     68          1           0       11.968429    1.265649   -2.346214
     69          1           0       11.585506   -0.174261   -3.187093
     70          1           0      -11.174010    1.873201   -2.756692
     71          1           0       -9.956384    0.447315   -2.440880
     72          1           0       -9.721364    1.930446   -1.524214
     73          1           0       14.900841   -2.846048    0.250469
     74          1           0      -15.574609    1.505868    1.238483
     75          1           0        9.917665    2.538599   -0.745896
     76          1           0       -8.497291    0.555878   -0.363211
     77          1           0        8.796828    4.148727   -0.440577
     78          1           0        6.958541    3.980701    0.753123
     79          1           0        8.853605    3.828556    1.405049
     80          1           0       -8.181912   -3.447752   -0.086940
     81          1           0       -7.877773   -3.115157   -1.999427
     82          1           0       -6.496025   -3.349387   -0.788221
     83          1           0        6.860000    0.473830   -0.315550
     84          1           0       -6.527196    0.348311   -0.212138
     85          1           0        5.399268    2.926993    0.561221
     86          1           0       -4.858177   -2.144421   -0.832325
     87          1           0        4.438765    0.383403   -0.495751
     88          1           0       -4.415307    0.543171   -0.121252
     89          1           0        3.427404    3.491946    1.397679
     90          1           0        1.796064    3.335651    0.465960
     91          1           0        3.373915    3.826013   -0.233039
     92          1           0       -2.662371   -2.883610    0.082001
     93          1           0       -2.879444   -2.716622   -1.792575
     94          1           0       -1.297676   -2.473113   -0.962852
     95          1           0        2.588496   -0.147992   -0.552793
     96          1           0       -1.949136    1.028114    0.235405
     97          1           0        0.028820    1.791305    0.088683
     98          1           0        0.110908   -1.234629   -0.572586
 ---------------------------------------------------------------------

 SCF Done:  E(RCAM-B3LYP) =  -1706.83691683     A.U. after   13 cycles

 Excitation energies and oscillator strengths:

 Excited State   1:      Singlet-A      3.2598 eV  380.34 nm  f=3.5528  <S**2>=0.000
     155 ->158        -0.16697
     156 ->157         0.67884
 This state for optimization and/or second-order correction.
 Total Energy, E(TD-HF/TD-DFT) =  -1706.71712197
 Copying the excited state density for this state as the 1-particle RhoCI density.

 The electronic state is 1-A.
 Alpha  occ. eigenvalues --  -19.21010 -19.20849 -10.31890 -10.30371 -10.29275
 Alpha  occ. eigenvalues --  -10.28981 -10.28719 -10.28093 -10.27944 -10.27650
 Alpha  occ. eigenvalues --  -10.27424 -10.27412 -10.27345 -10.27142 -10.27118
 Alpha  occ. eigenvalues --  -10.26981 -10.26813 -10.26743 -10.26655 -10.26600
 Alpha  occ. eigenvalues --  -10.26485 -10.26405 -10.26332 -10.26329 -10.26297
 Alpha  occ. eigenvalues --  -10.26142 -10.26007 -10.26006 -10.25953 -10.25798
 Alpha  occ. eigenvalues --  -10.25692 -10.25326 -10.25253 -10.25244 -10.25125
 Alpha  occ. eigenvalues --  -10.24957 -10.24730 -10.24723 -10.24696 -10.24626
 Alpha  occ. eigenvalues --  -10.24532 -10.24392  -1.10867  -1.04634  -0.94852
 Alpha  occ. eigenvalues --   -0.92798  -0.92478  -0.92049  -0.91081  -0.90210
 Alpha  occ. eigenvalues --   -0.88186  -0.87333  -0.86625  -0.85572  -0.84788
 Alpha  occ. eigenvalues --   -0.82647  -0.81807  -0.80302  -0.79160  -0.78695
 Alpha  occ. eigenvalues --   -0.77466  -0.76895  -0.76262  -0.75847  -0.75320
 Alpha  occ. eigenvalues --   -0.75137  -0.74933  -0.74675  -0.74507  -0.69940
 Alpha  occ. eigenvalues --   -0.68056  -0.66641  -0.65788  -0.65256  -0.64176
 Alpha  occ. eigenvalues --   -0.63164  -0.62574  -0.61646  -0.61307  -0.61148
 Alpha  occ. eigenvalues --   -0.58731  -0.58309  -0.57415  -0.56472  -0.56341
 Alpha  occ. eigenvalues --   -0.55361  -0.54974  -0.54435  -0.54102  -0.53923
 Alpha  occ. eigenvalues --   -0.53144  -0.52791  -0.52551  -0.51272  -0.50798
 Alpha  occ. eigenvalues --   -0.50601  -0.50184  -0.50144  -0.49944  -0.49596
 Alpha  occ. eigenvalues --   -0.49077  -0.48946  -0.48726  -0.48555  -0.48459
 Alpha  occ. eigenvalues --   -0.47827  -0.47135  -0.46806  -0.46246  -0.45629
 Alpha  occ. eigenvalues --   -0.45552  -0.45397  -0.45258  -0.44954  -0.44835
 Alpha  occ. eigenvalues --   -0.44734  -0.44271  -0.44131  -0.44017  -0.43462
 Alpha  occ. eigenvalues --   -0.42965  -0.42642  -0.42484  -0.42305  -0.41746
 Alpha  occ. eigenvalues --   -0.41655  -0.41347  -0.41220  -0.40601  -0.40364
 Alpha  occ. eigenvalues --   -0.40083  -0.39958  -0.39476  -0.39286  -0.39114
 Alpha  occ. eigenvalues --   -0.39040  -0.38618  -0.38252  -0.38090  -0.37543
 Alpha  occ. eigenvalues --   -0.37322  -0.36761  -0.36095  -0.35810  -0.34858
 Alpha  occ. eigenvalues --   -0.34494  -0.34104  -0.32989  -0.32589  -0.31766
 Alpha  occ. eigenvalues --   -0.31278  -0.29835  -0.28257  -0.26855  -0.25066
 Alpha  occ. eigenvalues --   -0.22108
 Alpha virt. eigenvalues --   -0.03083   0.01040   0.03929   0.06053   0.07575
 Alpha virt. eigenvalues --    0.09175   0.10596   0.10719   0.11109   0.11612
 Alpha virt. eigenvalues --    0.11811   0.12208   0.12242   0.12946   0.13060

 Mulliken charges:
               1
     1  O   -0.542462
     2  O   -0.593523
     3  C    0.036177
     4  C   -0.004223
     5  C   -0.187125
     6  C   -0.211199
     7  C    0.171001
     8  C    0.189574
     9  C    0.034791
    10  C    0.037028
    11  C   -0.237070
    12  C   -0.242373
    13  C    0.050246
    14  C    0.092159
    15  C   -0.296688
    16  C   -0.298264
    17  C   -0.296674
    18  C   -0.306982
    19  C   -0.120349
    20  C   -0.191113
    21  C   -0.334914
    22  C   -0.351951
    23  C   -0.091842
    24  C   -0.044222
    25  C    0.056518
    26  C    0.120342
    27  C   -0.338786
    28  C   -0.368753
    29  C   -0.065797
    30  C   -0.107055
    31  C   -0.079202
    32  C   -0.079213
    33  C   -0.126048
    34  C   -0.120167
    35  C    0.186790
    36  C    0.080383
    37  C   -0.336196
    38  C   -0.370887
    39  C   -0.164539
    40  C   -0.095976
    41  C   -0.121008
    42  C   -0.043997
    43  H    0.070054
    44  H    0.048489
    45  H    0.076260
    46  H    0.103587
    47  H    0.059183
    48  H    0.082379
    49  H    0.125834
    50  H    0.113263
    51  H    0.135983
    52  H    0.102290
    53  H    0.077913
    54  H    0.100075
    55  H    0.118976
    56  H    0.069143
    57  H    0.111295
    58  H    0.120239
    59  H    0.103301
    60  H    0.105116
    61  H    0.095286
    62  H    0.113209
    63  H    0.079033
    64  H    0.095240
    65  H    0.090329
    66  H    0.095588
    67  H    0.105025
    68  H    0.097071
    69  H    0.125478
    70  H    0.109972
    71  H    0.108262
    72  H    0.105182
    73  H    0.299929
    74  H    0.301904
    75  H    0.091071
    76  H    0.059115
    77  H    0.082968
    78  H    0.106811
    79  H    0.111177
    80  H    0.132542
    81  H    0.119961
    82  H    0.088089
    83  H    0.083436
    84  H    0.084401
    85  H    0.053417
    86  H    0.059043
    87  H    0.063470
    88  H    0.050984
    89  H    0.087007
    90  H    0.097095
    91  H    0.108622
    92  H    0.129425
    93  H    0.140329
    94  H    0.114265
    95  H    0.060966
    96  H    0.099612
    97  H    0.084134
    98  H    0.060758
 Sum of Mulliken charges =  -0.00000

 Dipole moment (field-independent basis, Debye):
    X=              0.3228    Y=             -2.8188    Z=              1.2631  Tot=              3.1057
 Quadrupole moment (field-independent basis, Debye-Ang):
   XX=           -272.9387   YY=           -248.9709   ZZ=           -262.0311
   XY=             18.9409   XZ=              0.9456   YZ=             -0.5333

 Normal termination of Gaussian 16 at Wed Jul 10 18:20:14 2019.
