 Gaussian 16, Revision A.03,
 Gaussian 16:  ES64L-G16RevA.03 25-Dec-2016

 -------------------------------------
 # td=(NStates=1) CAM-B3LYP/6-31G(d,p)
 -------------------------------------

 --
 TD
 --
 Symbolic Z-matrix:
 Charge =  0 Multiplicity = 1

                         Standard orientation:
 ---------------------------------------------------------------------
 Center     Atomic      Atomic             Coordinates (Angstroms)
 Number     Number       Type             X           Y           Z
 ---------------------------------------------------------------------
      1          8           0       14.866410   -1.932647   -0.355355
      2          8           0      -14.651659    2.073702    0.679454
      3          6           0       11.468989   -1.005725    1.307347
      4          6           0      -12.279414   -0.950205    0.873956
      5          6           0       13.020484   -1.336446    1.189522
      6          6           0      -13.688066   -0.148142    0.847783
      7          6           0       13.395832   -1.807136   -0.262928
      8          6           0      -13.451897    1.477767    0.714690
      9          6           0       11.002310   -0.325431   -0.015889
     10          6           0      -11.312986   -0.345792   -0.115828
     11          6           0       13.013182   -0.765246   -1.263451
     12          6           0      -12.718260    1.750415   -0.554617
     13          6           0       11.661977   -0.262078   -1.137197
     14          6           0      -11.531806    0.888182   -0.721961
     15          6           0       11.231738   -0.195300    2.517980
     16          6           0       10.726520   -2.444026    1.342528
     17          6           0      -11.734303   -0.759858    2.349126
     18          6           0      -12.656442   -2.353466    0.572042
     19          6           0        9.515816    0.260612    0.186214
     20          6           0      -10.055541   -1.042798   -0.390715
     21          6           0       11.062003    0.403178   -2.417848
     22          6           0      -10.574532    1.393809   -1.830302
     23          6           0        9.357883    1.554992   -0.052253
     24          6           0       -8.819571   -0.609571   -0.399581
     25          6           0        8.021202    2.262301    0.023526
     26          6           0       -7.627006   -1.260162   -0.565251
     27          6           0        8.019109    3.819718    0.325813
     28          6           0       -7.676537   -2.723155   -1.011592
     29          6           0        6.950026    1.546245   -0.030129
     30          6           0       -6.455456   -0.561482   -0.412522
     31          6           0        5.508583    1.982620    0.148957
     32          6           0       -5.116135   -1.050658   -0.593118
     33          6           0        4.445646    1.117806    0.000529
     34          6           0       -3.954803   -0.319384   -0.462181
     35          6           0        3.078581    1.548284    0.115271
     36          6           0       -2.680224   -0.858076   -0.468071
     37          6           0        2.828955    3.009546    0.558239
     38          6           0       -2.448207   -2.236344   -1.009565
     39          6           0        2.042367    0.668806   -0.182200
     40          6           0       -1.592914    0.012647   -0.177856
     41          6           0        0.657574    0.710750    0.018156
     42          6           0       -0.201497   -0.269963   -0.233679
     43          1           0       13.648785   -0.535105    1.321745
     44          1           0       13.246493   -2.243874    1.897072
     45          1           0      -14.450838   -0.380432    1.663481
     46          1           0      -14.262556   -0.300016   -0.125310
     47          1           0       12.837592   -2.731436   -0.633665
     48          1           0      -12.846212    1.671163    1.633987
     49          1           0       13.687385    0.038651   -1.141382
     50          1           0       13.087173   -1.269032   -2.210540
     51          1           0      -13.407108    1.325918   -1.330338
     52          1           0      -12.418956    2.759792   -0.634863
     53          1           0       11.768667   -0.438685    3.306220
     54          1           0       10.070278   -0.167202    2.598793
     55          1           0       11.564027    0.727577    2.327524
     56          1           0       11.246591   -3.086228    0.602382
     57          1           0       10.737440   -2.757963    2.242680
     58          1           0        9.520492   -2.461189    0.993140
     59          1           0      -11.707786    0.338063    2.741079
     60          1           0      -10.951695   -1.439162    2.558933
     61          1           0      -12.367028   -1.035866    3.147375
     62          1           0      -13.479230   -2.406542    1.229200
     63          1           0      -11.967109   -2.984530    0.729781
     64          1           0      -13.114969   -2.701793   -0.358236
     65          1           0        8.755844   -0.530213    0.589624
     66          1           0      -10.270987   -2.225472   -0.299198
     67          1           0        9.933915    0.422322   -2.374270
     68          1           0       11.477151    1.340701   -2.560464
     69          1           0       11.432250   -0.208805   -3.245944
     70          1           0      -11.387732    1.907889   -2.690554
     71          1           0      -10.092524    0.516492   -2.427643
     72          1           0       -9.808260    2.240607   -1.497827
     73          1           0       14.925822   -2.735592    0.233158
     74          1           0      -15.595488    1.963532    1.314813
     75          1           0       10.315125    2.221235   -0.190180
     76          1           0       -8.666149    0.270937    0.133354
     77          1           0        8.319470    4.564326   -0.497395
     78          1           0        6.973091    4.085013    0.487288
     79          1           0        8.757158    3.941820    1.144178
     80          1           0       -7.914244   -3.340689    0.045201
     81          1           0       -8.345247   -2.929785   -1.823840
     82          1           0       -6.668556   -3.088136   -1.159269
     83          1           0        6.937570    0.442668   -0.025130
     84          1           0       -6.559056    0.414278   -0.160495
     85          1           0        5.488816    3.177452    0.155201
     86          1           0       -5.091441   -2.087736   -0.755334
     87          1           0        4.397241    0.019478   -0.198173
     88          1           0       -4.058759    0.769750   -0.214958
     89          1           0        3.389159    3.100422    1.579186
     90          1           0        1.745232    3.158627    0.703441
     91          1           0        3.349306    3.698521   -0.219921
     92          1           0       -2.812064   -3.008375   -0.318376
     93          1           0       -2.968138   -2.280456   -1.907959
     94          1           0       -1.479822   -2.456812   -0.830031
     95          1           0        2.392877   -0.421090   -0.548429
     96          1           0       -1.958175    1.012519   -0.275305
     97          1           0        0.155750    1.709432    0.269309
     98          1           0        0.172337   -1.378842   -0.283587
 ---------------------------------------------------------------------

 SCF Done:  E(RCAM-B3LYP) =  -1706.93076208     A.U. after   15 cycles

 Excitation energies and oscillator strengths:

 Excited State   1:      Singlet-A      2.4348 eV  509.21 nm  f=3.6696  <S**2>=0.000
     155 ->158         0.15039
     156 ->157         0.68975
 This state for optimization and/or second-order correction.
 Total Energy, E(TD-HF/TD-DFT) =  -1706.84128346
 Copying the excited state density for this state as the 1-particle RhoCI density.

 The electronic state is 1-A.
 Alpha  occ. eigenvalues --  -19.21708 -19.21355 -10.30673 -10.30433 -10.28003
 Alpha  occ. eigenvalues --  -10.27837 -10.27646 -10.27586 -10.27444 -10.27019
 Alpha  occ. eigenvalues --  -10.27010 -10.26929 -10.26880 -10.26879 -10.26866
 Alpha  occ. eigenvalues --  -10.26827 -10.26798 -10.26748 -10.26561 -10.26398
 Alpha  occ. eigenvalues --  -10.26321 -10.26296 -10.26036 -10.25993 -10.25810
 Alpha  occ. eigenvalues --  -10.25766 -10.25614 -10.25492 -10.25457 -10.25311
 Alpha  occ. eigenvalues --  -10.25208 -10.25125 -10.25108 -10.24969 -10.24679
 Alpha  occ. eigenvalues --  -10.24539 -10.24226 -10.24013 -10.23731 -10.23648
 Alpha  occ. eigenvalues --  -10.22725 -10.22201  -1.08668  -1.07992  -0.93128
 Alpha  occ. eigenvalues --   -0.93067  -0.92195  -0.91289  -0.90709  -0.89727
 Alpha  occ. eigenvalues --   -0.87528  -0.87431  -0.87044  -0.85047  -0.84114
 Alpha  occ. eigenvalues --   -0.82109  -0.81152  -0.79646  -0.78568  -0.78101
 Alpha  occ. eigenvalues --   -0.77536  -0.77370  -0.76727  -0.75798  -0.75719
 Alpha  occ. eigenvalues --   -0.75598  -0.75063  -0.74049  -0.73239  -0.70760
 Alpha  occ. eigenvalues --   -0.68311  -0.66811  -0.65733  -0.64421  -0.63905
 Alpha  occ. eigenvalues --   -0.63791  -0.62407  -0.60977  -0.60561  -0.59335
 Alpha  occ. eigenvalues --   -0.58761  -0.58257  -0.57947  -0.57471  -0.55754
 Alpha  occ. eigenvalues --   -0.55401  -0.54915  -0.54330  -0.53941  -0.53599
 Alpha  occ. eigenvalues --   -0.53270  -0.52827  -0.52214  -0.51996  -0.50910
 Alpha  occ. eigenvalues --   -0.50488  -0.50371  -0.50055  -0.49756  -0.49532
 Alpha  occ. eigenvalues --   -0.48888  -0.48603  -0.48509  -0.47993  -0.47599
 Alpha  occ. eigenvalues --   -0.47239  -0.47190  -0.46825  -0.46518  -0.46250
 Alpha  occ. eigenvalues --   -0.46179  -0.45962  -0.45727  -0.45275  -0.45062
 Alpha  occ. eigenvalues --   -0.44632  -0.44008  -0.43775  -0.43597  -0.43427
 Alpha  occ. eigenvalues --   -0.42749  -0.42515  -0.42242  -0.41992  -0.41923
 Alpha  occ. eigenvalues --   -0.41728  -0.41289  -0.40917  -0.40854  -0.40733
 Alpha  occ. eigenvalues --   -0.40482  -0.40348  -0.39819  -0.39649  -0.39395
 Alpha  occ. eigenvalues --   -0.38678  -0.38539  -0.38464  -0.38273  -0.37788
 Alpha  occ. eigenvalues --   -0.36979  -0.36847  -0.36712  -0.36339  -0.35462
 Alpha  occ. eigenvalues --   -0.34459  -0.33894  -0.33226  -0.32084  -0.31519
 Alpha  occ. eigenvalues --   -0.29724  -0.29477  -0.28478  -0.26570  -0.23952
 Alpha  occ. eigenvalues --   -0.19771
 Alpha virt. eigenvalues --   -0.05043  -0.00231   0.03443   0.06190   0.07054
 Alpha virt. eigenvalues --    0.08773   0.09850   0.11388   0.11488   0.11992
 Alpha virt. eigenvalues --    0.12829   0.12920   0.13192   0.13768   0.13888

 Mulliken charges:
               1
     1  O   -0.552434
     2  O   -0.590358
     3  C   -0.016716
     4  C   -0.022167
     5  C   -0.190465
     6  C   -0.228903
     7  C    0.108300
     8  C    0.212595
     9  C    0.027697
    10  C    0.092746
    11  C   -0.204962
    12  C   -0.201617
    13  C    0.036617
    14  C    0.038342
    15  C   -0.286127
    16  C   -0.289766
    17  C   -0.310604
    18  C   -0.292237
    19  C   -0.127923
    20  C   -0.158571
    21  C   -0.347619
    22  C   -0.336785
    23  C   -0.099171
    24  C   -0.080368
    25  C    0.076705
    26  C    0.121489
    27  C   -0.357664
    28  C   -0.357972
    29  C   -0.097792
    30  C   -0.117242
    31  C   -0.124852
    32  C   -0.091860
    33  C   -0.095542
    34  C   -0.119914
    35  C    0.109388
    36  C    0.090484
    37  C   -0.353969
    38  C   -0.348006
    39  C   -0.147804
    40  C   -0.141281
    41  C   -0.072322
    42  C   -0.074684
    43  H    0.115112
    44  H    0.066322
    45  H    0.072794
    46  H    0.082282
    47  H    0.080475
    48  H    0.058885
    49  H    0.125347
    50  H    0.107633
    51  H    0.126000
    52  H    0.119307
    53  H    0.106018
    54  H    0.093945
    55  H    0.113281
    56  H    0.100528
    57  H    0.115710
    58  H    0.063113
    59  H    0.100059
    60  H    0.108828
    61  H    0.101686
    62  H    0.104834
    63  H    0.101768
    64  H    0.105243
    65  H    0.100857
    66  H    0.061382
    67  H    0.122831
    68  H    0.122475
    69  H    0.095169
    70  H    0.055554
    71  H    0.122172
    72  H    0.106859
    73  H    0.306644
    74  H    0.330878
    75  H    0.091180
    76  H    0.086455
    77  H    0.110172
    78  H    0.109181
    79  H    0.124880
    80  H    0.089805
    81  H    0.131331
    82  H    0.107731
    83  H    0.077939
    84  H    0.067455
    85  H    0.081553
    86  H    0.074562
    87  H    0.091129
    88  H    0.079381
    89  H    0.114397
    90  H    0.107915
    91  H    0.116946
    92  H    0.108397
    93  H    0.138299
    94  H    0.105851
    95  H    0.058222
    96  H    0.085964
    97  H    0.081956
    98  H    0.088643
 Sum of Mulliken charges =  -0.00000

 Dipole moment (field-independent basis, Debye):
    X=             -1.9315    Y=             -1.2876    Z=              2.3340  Tot=              3.2918
 Quadrupole moment (field-independent basis, Debye-Ang):
   XX=           -242.9855   YY=           -244.2788   ZZ=           -261.8907
   XY=              4.4136   XZ=             -4.8787   YZ=              1.4153

 Normal termination of Gaussian 16 at Wed Jun 26 23:47:52 2019.
