 Gaussian 16, Revision A.03,
 Gaussian 16:  ES64L-G16RevA.03 25-Dec-2016

 -------------------------------------
 # td=(NStates=1) CAM-B3LYP/6-31G(d,p)
 -------------------------------------

 --
 TD
 --
 Symbolic Z-matrix:
 Charge =  0 Multiplicity = 1

                         Standard orientation:
 ---------------------------------------------------------------------
 Center     Atomic      Atomic             Coordinates (Angstroms)
 Number     Number       Type             X           Y           Z
 ---------------------------------------------------------------------
      1          8           0       14.813206   -2.173346   -0.365973
      2          8           0      -14.639947    2.027551    0.674218
      3          6           0       11.524583   -0.989766    1.262442
      4          6           0      -12.302978   -1.016348    0.779515
      5          6           0       12.991020   -1.265174    1.080520
      6          6           0      -13.709655   -0.259559    0.715748
      7          6           0       13.391846   -1.989577   -0.128033
      8          6           0      -13.469937    1.238231    0.824085
      9          6           0       10.963519   -0.394125    0.034255
     10          6           0      -11.326662   -0.321497   -0.157146
     11          6           0       12.960491   -1.204901   -1.430736
     12          6           0      -12.739325    1.762888   -0.471193
     13          6           0       11.565231   -0.594805   -1.222511
     14          6           0      -11.547847    0.906656   -0.766108
     15          6           0       11.371243    0.051101    2.421446
     16          6           0       10.824985   -2.230421    1.732711
     17          6           0      -11.729070   -0.931536    2.151442
     18          6           0      -12.670124   -2.483433    0.482324
     19          6           0        9.710332    0.336302    0.188398
     20          6           0      -10.134026   -1.117983   -0.413787
     21          6           0       11.021023    0.057610   -2.560497
     22          6           0      -10.593989    1.577816   -1.715481
     23          6           0        9.313608    1.518882   -0.093128
     24          6           0       -8.830925   -0.664802   -0.193745
     25          6           0        8.049028    2.223366    0.093252
     26          6           0       -7.624001   -1.340055   -0.487669
     27          6           0        8.135664    3.715813    0.158961
     28          6           0       -7.685501   -2.816272   -0.910482
     29          6           0        6.858942    1.565964   -0.091485
     30          6           0       -6.392872   -0.789907   -0.353759
     31          6           0        5.476859    2.145418    0.030952
     32          6           0       -5.062387   -1.181610   -0.576278
     33          6           0        4.372038    1.329733   -0.099229
     34          6           0       -4.039203   -0.382224   -0.268332
     35          6           0        3.032265    1.687236    0.080454
     36          6           0       -2.543649   -0.665660   -0.427808
     37          6           0        2.818032    3.154627    0.615129
     38          6           0       -2.304304   -2.166129   -0.731513
     39          6           0        2.004289    0.789195   -0.047074
     40          6           0       -1.706920    0.306529   -0.200428
     41          6           0        0.631156    1.103381    0.021609
     42          6           0       -0.309339    0.170172   -0.269539
     43          1           0       13.756625   -0.500609    1.248200
     44          1           0       13.368850   -1.803109    2.008999
     45          1           0      -14.481054   -0.862614    1.322550
     46          1           0      -14.205073   -0.527370   -0.315311
     47          1           0       12.766357   -2.962356   -0.160622
     48          1           0      -12.900982    1.587416    1.599150
     49          1           0       13.605008   -0.483546   -1.752085
     50          1           0       12.782131   -1.748081   -2.377097
     51          1           0      -13.404990    1.756398   -1.431898
     52          1           0      -12.359504    2.885578   -0.369244
     53          1           0       12.118329   -0.214627    3.303100
     54          1           0       10.228308    0.155373    2.911121
     55          1           0       11.804081    1.025356    1.930888
     56          1           0       11.064888   -3.118626    1.033118
     57          1           0       11.140339   -2.616221    2.683336
     58          1           0        9.625491   -2.172560    1.798055
     59          1           0      -11.818039    0.146145    2.713076
     60          1           0      -10.585961   -1.125650    2.205125
     61          1           0      -12.399560   -1.552809    2.819445
     62          1           0      -13.394407   -2.730808    1.251511
     63          1           0      -11.722404   -3.182669    0.592393
     64          1           0      -13.088458   -2.773962   -0.584100
     65          1           0        8.906419   -0.194122    0.689038
     66          1           0      -10.196152   -2.246644   -0.572899
     67          1           0       10.006705    0.394939   -2.668960
     68          1           0       11.896321    0.982565   -2.707556
     69          1           0       11.235057   -0.439396   -3.483465
     70          1           0      -11.151639    1.923590   -2.679897
     71          1           0       -9.700225    0.988483   -2.061462
     72          1           0      -10.123051    2.488957   -1.409111
     73          1           0       15.156324   -2.823063    0.460465
     74          1           0      -15.359658    1.666026    1.211178
     75          1           0        9.787285    2.374278   -0.582090
     76          1           0       -8.699232    0.318963    0.107691
     77          1           0        8.267482    4.066966   -0.902926
     78          1           0        7.054245    4.204752    0.668570
     79          1           0        8.944679    4.041105    0.901862
     80          1           0       -8.731283   -3.127475   -0.494432
     81          1           0       -7.866818   -2.694070   -2.243327
     82          1           0       -6.825129   -3.256922   -0.552851
     83          1           0        6.526540    0.559600   -0.232646
     84          1           0       -6.520673    0.282359   -0.275090
     85          1           0        5.400548    3.188549    0.168240
     86          1           0       -4.936029   -2.124021   -0.959812
     87          1           0        4.582829    0.382106   -0.399226
     88          1           0       -4.340682    0.637848    0.142078
     89          1           0        3.275447    3.362910    1.624073
     90          1           0        1.812465    3.362791    0.882113
     91          1           0        3.026213    3.786179   -0.048973
     92          1           0       -2.798314   -2.704536   -0.088880
     93          1           0       -2.690513   -2.534924   -1.776744
     94          1           0       -1.256367   -2.331320   -0.989919
     95          1           0        2.228312   -0.136862   -0.272062
     96          1           0       -2.248113    1.203176   -0.196331
     97          1           0        0.259155    2.169463    0.041060
     98          1           0        0.031133   -0.797372   -0.537068
 ---------------------------------------------------------------------

 SCF Done:  E(RCAM-B3LYP) =  -1706.94137243     A.U. after   14 cycles

 Excitation energies and oscillator strengths:

 Excited State   1:      Singlet-A      2.7810 eV  445.83 nm  f=3.8140  <S**2>=0.000
     155 ->158         0.18870
     156 ->157         0.67543
 This state for optimization and/or second-order correction.
 Total Energy, E(TD-HF/TD-DFT) =  -1706.83917236
 Copying the excited state density for this state as the 1-particle RhoCI density.

 The electronic state is 1-A.
 Alpha  occ. eigenvalues --  -19.23034 -19.20401 -10.31446 -10.30213 -10.28344
 Alpha  occ. eigenvalues --  -10.27931 -10.27828 -10.27511 -10.27399 -10.27380
 Alpha  occ. eigenvalues --  -10.27232 -10.27152 -10.27030 -10.26989 -10.26846
 Alpha  occ. eigenvalues --  -10.26742 -10.26713 -10.26679 -10.26591 -10.26377
 Alpha  occ. eigenvalues --  -10.26341 -10.26286 -10.26181 -10.26144 -10.26037
 Alpha  occ. eigenvalues --  -10.25894 -10.25787 -10.25668 -10.25577 -10.25501
 Alpha  occ. eigenvalues --  -10.25415 -10.25334 -10.25236 -10.25082 -10.24975
 Alpha  occ. eigenvalues --  -10.24962 -10.24947 -10.24885 -10.24858 -10.24817
 Alpha  occ. eigenvalues --  -10.24723 -10.23717  -1.08995  -1.07065  -0.94106
 Alpha  occ. eigenvalues --   -0.93417  -0.92458  -0.91619  -0.90871  -0.90183
 Alpha  occ. eigenvalues --   -0.87538  -0.86789  -0.86217  -0.85726  -0.84681
 Alpha  occ. eigenvalues --   -0.83139  -0.81958  -0.80173  -0.79526  -0.79061
 Alpha  occ. eigenvalues --   -0.77130  -0.75908  -0.75829  -0.75527  -0.75376
 Alpha  occ. eigenvalues --   -0.75009  -0.74310  -0.74288  -0.73985  -0.70412
 Alpha  occ. eigenvalues --   -0.69062  -0.67678  -0.66193  -0.65224  -0.64064
 Alpha  occ. eigenvalues --   -0.63855  -0.63299  -0.62388  -0.61967  -0.60582
 Alpha  occ. eigenvalues --   -0.59222  -0.58589  -0.58425  -0.58110  -0.56570
 Alpha  occ. eigenvalues --   -0.55823  -0.55575  -0.54449  -0.54258  -0.53626
 Alpha  occ. eigenvalues --   -0.53036  -0.52198  -0.51961  -0.51689  -0.50998
 Alpha  occ. eigenvalues --   -0.50508  -0.50311  -0.50010  -0.49976  -0.49491
 Alpha  occ. eigenvalues --   -0.49401  -0.48536  -0.48263  -0.48002  -0.47691
 Alpha  occ. eigenvalues --   -0.47306  -0.47014  -0.46609  -0.46100  -0.45919
 Alpha  occ. eigenvalues --   -0.45699  -0.45610  -0.45278  -0.44800  -0.44507
 Alpha  occ. eigenvalues --   -0.44185  -0.44142  -0.43791  -0.43595  -0.43268
 Alpha  occ. eigenvalues --   -0.42848  -0.42497  -0.42214  -0.42129  -0.41662
 Alpha  occ. eigenvalues --   -0.41334  -0.41108  -0.41035  -0.40751  -0.40481
 Alpha  occ. eigenvalues --   -0.40185  -0.39946  -0.39904  -0.39355  -0.39276
 Alpha  occ. eigenvalues --   -0.39160  -0.38787  -0.38704  -0.38064  -0.37541
 Alpha  occ. eigenvalues --   -0.37247  -0.37069  -0.36709  -0.36299  -0.35240
 Alpha  occ. eigenvalues --   -0.35142  -0.34890  -0.34030  -0.32677  -0.32422
 Alpha  occ. eigenvalues --   -0.31865  -0.29290  -0.27943  -0.26277  -0.23534
 Alpha  occ. eigenvalues --   -0.20744
 Alpha virt. eigenvalues --   -0.04081  -0.00503   0.03302   0.05724   0.07498
 Alpha virt. eigenvalues --    0.09261   0.09773   0.11356   0.11711   0.12063
 Alpha virt. eigenvalues --    0.12333   0.12638   0.13132   0.13476   0.13714

 Mulliken charges:
               1
     1  O   -0.561057
     2  O   -0.565038
     3  C    0.004278
     4  C   -0.012906
     5  C   -0.194533
     6  C   -0.212367
     7  C    0.169064
     8  C    0.190318
     9  C    0.062645
    10  C    0.051398
    11  C   -0.205253
    12  C   -0.217120
    13  C    0.028596
    14  C    0.082320
    15  C   -0.286054
    16  C   -0.290646
    17  C   -0.284329
    18  C   -0.294373
    19  C   -0.144617
    20  C   -0.159118
    21  C   -0.346267
    22  C   -0.374929
    23  C   -0.028531
    24  C   -0.076129
    25  C    0.017070
    26  C    0.093195
    27  C   -0.361890
    28  C   -0.324108
    29  C   -0.073525
    30  C   -0.141268
    31  C   -0.086946
    32  C   -0.046926
    33  C   -0.121680
    34  C   -0.139361
    35  C    0.091847
    36  C    0.104986
    37  C   -0.366690
    38  C   -0.364727
    39  C   -0.104593
    40  C   -0.099249
    41  C   -0.076740
    42  C   -0.100627
    43  H    0.109773
    44  H    0.069672
    45  H    0.079011
    46  H    0.097106
    47  H    0.075075
    48  H    0.099262
    49  H    0.131795
    50  H    0.106997
    51  H    0.115210
    52  H    0.099900
    53  H    0.080132
    54  H    0.091269
    55  H    0.101605
    56  H    0.086343
    57  H    0.110397
    58  H    0.090364
    59  H    0.080746
    60  H    0.114965
    61  H    0.090436
    62  H    0.106318
    63  H    0.085216
    64  H    0.099378
    65  H    0.082876
    66  H    0.083599
    67  H    0.127246
    68  H    0.073402
    69  H    0.114634
    70  H    0.093018
    71  H    0.114489
    72  H    0.119653
    73  H    0.297764
    74  H    0.294108
    75  H    0.070884
    76  H    0.078360
    77  H    0.135622
    78  H    0.086467
    79  H    0.122256
    80  H    0.095148
    81  H    0.077645
    82  H    0.120699
    83  H    0.075567
    84  H    0.063208
    85  H    0.072679
    86  H    0.076988
    87  H    0.072879
    88  H    0.078004
    89  H    0.114717
    90  H    0.103522
    91  H    0.131729
    92  H    0.138822
    93  H    0.103917
    94  H    0.109871
    95  H    0.067802
    96  H    0.083324
    97  H    0.086710
    98  H    0.077300
 Sum of Mulliken charges =  -0.00000

 Dipole moment (field-independent basis, Debye):
    X=             -0.1042    Y=             -1.2928    Z=              1.3951  Tot=              1.9049
 Quadrupole moment (field-independent basis, Debye-Ang):
   XX=           -253.2999   YY=           -249.4750   ZZ=           -259.7006
   XY=             10.3096   XZ=              2.3248   YZ=             -2.1677

 Normal termination of Gaussian 16 at Tue Jul  2 09:42:09 2019.
