 Gaussian 16, Revision A.03,
 Gaussian 16:  ES64L-G16RevA.03 25-Dec-2016

 -------------------------------------
 # td=(NStates=1) CAM-B3LYP/6-31G(d,p)
 -------------------------------------

 --
 TD
 --
 Symbolic Z-matrix:
 Charge =  0 Multiplicity = 1

                         Standard orientation:
 ---------------------------------------------------------------------
 Center     Atomic      Atomic             Coordinates (Angstroms)
 Number     Number       Type             X           Y           Z
 ---------------------------------------------------------------------
      1          8           0       14.829778   -2.208274   -0.465142
      2          8           0      -14.796987    1.944459    0.860623
      3          6           0       11.557078   -1.039874    1.237598
      4          6           0      -12.336193   -0.937475    0.939931
      5          6           0       12.996405   -1.424929    1.155233
      6          6           0      -13.648297   -0.298928    0.911508
      7          6           0       13.382899   -1.945834   -0.209366
      8          6           0      -13.500731    1.363543    0.779069
      9          6           0       10.996115   -0.365220    0.038609
     10          6           0      -11.410839   -0.443667   -0.253802
     11          6           0       12.941695   -1.017698   -1.370330
     12          6           0      -12.809384    1.599325   -0.501156
     13          6           0       11.631332   -0.283302   -1.164029
     14          6           0      -11.658624    0.722224   -0.865173
     15          6           0       11.330899   -0.153569    2.480293
     16          6           0       10.704552   -2.355271    1.385236
     17          6           0      -11.574054   -0.642859    2.286491
     18          6           0      -12.524329   -2.399629    0.670429
     19          6           0        9.610369    0.253635    0.261587
     20          6           0      -10.150699   -1.082480   -0.458420
     21          6           0       11.097098    0.432553   -2.438209
     22          6           0      -10.841888    1.342953   -2.027666
     23          6           0        9.323467    1.535138   -0.042692
     24          6           0       -8.932907   -0.529359   -0.525776
     25          6           0        8.033277    2.257036    0.153552
     26          6           0       -7.623350   -1.236973   -0.564521
     27          6           0        8.163331    3.744276    0.382499
     28          6           0       -7.688397   -2.684624   -0.923993
     29          6           0        6.935616    1.563090   -0.028535
     30          6           0       -6.444305   -0.532057   -0.470945
     31          6           0        5.535911    2.109022    0.137532
     32          6           0       -5.135567   -1.075366   -0.617165
     33          6           0        4.482414    1.295319   -0.160168
     34          6           0       -4.004478   -0.390727   -0.355025
     35          6           0        3.094742    1.673823    0.095803
     36          6           0       -2.620821   -0.778570   -0.481880
     37          6           0        2.778219    3.143274    0.609667
     38          6           0       -2.345415   -2.182328   -0.787559
     39          6           0        2.156543    0.764457   -0.174039
     40          6           0       -1.664458    0.179175   -0.243614
     41          6           0        0.678553    0.967584    0.025586
     42          6           0       -0.193064   -0.042897   -0.328288
     43          1           0       13.504830   -0.556409    1.228649
     44          1           0       13.291534   -1.919315    1.853215
     45          1           0      -14.184962   -0.621320    1.875516
     46          1           0      -14.250608   -0.564836    0.165880
     47          1           0       12.976289   -3.010128   -0.328127
     48          1           0      -12.890250    1.692753    1.700163
     49          1           0       13.616229   -0.224128   -1.426107
     50          1           0       12.628375   -1.611467   -2.314933
     51          1           0      -13.764282    1.725980   -1.202042
     52          1           0      -12.451474    2.552251   -0.618220
     53          1           0       11.768072   -0.736267    3.353841
     54          1           0       10.122973   -0.172003    2.759264
     55          1           0       11.905727    0.851545    2.426413
     56          1           0       11.117463   -3.143476    0.571365
     57          1           0       10.937584   -2.788052    2.367120
     58          1           0        9.491952   -2.152987    1.440106
     59          1           0      -11.471842    0.406679    2.584916
     60          1           0      -10.644073   -1.308113    2.095073
     61          1           0      -12.070020   -0.978841    3.186626
     62          1           0      -13.394486   -2.918388    1.185484
     63          1           0      -11.710380   -2.982186    0.787982
     64          1           0      -12.878883   -2.572961   -0.331618
     65          1           0        8.895531   -0.552228    0.594765
     66          1           0      -10.270339   -2.249639   -0.371957
     67          1           0        9.986497    0.814495   -2.210562
     68          1           0       11.633307    1.468683   -2.343625
     69          1           0       11.400895    0.112816   -3.516367
     70          1           0      -11.595879    1.942386   -2.677297
     71          1           0      -10.379062    0.697175   -2.729176
     72          1           0      -10.255324    2.125578   -1.646735
     73          1           0       15.132561   -2.844168    0.410898
     74          1           0      -15.358011    1.501674    1.411976
     75          1           0       10.091427    2.186190   -0.338060
     76          1           0       -8.823489    0.476082   -0.440128
     77          1           0        8.702310    4.248087   -0.455447
     78          1           0        7.078365    4.106558    0.463459
     79          1           0        8.823203    3.965198    1.247777
     80          1           0       -8.201098   -3.000168   -0.023266
     81          1           0       -8.309653   -3.017165   -1.862510
     82          1           0       -6.665654   -2.960229   -0.844629
     83          1           0        7.020020    0.594425   -0.299266
     84          1           0       -6.581894    0.444537   -0.023777
     85          1           0        5.267440    3.021641    0.455821
     86          1           0       -4.988650   -2.083962   -0.780831
     87          1           0        4.713290    0.458991   -0.735214
     88          1           0       -4.045473    0.698216   -0.219021
     89          1           0        3.353771    2.961271    1.478537
     90          1           0        1.709830    3.214876    0.884822
     91          1           0        3.027014    3.833442   -0.181489
     92          1           0       -2.652530   -2.785276    0.078728
     93          1           0       -2.910316   -2.478702   -1.713800
     94          1           0       -1.053543   -2.379944   -0.576372
     95          1           0        2.474085   -0.183618   -0.719367
     96          1           0       -1.724690    1.289784    0.021128
     97          1           0        0.474314    1.949039    0.313930
     98          1           0        0.183347   -1.050609   -0.526975
 ---------------------------------------------------------------------

 SCF Done:  E(RCAM-B3LYP) =  -1706.97193588     A.U. after   14 cycles

 Excitation energies and oscillator strengths:

 Excited State   1:      Singlet-A      2.9861 eV  415.20 nm  f=3.6428  <S**2>=0.000
     155 ->158        -0.18440
     156 ->157         0.67581
 This state for optimization and/or second-order correction.
 Total Energy, E(TD-HF/TD-DFT) =  -1706.86219873
 Copying the excited state density for this state as the 1-particle RhoCI density.

 The electronic state is 1-A.
 Alpha  occ. eigenvalues --  -19.21994 -19.20411 -10.31257 -10.31076 -10.27759
 Alpha  occ. eigenvalues --  -10.27384 -10.27237 -10.27195 -10.27183 -10.27118
 Alpha  occ. eigenvalues --  -10.27113 -10.27053 -10.26988 -10.26873 -10.26798
 Alpha  occ. eigenvalues --  -10.26626 -10.26563 -10.26520 -10.26515 -10.26457
 Alpha  occ. eigenvalues --  -10.26205 -10.26185 -10.26086 -10.25947 -10.25721
 Alpha  occ. eigenvalues --  -10.25576 -10.25518 -10.25452 -10.25378 -10.25333
 Alpha  occ. eigenvalues --  -10.25325 -10.25304 -10.25231 -10.25174 -10.25151
 Alpha  occ. eigenvalues --  -10.25066 -10.25006 -10.24854 -10.24703 -10.24479
 Alpha  occ. eigenvalues --  -10.23765 -10.22703  -1.10061  -1.05067  -0.94000
 Alpha  occ. eigenvalues --   -0.93933  -0.91981  -0.91520  -0.90403  -0.89902
 Alpha  occ. eigenvalues --   -0.87667  -0.86923  -0.86577  -0.85495  -0.84553
 Alpha  occ. eigenvalues --   -0.83098  -0.81842  -0.79791  -0.79657  -0.77833
 Alpha  occ. eigenvalues --   -0.76949  -0.76601  -0.76543  -0.76111  -0.75922
 Alpha  occ. eigenvalues --   -0.75747  -0.74830  -0.74506  -0.73928  -0.70523
 Alpha  occ. eigenvalues --   -0.68728  -0.67601  -0.65939  -0.65162  -0.64301
 Alpha  occ. eigenvalues --   -0.63492  -0.63427  -0.62576  -0.61141  -0.59910
 Alpha  occ. eigenvalues --   -0.59166  -0.58105  -0.57269  -0.56936  -0.56394
 Alpha  occ. eigenvalues --   -0.56019  -0.55146  -0.54849  -0.54284  -0.53717
 Alpha  occ. eigenvalues --   -0.53603  -0.52946  -0.52248  -0.51678  -0.51426
 Alpha  occ. eigenvalues --   -0.50916  -0.50126  -0.49951  -0.49755  -0.49449
 Alpha  occ. eigenvalues --   -0.49046  -0.48838  -0.48575  -0.48410  -0.48188
 Alpha  occ. eigenvalues --   -0.47936  -0.47605  -0.47476  -0.46956  -0.46401
 Alpha  occ. eigenvalues --   -0.46224  -0.45980  -0.45321  -0.45112  -0.44956
 Alpha  occ. eigenvalues --   -0.44696  -0.44547  -0.44002  -0.43506  -0.43418
 Alpha  occ. eigenvalues --   -0.43009  -0.42958  -0.42571  -0.42203  -0.42096
 Alpha  occ. eigenvalues --   -0.41706  -0.41608  -0.41378  -0.41231  -0.40923
 Alpha  occ. eigenvalues --   -0.40518  -0.40403  -0.39812  -0.39597  -0.39208
 Alpha  occ. eigenvalues --   -0.39072  -0.38396  -0.38332  -0.37809  -0.37456
 Alpha  occ. eigenvalues --   -0.37387  -0.37017  -0.36545  -0.36302  -0.35918
 Alpha  occ. eigenvalues --   -0.35282  -0.34587  -0.33889  -0.31941  -0.31546
 Alpha  occ. eigenvalues --   -0.31222  -0.29625  -0.27796  -0.26441  -0.24033
 Alpha  occ. eigenvalues --   -0.21134
 Alpha virt. eigenvalues --   -0.03367   0.00405   0.03543   0.06414   0.08322
 Alpha virt. eigenvalues --    0.09097   0.09807   0.10426   0.11411   0.11591
 Alpha virt. eigenvalues --    0.12395   0.13052   0.13654   0.13919   0.13998

 Mulliken charges:
               1
     1  O   -0.571464
     2  O   -0.561603
     3  C   -0.031203
     4  C    0.005659
     5  C   -0.140268
     6  C   -0.209202
     7  C    0.148490
     8  C    0.174060
     9  C    0.056424
    10  C    0.067711
    11  C   -0.205419
    12  C   -0.221488
    13  C    0.030275
    14  C    0.048241
    15  C   -0.287787
    16  C   -0.293734
    17  C   -0.295531
    18  C   -0.321022
    19  C   -0.104822
    20  C   -0.152590
    21  C   -0.367503
    22  C   -0.369412
    23  C   -0.123551
    24  C   -0.053993
    25  C    0.094602
    26  C    0.063117
    27  C   -0.368987
    28  C   -0.345422
    29  C   -0.101896
    30  C   -0.119039
    31  C   -0.099044
    32  C   -0.096650
    33  C   -0.095726
    34  C   -0.099241
    35  C    0.048281
    36  C    0.112665
    37  C   -0.355134
    38  C   -0.369849
    39  C   -0.132176
    40  C   -0.129616
    41  C   -0.088101
    42  C   -0.085633
    43  H    0.107112
    44  H    0.075388
    45  H    0.069401
    46  H    0.105881
    47  H    0.071925
    48  H    0.066248
    49  H    0.131931
    50  H    0.112272
    51  H    0.107074
    52  H    0.115001
    53  H    0.086492
    54  H    0.091956
    55  H    0.104607
    56  H    0.094523
    57  H    0.097003
    58  H    0.084053
    59  H    0.108826
    60  H    0.098425
    61  H    0.099000
    62  H    0.085837
    63  H    0.109335
    64  H    0.113097
    65  H    0.090359
    66  H    0.067264
    67  H    0.119192
    68  H    0.102439
    69  H    0.112436
    70  H    0.091838
    71  H    0.130286
    72  H    0.129286
    73  H    0.291406
    74  H    0.302146
    75  H    0.083484
    76  H    0.073555
    77  H    0.120256
    78  H    0.107011
    79  H    0.122357
    80  H    0.124438
    81  H    0.117088
    82  H    0.102850
    83  H    0.078177
    84  H    0.082680
    85  H    0.075883
    86  H    0.079624
    87  H    0.083867
    88  H    0.074139
    89  H    0.142844
    90  H    0.105284
    91  H    0.137624
    92  H    0.135743
    93  H    0.129420
    94  H    0.071566
    95  H    0.076782
    96  H    0.088754
    97  H    0.078086
    98  H    0.084030
 Sum of Mulliken charges =  -0.00000

 Dipole moment (field-independent basis, Debye):
    X=             -0.0604    Y=             -0.9293    Z=              2.1553  Tot=              2.3479
 Quadrupole moment (field-independent basis, Debye-Ang):
   XX=           -269.0127   YY=           -247.9756   ZZ=           -260.4998
   XY=             18.7049   XZ=             11.1286   YZ=             -3.2520

 Normal termination of Gaussian 16 at Thu Jun 27 15:50:55 2019.
