 Gaussian 16, Revision A.03,
 Gaussian 16:  ES64L-G16RevA.03 25-Dec-2016

 -------------------------------------
 # td=(NStates=1) CAM-B3LYP/6-31G(d,p)
 -------------------------------------

 --
 TD
 --
 Symbolic Z-matrix:
 Charge =  0 Multiplicity = 1

                         Standard orientation:
 ---------------------------------------------------------------------
 Center     Atomic      Atomic             Coordinates (Angstroms)
 Number     Number       Type             X           Y           Z
 ---------------------------------------------------------------------
      1          8           0       14.624900   -2.405332   -0.481144
      2          8           0      -14.672053    2.114454    0.800912
      3          6           0       11.531365   -1.012428    1.200079
      4          6           0      -12.335451   -0.898886    0.889746
      5          6           0       12.932885   -1.457424    1.078903
      6          6           0      -13.631555   -0.129249    0.854304
      7          6           0       13.280578   -2.028826   -0.268327
      8          6           0      -13.431539    1.430956    0.725710
      9          6           0       10.970995   -0.275953    0.053645
     10          6           0      -11.307090   -0.328311   -0.149937
     11          6           0       12.973083   -1.028421   -1.267217
     12          6           0      -12.712815    1.717932   -0.575198
     13          6           0       11.622640   -0.262227   -1.118161
     14          6           0      -11.593935    0.702428   -0.922456
     15          6           0       11.453302   -0.166483    2.580682
     16          6           0       10.630878   -2.263768    1.520750
     17          6           0      -11.699571   -0.813180    2.365782
     18          6           0      -12.734023   -2.307066    0.402325
     19          6           0        9.702524    0.357763    0.120065
     20          6           0      -10.065447   -1.149634   -0.333666
     21          6           0       11.143756    0.310461   -2.426357
     22          6           0      -10.694386    1.160665   -2.073968
     23          6           0        9.369672    1.666021   -0.055920
     24          6           0       -8.874665   -0.680198   -0.140104
     25          6           0        8.105756    2.306189    0.042940
     26          6           0       -7.637190   -1.323519   -0.503748
     27          6           0        8.040035    3.866640    0.356752
     28          6           0       -7.582227   -2.895938   -0.709822
     29          6           0        6.905892    1.664481   -0.123645
     30          6           0       -6.421296   -0.650260   -0.323635
     31          6           0        5.406111    2.041860    0.153367
     32          6           0       -5.108712   -1.180668   -0.371302
     33          6           0        4.417256    1.273129   -0.102983
     34          6           0       -4.091615   -0.428678   -0.335410
     35          6           0        3.081603    1.707954    0.085460
     36          6           0       -2.577665   -0.806301   -0.498097
     37          6           0        2.840676    3.092305    0.539084
     38          6           0       -2.431257   -2.238789   -0.681239
     39          6           0        2.026034    0.884043   -0.241058
     40          6           0       -1.658260    0.165658   -0.263292
     41          6           0        0.628483    1.067483   -0.200896
     42          6           0       -0.235156    0.025060   -0.384192
     43          1           0       13.806395   -0.937302    1.315234
     44          1           0       13.008839   -2.438056    1.824439
     45          1           0      -14.219807   -0.378966    1.540907
     46          1           0      -14.074341   -0.199195   -0.208627
     47          1           0       12.665096   -2.887352   -0.382155
     48          1           0      -12.845701    1.840060    1.467004
     49          1           0       13.870136   -0.360160   -1.228199
     50          1           0       13.229161   -1.441398   -2.443052
     51          1           0      -13.563585    1.502192   -1.429375
     52          1           0      -12.568970    2.609609   -0.825718
     53          1           0       12.040589   -0.595080    3.371802
     54          1           0       10.589952    0.059126    3.099175
     55          1           0       11.944657    0.865694    2.333487
     56          1           0       10.831860   -3.079310    0.844992
     57          1           0       10.678079   -2.731764    2.453704
     58          1           0        9.609810   -1.997025    1.395416
     59          1           0      -11.568852    0.267451    2.657241
     60          1           0      -10.674122   -1.057689    2.284383
     61          1           0      -12.265893   -1.424191    3.011091
     62          1           0      -13.529204   -2.703905    0.874330
     63          1           0      -11.829250   -2.962527    0.486886
     64          1           0      -12.959795   -2.252445   -0.618140
     65          1           0        8.775248   -0.195591    0.705111
     66          1           0      -10.096232   -2.048314   -0.576728
     67          1           0       10.084217    0.743559   -2.508873
     68          1           0       11.748558    1.217618   -2.630477
     69          1           0       11.429924   -0.357324   -3.256747
     70          1           0      -11.394698    1.423263   -2.982982
     71          1           0      -10.000666    0.355000   -2.414458
     72          1           0      -10.187020    1.932332   -1.686465
     73          1           0       14.896073   -3.073166    0.184477
     74          1           0      -15.041658    1.796133    1.682939
     75          1           0       10.130181    2.495369   -0.154185
     76          1           0       -8.545939    0.376486    0.183300
     77          1           0        8.817619    4.246992   -0.138263
     78          1           0        7.044247    4.431201   -0.037148
     79          1           0        8.083845    3.835174    1.512172
     80          1           0       -8.487479   -3.174852   -0.242712
     81          1           0       -7.651575   -3.068245   -1.795403
     82          1           0       -6.654195   -3.413143   -0.642550
     83          1           0        6.995749    0.599395   -0.345116
     84          1           0       -6.479233    0.535070   -0.229807
     85          1           0        5.442243    3.124170    0.596374
     86          1           0       -4.755169   -2.141396   -0.830809
     87          1           0        4.653433    0.343245   -0.481843
     88          1           0       -4.126920    0.548616   -0.244480
     89          1           0        3.733180    3.587516    1.333749
     90          1           0        1.849673    3.270442    0.998069
     91          1           0        2.936988    4.045903   -0.314862
     92          1           0       -2.660992   -2.713798    0.241289
     93          1           0       -2.870354   -2.647474   -1.472716
     94          1           0       -1.436037   -2.393823   -1.017105
     95          1           0        2.285397   -0.036853   -0.558023
     96          1           0       -2.017323    1.239599   -0.304779
     97          1           0        0.200720    1.949483    0.169860
     98          1           0        0.062347   -0.892277   -0.517544
 ---------------------------------------------------------------------

 SCF Done:  E(RCAM-B3LYP) =  -1706.90496894     A.U. after   14 cycles

 Excitation energies and oscillator strengths:

 Excited State   1:      Singlet-A      2.9465 eV  420.78 nm  f=3.4602  <S**2>=0.000
     155 ->158         0.19001
     156 ->157         0.67242
 This state for optimization and/or second-order correction.
 Total Energy, E(TD-HF/TD-DFT) =  -1706.79668669
 Copying the excited state density for this state as the 1-particle RhoCI density.

 The electronic state is 1-A.
 Alpha  occ. eigenvalues --  -19.21651 -19.21074 -10.29221 -10.29155 -10.28402
 Alpha  occ. eigenvalues --  -10.28402 -10.27668 -10.27465 -10.27378 -10.27370
 Alpha  occ. eigenvalues --  -10.27273 -10.27067 -10.27065 -10.26980 -10.26734
 Alpha  occ. eigenvalues --  -10.26602 -10.26578 -10.26562 -10.26343 -10.26233
 Alpha  occ. eigenvalues --  -10.25996 -10.25958 -10.25784 -10.25723 -10.25555
 Alpha  occ. eigenvalues --  -10.25504 -10.25426 -10.25216 -10.25180 -10.25130
 Alpha  occ. eigenvalues --  -10.25125 -10.24855 -10.24793 -10.24656 -10.24466
 Alpha  occ. eigenvalues --  -10.24283 -10.24191 -10.24123 -10.23998 -10.23737
 Alpha  occ. eigenvalues --  -10.23458 -10.23362  -1.09865  -1.08712  -0.94729
 Alpha  occ. eigenvalues --   -0.93278  -0.92777  -0.92124  -0.90440  -0.89836
 Alpha  occ. eigenvalues --   -0.88615  -0.86784  -0.86561  -0.86167  -0.85409
 Alpha  occ. eigenvalues --   -0.83607  -0.82687  -0.80282  -0.80231  -0.78893
 Alpha  occ. eigenvalues --   -0.77002  -0.76660  -0.76653  -0.76490  -0.76033
 Alpha  occ. eigenvalues --   -0.75548  -0.75404  -0.75054  -0.74344  -0.70803
 Alpha  occ. eigenvalues --   -0.69379  -0.67857  -0.66639  -0.65706  -0.65022
 Alpha  occ. eigenvalues --   -0.63797  -0.63688  -0.62683  -0.61102  -0.60310
 Alpha  occ. eigenvalues --   -0.60099  -0.59611  -0.58415  -0.57658  -0.57245
 Alpha  occ. eigenvalues --   -0.56642  -0.55557  -0.55071  -0.54667  -0.54116
 Alpha  occ. eigenvalues --   -0.53556  -0.53017  -0.52644  -0.52192  -0.51498
 Alpha  occ. eigenvalues --   -0.51025  -0.50627  -0.50023  -0.49899  -0.49633
 Alpha  occ. eigenvalues --   -0.49154  -0.48983  -0.48741  -0.48472  -0.47977
 Alpha  occ. eigenvalues --   -0.47774  -0.47347  -0.46921  -0.46859  -0.46580
 Alpha  occ. eigenvalues --   -0.46158  -0.46027  -0.45789  -0.45445  -0.45135
 Alpha  occ. eigenvalues --   -0.45057  -0.44974  -0.44420  -0.44393  -0.43766
 Alpha  occ. eigenvalues --   -0.43494  -0.42922  -0.42856  -0.42680  -0.41995
 Alpha  occ. eigenvalues --   -0.41886  -0.41567  -0.41476  -0.41463  -0.40567
 Alpha  occ. eigenvalues --   -0.40098  -0.39801  -0.39716  -0.39649  -0.39154
 Alpha  occ. eigenvalues --   -0.38768  -0.38411  -0.38161  -0.37751  -0.37579
 Alpha  occ. eigenvalues --   -0.37008  -0.36877  -0.36759  -0.36591  -0.36338
 Alpha  occ. eigenvalues --   -0.35937  -0.34939  -0.34482  -0.32280  -0.32146
 Alpha  occ. eigenvalues --   -0.31223  -0.29439  -0.28532  -0.26349  -0.24377
 Alpha  occ. eigenvalues --   -0.21512
 Alpha virt. eigenvalues --   -0.03911  -0.00243   0.02115   0.06686   0.08161
 Alpha virt. eigenvalues --    0.09448   0.11111   0.11660   0.11948   0.12276
 Alpha virt. eigenvalues --    0.12577   0.12738   0.13357   0.13669   0.13881

 Mulliken charges:
               1
     1  O   -0.565980
     2  O   -0.562004
     3  C   -0.008495
     4  C   -0.005968
     5  C   -0.192719
     6  C   -0.171741
     7  C    0.178669
     8  C    0.169605
     9  C    0.094592
    10  C    0.013952
    11  C   -0.226903
    12  C   -0.208891
    13  C    0.075133
    14  C    0.060541
    15  C   -0.311852
    16  C   -0.316957
    17  C   -0.319922
    18  C   -0.304723
    19  C   -0.145390
    20  C   -0.124766
    21  C   -0.369105
    22  C   -0.348183
    23  C   -0.080629
    24  C   -0.057757
    25  C    0.049691
    26  C    0.076536
    27  C   -0.346988
    28  C   -0.364594
    29  C   -0.143867
    30  C   -0.154552
    31  C   -0.075343
    32  C   -0.053693
    33  C   -0.077896
    34  C   -0.074404
    35  C    0.137585
    36  C    0.074658
    37  C   -0.359714
    38  C   -0.386041
    39  C   -0.123632
    40  C   -0.137941
    41  C   -0.074122
    42  C   -0.055772
    43  H    0.111176
    44  H    0.050605
    45  H    0.069932
    46  H    0.095296
    47  H    0.082278
    48  H    0.081466
    49  H    0.120647
    50  H    0.075763
    51  H    0.077080
    52  H    0.105959
    53  H    0.102701
    54  H    0.110894
    55  H    0.083679
    56  H    0.099294
    57  H    0.109640
    58  H    0.106926
    59  H    0.097946
    60  H    0.115329
    61  H    0.104043
    62  H    0.106302
    63  H    0.086560
    64  H    0.116685
    65  H    0.085014
    66  H    0.066892
    67  H    0.119849
    68  H    0.117285
    69  H    0.114994
    70  H    0.091512
    71  H    0.115954
    72  H    0.131765
    73  H    0.305871
    74  H    0.307346
    75  H    0.075220
    76  H    0.075659
    77  H    0.121618
    78  H    0.101054
    79  H    0.123578
    80  H    0.117591
    81  H    0.114582
    82  H    0.122509
    83  H    0.060877
    84  H    0.075104
    85  H    0.077886
    86  H    0.077123
    87  H    0.088655
    88  H    0.052701
    89  H    0.080677
    90  H    0.115045
    91  H    0.086559
    92  H    0.144788
    93  H    0.135233
    94  H    0.103540
    95  H    0.069011
    96  H    0.084087
    97  H    0.079861
    98  H    0.069942
 Sum of Mulliken charges =  -0.00000

 Dipole moment (field-independent basis, Debye):
    X=              0.7934    Y=             -2.0208    Z=              1.6668  Tot=              2.7370
 Quadrupole moment (field-independent basis, Debye-Ang):
   XX=           -282.2576   YY=           -246.1910   ZZ=           -258.2965
   XY=             10.1802   XZ=              3.3687   YZ=              0.5262

 Normal termination of Gaussian 16 at Sat Jul  6 10:46:29 2019.
