 Gaussian 16, Revision A.03,
 Gaussian 16:  ES64L-G16RevA.03 25-Dec-2016

 -------------------------------------
 # td=(NStates=1) CAM-B3LYP/6-31G(d,p)
 -------------------------------------

 --
 TD
 --
 Symbolic Z-matrix:
 Charge =  0 Multiplicity = 1

                         Standard orientation:
 ---------------------------------------------------------------------
 Center     Atomic      Atomic             Coordinates (Angstroms)
 Number     Number       Type             X           Y           Z
 ---------------------------------------------------------------------
      1          8           0       14.650807   -2.244821   -0.295854
      2          8           0      -14.729643    2.116119    0.634085
      3          6           0       11.411499   -0.791312    1.265165
      4          6           0      -12.237308   -0.764619    0.883410
      5          6           0       12.932396   -1.214833    1.122391
      6          6           0      -13.588565   -0.097977    0.751280
      7          6           0       13.302221   -2.008251   -0.227415
      8          6           0      -13.475356    1.440534    0.591797
      9          6           0       10.921910   -0.280525   -0.035677
     10          6           0      -11.300088   -0.274069   -0.237950
     11          6           0       12.968680   -1.077982   -1.378135
     12          6           0      -12.809594    1.709009   -0.747293
     13          6           0       11.620619   -0.419097   -1.315032
     14          6           0      -11.633271    0.836419   -0.962890
     15          6           0       11.289841    0.186784    2.373871
     16          6           0       10.646249   -2.055069    1.686362
     17          6           0      -11.599632   -0.582997    2.258281
     18          6           0      -12.483500   -2.275344    0.739380
     19          6           0        9.614943    0.393892    0.012746
     20          6           0      -10.056610   -1.057162   -0.394829
     21          6           0       10.981565   -0.059155   -2.563280
     22          6           0      -10.771819    1.307293   -2.062608
     23          6           0        9.305278    1.664155   -0.376333
     24          6           0       -8.845583   -0.556431   -0.517343
     25          6           0        8.078084    2.300125   -0.065404
     26          6           0       -7.686442   -1.348788   -0.599685
     27          6           0        8.211401    3.811931    0.261035
     28          6           0       -7.721589   -2.941613   -0.798535
     29          6           0        6.908182    1.594054   -0.190582
     30          6           0       -6.497855   -0.726646   -0.458355
     31          6           0        5.616977    2.067588   -0.022329
     32          6           0       -5.167869   -1.196501   -0.358169
     33          6           0        4.439564    1.300583   -0.195043
     34          6           0       -3.904898   -0.473524   -0.272258
     35          6           0        3.080774    1.578902    0.209573
     36          6           0       -2.658258   -0.926058   -0.248477
     37          6           0        2.820118    3.024478    0.690421
     38          6           0       -2.346948   -2.392336   -0.412292
     39          6           0        2.086956    0.645940   -0.052239
     40          6           0       -1.613341   -0.003363   -0.088206
     41          6           0        0.627011    0.811151    0.112168
     42          6           0       -0.202196   -0.172444   -0.110056
     43          1           0       13.579215   -0.334379    1.054424
     44          1           0       13.372774   -1.576280    2.260033
     45          1           0      -14.044927   -0.179994    1.710293
     46          1           0      -14.261497   -0.470376    0.126988
     47          1           0       12.744235   -2.917297   -0.310522
     48          1           0      -12.954552    1.901155    1.309799
     49          1           0       13.903900   -0.455547   -1.353884
     50          1           0       13.054930   -1.560233   -2.274109
     51          1           0      -13.467340    1.429812   -1.527594
     52          1           0      -12.430562    2.799232   -0.895033
     53          1           0       11.547041   -0.364915    3.342836
     54          1           0       10.350390    0.592958    2.590756
     55          1           0       11.765390    1.088408    2.371614
     56          1           0       10.830700   -2.760547    1.077453
     57          1           0       10.935199   -2.413531    2.657181
     58          1           0        9.495423   -1.920671    1.778619
     59          1           0      -11.405159    0.416872    2.505593
     60          1           0      -10.551321   -1.209243    2.233393
     61          1           0      -12.169156   -1.134715    3.054907
     62          1           0      -13.244459   -2.657386    1.407365
     63          1           0      -11.671448   -3.005412    0.926924
     64          1           0      -12.811647   -2.715773   -0.156977
     65          1           0        8.753010   -0.072336    0.338759
     66          1           0      -10.250055   -2.175141   -0.236182
     67          1           0       10.062376    0.376634   -2.447323
     68          1           0       11.668099    0.652385   -3.151253
     69          1           0       11.061292   -1.081094   -3.216197
     70          1           0      -11.452523    1.603762   -2.836521
     71          1           0      -10.061849    0.461560   -2.579936
     72          1           0      -10.191254    2.222552   -1.722308
     73          1           0       15.071752   -2.984885    0.446479
     74          1           0      -14.790652    2.413567    1.810394
     75          1           0       10.108442    2.260756   -0.931891
     76          1           0       -8.518316    0.507526   -0.640806
     77          1           0        9.145810    4.246100   -0.337570
     78          1           0        7.160040    4.459404    0.150804
     79          1           0        8.509174    4.198784    1.328719
     80          1           0       -8.562307   -3.429505   -0.139900
     81          1           0       -8.265862   -3.058888   -1.750717
     82          1           0       -6.697448   -3.079718   -0.766693
     83          1           0        7.119287    0.611745   -0.654557
     84          1           0       -6.399435    0.272596   -0.086847
     85          1           0        5.451278    3.217217    0.472364
     86          1           0       -5.073801   -2.279413   -0.322895
     87          1           0        4.580116    0.131082   -0.144187
     88          1           0       -4.285156    0.477146   -0.060362
     89          1           0        3.186995    3.236223    1.787144
     90          1           0        1.695520    3.124107    0.653361
     91          1           0        3.233813    3.726212    0.064897
     92          1           0       -2.936144   -2.910740    0.316864
     93          1           0       -2.852281   -2.768581   -1.429220
     94          1           0       -1.096444   -2.700399   -0.410381
     95          1           0        2.581811   -0.339614   -0.211949
     96          1           0       -1.817648    0.956829    0.298594
     97          1           0        0.291162    1.650813    0.306658
     98          1           0        0.053493   -1.309649   -0.098026
 ---------------------------------------------------------------------

 SCF Done:  E(RCAM-B3LYP) =  -1706.88548775     A.U. after   15 cycles

 Excitation energies and oscillator strengths:

 Excited State   1:      Singlet-A      2.2886 eV  541.74 nm  f=3.8097  <S**2>=0.000
     155 ->158         0.16526
     156 ->157         0.68615
 This state for optimization and/or second-order correction.
 Total Energy, E(TD-HF/TD-DFT) =  -1706.80138293
 Copying the excited state density for this state as the 1-particle RhoCI density.

 The electronic state is 1-A.
 Alpha  occ. eigenvalues --  -19.22795 -19.22438 -10.30637 -10.29251 -10.28834
 Alpha  occ. eigenvalues --  -10.28261 -10.28011 -10.27789 -10.27513 -10.27454
 Alpha  occ. eigenvalues --  -10.27359 -10.27331 -10.27092 -10.27076 -10.26978
 Alpha  occ. eigenvalues --  -10.26815 -10.26545 -10.26501 -10.26330 -10.26228
 Alpha  occ. eigenvalues --  -10.26182 -10.26180 -10.26086 -10.25967 -10.25884
 Alpha  occ. eigenvalues --  -10.25868 -10.25772 -10.25770 -10.25596 -10.25496
 Alpha  occ. eigenvalues --  -10.25478 -10.25417 -10.25389 -10.25337 -10.25275
 Alpha  occ. eigenvalues --  -10.25272 -10.25111 -10.24587 -10.23954 -10.23327
 Alpha  occ. eigenvalues --  -10.23130 -10.22716  -1.08946  -1.06768  -0.93757
 Alpha  occ. eigenvalues --   -0.93192  -0.92568  -0.91426  -0.91110  -0.90037
 Alpha  occ. eigenvalues --   -0.87807  -0.87668  -0.87524  -0.85449  -0.84554
 Alpha  occ. eigenvalues --   -0.82311  -0.81749  -0.79807  -0.79471  -0.77710
 Alpha  occ. eigenvalues --   -0.77176  -0.76609  -0.76387  -0.75883  -0.75767
 Alpha  occ. eigenvalues --   -0.75521  -0.75401  -0.74559  -0.73531  -0.71201
 Alpha  occ. eigenvalues --   -0.68794  -0.67497  -0.66264  -0.65207  -0.64276
 Alpha  occ. eigenvalues --   -0.64064  -0.63401  -0.62714  -0.60799  -0.59893
 Alpha  occ. eigenvalues --   -0.59406  -0.58208  -0.57720  -0.57477  -0.56388
 Alpha  occ. eigenvalues --   -0.55837  -0.55368  -0.54550  -0.54324  -0.53871
 Alpha  occ. eigenvalues --   -0.53538  -0.52594  -0.52396  -0.51607  -0.51542
 Alpha  occ. eigenvalues --   -0.50623  -0.50190  -0.50048  -0.49864  -0.49349
 Alpha  occ. eigenvalues --   -0.48679  -0.48225  -0.48039  -0.47833  -0.47729
 Alpha  occ. eigenvalues --   -0.47219  -0.46915  -0.46666  -0.46448  -0.46029
 Alpha  occ. eigenvalues --   -0.45760  -0.45457  -0.45397  -0.45264  -0.44466
 Alpha  occ. eigenvalues --   -0.44363  -0.43874  -0.43714  -0.43628  -0.43243
 Alpha  occ. eigenvalues --   -0.43212  -0.42814  -0.42579  -0.42435  -0.42049
 Alpha  occ. eigenvalues --   -0.41742  -0.41308  -0.41140  -0.41096  -0.40927
 Alpha  occ. eigenvalues --   -0.40509  -0.40353  -0.40025  -0.39810  -0.39642
 Alpha  occ. eigenvalues --   -0.39211  -0.39171  -0.38480  -0.38058  -0.37416
 Alpha  occ. eigenvalues --   -0.37293  -0.37224  -0.36818  -0.36458  -0.36014
 Alpha  occ. eigenvalues --   -0.35461  -0.35214  -0.33545  -0.32108  -0.31515
 Alpha  occ. eigenvalues --   -0.31393  -0.29827  -0.27145  -0.25983  -0.23166
 Alpha  occ. eigenvalues --   -0.19642
 Alpha virt. eigenvalues --   -0.05647  -0.01395   0.03141   0.05078   0.05550
 Alpha virt. eigenvalues --    0.07473   0.08492   0.09119   0.10469   0.10730
 Alpha virt. eigenvalues --    0.11129   0.11845   0.13025   0.13076   0.13563

 Mulliken charges:
               1
     1  O   -0.569241
     2  O   -0.557223
     3  C   -0.007173
     4  C   -0.011290
     5  C   -0.196394
     6  C   -0.171037
     7  C    0.188450
     8  C    0.167347
     9  C    0.039842
    10  C    0.077785
    11  C   -0.227385
    12  C   -0.217160
    13  C    0.077604
    14  C    0.038031
    15  C   -0.300188
    16  C   -0.280184
    17  C   -0.288000
    18  C   -0.335049
    19  C   -0.127632
    20  C   -0.158949
    21  C   -0.351435
    22  C   -0.358253
    23  C   -0.124441
    24  C   -0.058225
    25  C    0.118681
    26  C    0.094733
    27  C   -0.361603
    28  C   -0.341517
    29  C   -0.114508
    30  C   -0.127848
    31  C   -0.088768
    32  C   -0.146357
    33  C   -0.131768
    34  C   -0.096117
    35  C    0.090117
    36  C    0.134753
    37  C   -0.364603
    38  C   -0.363062
    39  C   -0.121156
    40  C   -0.142706
    41  C   -0.055333
    42  C   -0.041401
    43  H    0.103427
    44  H    0.042527
    45  H    0.080641
    46  H    0.111185
    47  H    0.078324
    48  H    0.080393
    49  H    0.124602
    50  H    0.106755
    51  H    0.128773
    52  H    0.095597
    53  H    0.081081
    54  H    0.108887
    55  H    0.106578
    56  H    0.106717
    57  H    0.098942
    58  H    0.086062
    59  H    0.105744
    60  H    0.087796
    61  H    0.098517
    62  H    0.098450
    63  H    0.090474
    64  H    0.110122
    65  H    0.090215
    66  H    0.079176
    67  H    0.125577
    68  H    0.105027
    69  H    0.091360
    70  H    0.106872
    71  H    0.102629
    72  H    0.108727
    73  H    0.314425
    74  H    0.285646
    75  H    0.087797
    76  H    0.096649
    77  H    0.106003
    78  H    0.093239
    79  H    0.114925
    80  H    0.112075
    81  H    0.126922
    82  H    0.116232
    83  H    0.096241
    84  H    0.073270
    85  H    0.073249
    86  H    0.061564
    87  H    0.071635
    88  H    0.073935
    89  H    0.110655
    90  H    0.097674
    91  H    0.132919
    92  H    0.136132
    93  H    0.108210
    94  H    0.089853
    95  H    0.079664
    96  H    0.078061
    97  H    0.061385
    98  H    0.069124
 Sum of Mulliken charges =  -0.00000

 Dipole moment (field-independent basis, Debye):
    X=              0.3176    Y=             -0.8285    Z=              2.7609  Tot=              2.9000
 Quadrupole moment (field-independent basis, Debye-Ang):
   XX=           -258.1418   YY=           -242.0787   ZZ=           -259.9732
   XY=             -4.1490   XZ=             -8.1137   YZ=              4.0299

 Normal termination of Gaussian 16 at Fri Jun 28 20:56:03 2019.
