 Gaussian 16, Revision A.03,
 Gaussian 16:  ES64L-G16RevA.03 25-Dec-2016

 -------------------------------------
 # td=(NStates=1) CAM-B3LYP/6-31G(d,p)
 -------------------------------------

 --
 TD
 --
 Symbolic Z-matrix:
 Charge =  0 Multiplicity = 1

                         Standard orientation:
 ---------------------------------------------------------------------
 Center     Atomic      Atomic             Coordinates (Angstroms)
 Number     Number       Type             X           Y           Z
 ---------------------------------------------------------------------
      1          8           0       14.616241   -2.428402   -0.274852
      2          8           0      -14.802091    2.006072    0.796440
      3          6           0       11.434187   -1.049035    1.182061
      4          6           0      -12.352387   -0.933542    0.778486
      5          6           0       12.852142   -1.408726    1.109971
      6          6           0      -13.726907   -0.197404    0.731630
      7          6           0       13.177563   -1.989711   -0.238293
      8          6           0      -13.557165    1.381265    0.780680
      9          6           0       10.906389   -0.236549   -0.074648
     10          6           0      -11.289363   -0.257315   -0.237011
     11          6           0       13.037141   -0.988362   -1.313360
     12          6           0      -12.825616    1.771170   -0.504424
     13          6           0       11.658226   -0.275939   -1.168649
     14          6           0      -11.545021    0.902996   -0.816393
     15          6           0       11.255507   -0.096550    2.553139
     16          6           0       10.516058   -2.319124    1.379924
     17          6           0      -11.747084   -0.819673    2.193960
     18          6           0      -12.560628   -2.332854    0.227171
     19          6           0        9.646269    0.483275    0.168577
     20          6           0       -9.961770   -1.003615   -0.583868
     21          6           0       11.216473    0.349194   -2.496411
     22          6           0      -10.706723    1.431120   -1.961642
     23          6           0        9.298632    1.736258   -0.344292
     24          6           0       -8.832081   -0.614731   -0.263668
     25          6           0        8.069566    2.332009   -0.119412
     26          6           0       -7.604042   -1.264704   -0.437553
     27          6           0        8.102986    3.824444    0.184155
     28          6           0       -7.675690   -2.601947   -1.023951
     29          6           0        6.867064    1.685626   -0.127725
     30          6           0       -6.417531   -0.697333   -0.228299
     31          6           0        5.519832    2.096618    0.059978
     32          6           0       -5.008398   -1.246343   -0.361574
     33          6           0        4.497846    1.289696   -0.050308
     34          6           0       -3.954077   -0.512806   -0.025216
     35          6           0        3.082637    1.639753    0.136676
     36          6           0       -2.575915   -0.878997   -0.151085
     37          6           0        2.802612    3.049345    0.800448
     38          6           0       -2.329236   -2.269930   -0.707245
     39          6           0        2.153778    0.716849   -0.191307
     40          6           0       -1.552153    0.098487    0.027988
     41          6           0        0.762522    0.844619    0.169607
     42          6           0       -0.130252   -0.116619   -0.186019
     43          1           0       13.746754   -0.593130    1.237820
     44          1           0       13.170898   -2.287267    1.959118
     45          1           0      -14.234837   -0.654579    1.570895
     46          1           0      -14.287358   -0.541517   -0.238747
     47          1           0       12.718352   -2.894337   -0.620186
     48          1           0      -12.775506    1.723922    1.469576
     49          1           0       13.874847   -0.200650   -1.099156
     50          1           0       13.099726   -1.200933   -2.349982
     51          1           0      -13.512241    1.587403   -1.408562
     52          1           0      -12.644246    2.861362   -0.348587
     53          1           0       11.866830   -0.500335    3.231530
     54          1           0       10.216397    0.060754    2.950276
     55          1           0       11.767374    0.892263    2.196867
     56          1           0       10.629631   -2.832088    0.501489
     57          1           0       10.640732   -2.795702    2.392014
     58          1           0        9.473996   -1.959225    1.521850
     59          1           0      -11.704425    0.149959    2.719845
     60          1           0      -10.629815   -1.505282    1.877376
     61          1           0      -12.240489   -1.602001    3.021684
     62          1           0      -13.527134   -2.636075    0.613727
     63          1           0      -11.636133   -2.937688    0.673109
     64          1           0      -12.500109   -2.434963   -0.848548
     65          1           0        8.919126   -0.063452    0.726580
     66          1           0      -10.299415   -2.086827   -1.097148
     67          1           0       10.287115    0.845024   -2.435564
     68          1           0       11.900990    1.220077   -2.826758
     69          1           0       11.251662   -0.543183   -3.185749
     70          1           0      -11.574310    1.699330   -2.772935
     71          1           0      -10.053425    0.614920   -2.361709
     72          1           0      -10.259492    2.420784   -1.704188
     73          1           0       14.816771   -2.876799    0.528141
     74          1           0      -15.218053    1.517570    1.520044
     75          1           0       10.133379    2.127590   -0.661119
     76          1           0       -8.646342    0.340535    0.095165
     77          1           0        8.580326    4.285667   -0.697572
     78          1           0        7.005894    4.193756    0.210472
     79          1           0        8.539061    3.826860    1.211219
     80          1           0       -8.379074   -3.371792   -0.777533
     81          1           0       -8.293477   -2.584888   -1.872885
     82          1           0       -6.787826   -3.181050   -1.088737
     83          1           0        7.045015    0.647530   -0.379596
     84          1           0       -6.410488    0.430846   -0.151486
     85          1           0        5.241769    3.048682    0.214551
     86          1           0       -4.913622   -2.052418   -0.764554
     87          1           0        4.935969    0.129296   -0.267744
     88          1           0       -4.305117    0.520385    0.092345
     89          1           0        3.236200    2.925875    1.811184
     90          1           0        1.759392    3.090714    0.606097
     91          1           0        3.484785    3.606694    0.219765
     92          1           0       -2.669654   -3.069772    0.037698
     93          1           0       -2.630378   -2.425047   -1.539701
     94          1           0       -1.156189   -2.384707   -1.033699
     95          1           0        2.465230   -0.136049   -0.782950
     96          1           0       -1.880743    1.054635    0.482355
     97          1           0        0.504066    1.755620    0.795502
     98          1           0        0.312065   -0.973164   -0.578182
 ---------------------------------------------------------------------

 SCF Done:  E(RCAM-B3LYP) =  -1706.89530942     A.U. after   14 cycles

 Excitation energies and oscillator strengths:

 Excited State   1:      Singlet-A      2.8431 eV  436.09 nm  f=3.5395  <S**2>=0.000
     155 ->158        -0.18710
     156 ->157         0.67663
 This state for optimization and/or second-order correction.
 Total Energy, E(TD-HF/TD-DFT) =  -1706.79082722
 Copying the excited state density for this state as the 1-particle RhoCI density.

 The electronic state is 1-A.
 Alpha  occ. eigenvalues --  -19.21974 -19.19587 -10.30610 -10.30395 -10.28359
 Alpha  occ. eigenvalues --  -10.28324 -10.28246 -10.28058 -10.27914 -10.27584
 Alpha  occ. eigenvalues --  -10.27422 -10.26997 -10.26915 -10.26893 -10.26836
 Alpha  occ. eigenvalues --  -10.26628 -10.26527 -10.26278 -10.26221 -10.26176
 Alpha  occ. eigenvalues --  -10.26160 -10.26133 -10.26112 -10.26079 -10.25971
 Alpha  occ. eigenvalues --  -10.25943 -10.25871 -10.25800 -10.25717 -10.25614
 Alpha  occ. eigenvalues --  -10.25605 -10.25586 -10.25581 -10.25423 -10.25328
 Alpha  occ. eigenvalues --  -10.25042 -10.24953 -10.24951 -10.24808 -10.24447
 Alpha  occ. eigenvalues --  -10.24093 -10.23647  -1.11137  -1.07043  -0.93821
 Alpha  occ. eigenvalues --   -0.93523  -0.92475  -0.91822  -0.91230  -0.90558
 Alpha  occ. eigenvalues --   -0.88218  -0.86605  -0.86440  -0.85779  -0.84906
 Alpha  occ. eigenvalues --   -0.83833  -0.82436  -0.80527  -0.80262  -0.78819
 Alpha  occ. eigenvalues --   -0.77765  -0.76327  -0.76205  -0.76110  -0.75518
 Alpha  occ. eigenvalues --   -0.75307  -0.75075  -0.74494  -0.73846  -0.70764
 Alpha  occ. eigenvalues --   -0.69351  -0.67299  -0.65996  -0.65597  -0.63720
 Alpha  occ. eigenvalues --   -0.63286  -0.62689  -0.62417  -0.61875  -0.60831
 Alpha  occ. eigenvalues --   -0.60154  -0.58828  -0.58050  -0.57952  -0.56571
 Alpha  occ. eigenvalues --   -0.56030  -0.55704  -0.54893  -0.54514  -0.54180
 Alpha  occ. eigenvalues --   -0.53192  -0.52508  -0.52341  -0.51939  -0.51309
 Alpha  occ. eigenvalues --   -0.50904  -0.50377  -0.50371  -0.49966  -0.49771
 Alpha  occ. eigenvalues --   -0.49500  -0.49080  -0.48770  -0.48291  -0.48135
 Alpha  occ. eigenvalues --   -0.47713  -0.47178  -0.47067  -0.46724  -0.46607
 Alpha  occ. eigenvalues --   -0.46231  -0.46031  -0.45618  -0.45423  -0.45170
 Alpha  occ. eigenvalues --   -0.44865  -0.44425  -0.44384  -0.44003  -0.43623
 Alpha  occ. eigenvalues --   -0.43479  -0.42779  -0.42682  -0.42653  -0.42361
 Alpha  occ. eigenvalues --   -0.41981  -0.41587  -0.41474  -0.41260  -0.40612
 Alpha  occ. eigenvalues --   -0.40497  -0.40369  -0.40162  -0.39994  -0.39815
 Alpha  occ. eigenvalues --   -0.38935  -0.38511  -0.38192  -0.37779  -0.37569
 Alpha  occ. eigenvalues --   -0.36994  -0.36762  -0.36495  -0.36019  -0.35199
 Alpha  occ. eigenvalues --   -0.34653  -0.33973  -0.33739  -0.32472  -0.32224
 Alpha  occ. eigenvalues --   -0.32025  -0.29899  -0.28659  -0.27248  -0.24440
 Alpha  occ. eigenvalues --   -0.21163
 Alpha virt. eigenvalues --   -0.04038  -0.00409   0.03120   0.06441   0.08805
 Alpha virt. eigenvalues --    0.09663   0.10856   0.11144   0.11930   0.12654
 Alpha virt. eigenvalues --    0.12901   0.13144   0.13358   0.13501   0.13731

 Mulliken charges:
               1
     1  O   -0.590328
     2  O   -0.538255
     3  C   -0.020857
     4  C    0.008796
     5  C   -0.187211
     6  C   -0.220480
     7  C    0.160420
     8  C    0.167594
     9  C    0.062973
    10  C    0.020808
    11  C   -0.182377
    12  C   -0.218232
    13  C    0.003818
    14  C    0.055233
    15  C   -0.313837
    16  C   -0.296412
    17  C   -0.268831
    18  C   -0.305724
    19  C   -0.105003
    20  C   -0.202764
    21  C   -0.357263
    22  C   -0.341911
    23  C   -0.093325
    24  C   -0.002699
    25  C    0.056344
    26  C    0.180776
    27  C   -0.352706
    28  C   -0.395858
    29  C   -0.124047
    30  C   -0.199990
    31  C   -0.042003
    32  C   -0.026535
    33  C   -0.091491
    34  C   -0.096955
    35  C    0.013531
    36  C    0.076888
    37  C   -0.340003
    38  C   -0.347435
    39  C   -0.102676
    40  C   -0.132214
    41  C   -0.086863
    42  C   -0.079385
    43  H    0.102550
    44  H    0.058210
    45  H    0.086164
    46  H    0.092520
    47  H    0.102499
    48  H    0.082979
    49  H    0.111423
    50  H    0.110815
    51  H    0.103888
    52  H    0.104298
    53  H    0.112498
    54  H    0.099690
    55  H    0.092408
    56  H    0.115008
    57  H    0.100209
    58  H    0.100549
    59  H    0.120713
    60  H    0.066641
    61  H    0.066960
    62  H    0.103541
    63  H    0.086380
    64  H    0.119244
    65  H    0.088750
    66  H    0.069017
    67  H    0.121901
    68  H    0.103398
    69  H    0.108964
    70  H    0.081206
    71  H    0.119504
    72  H    0.113232
    73  H    0.294180
    74  H    0.309458
    75  H    0.083172
    76  H    0.085227
    77  H    0.120098
    78  H    0.096255
    79  H    0.129949
    80  H    0.105220
    81  H    0.120863
    82  H    0.111535
    83  H    0.067498
    84  H    0.072053
    85  H    0.058684
    86  H    0.045444
    87  H    0.060312
    88  H    0.077056
    89  H    0.136961
    90  H    0.117756
    91  H    0.133650
    92  H    0.117564
    93  H    0.140153
    94  H    0.073075
    95  H    0.087105
    96  H    0.090235
    97  H    0.087739
    98  H    0.090087
 Sum of Mulliken charges =  -0.00000

 Dipole moment (field-independent basis, Debye):
    X=             -0.1207    Y=             -1.0922    Z=              1.2875  Tot=              1.6927
 Quadrupole moment (field-independent basis, Debye-Ang):
   XX=           -284.6386   YY=           -252.6231   ZZ=           -258.6085
   XY=             22.4420   XZ=              4.5915   YZ=              2.6400

 Normal termination of Gaussian 16 at Fri Jul  5 18:57:15 2019.
