 Gaussian 16, Revision A.03,
 Gaussian 16:  ES64L-G16RevA.03 25-Dec-2016

 -------------------------------------
 # td=(NStates=1) CAM-B3LYP/6-31G(d,p)
 -------------------------------------

 --
 TD
 --
 Symbolic Z-matrix:
 Charge =  0 Multiplicity = 1

                         Standard orientation:
 ---------------------------------------------------------------------
 Center     Atomic      Atomic             Coordinates (Angstroms)
 Number     Number       Type             X           Y           Z
 ---------------------------------------------------------------------
      1          8           0       14.613580   -2.360286   -0.420146
      2          8           0      -14.633856    1.969977    0.880587
      3          6           0       11.389811   -1.221727    1.219253
      4          6           0      -12.181864   -1.024097    0.796920
      5          6           0       12.842136   -1.659438    1.134650
      6          6           0      -13.607036   -0.322113    0.767862
      7          6           0       13.225199   -2.096623   -0.276556
      8          6           0      -13.391341    1.219124    0.813167
      9          6           0       10.971167   -0.409417   -0.069089
     10          6           0      -11.259797   -0.333464   -0.216042
     11          6           0       13.013364   -0.912338   -1.265167
     12          6           0      -12.784570    1.687852   -0.361556
     13          6           0       11.719017   -0.194351   -1.093601
     14          6           0      -11.442083    0.949760   -0.608680
     15          6           0       11.279303   -0.368819    2.498985
     16          6           0       10.389115   -2.444520    1.401081
     17          6           0      -11.588273   -1.057308    2.213786
     18          6           0      -12.645277   -2.445248    0.308344
     19          6           0        9.735517    0.352989    0.266531
     20          6           0      -10.132247   -1.084627   -0.503745
     21          6           0       11.285327    0.621221   -2.258662
     22          6           0      -10.727187    1.603545   -1.697913
     23          6           0        9.299246    1.641897   -0.137665
     24          6           0       -8.808861   -0.614888   -0.270385
     25          6           0        7.940014    2.340860    0.088446
     26          6           0       -7.584973   -1.274401   -0.596235
     27          6           0        8.085443    3.769456    0.382973
     28          6           0       -7.679437   -2.661732   -1.079333
     29          6           0        6.893450    1.564029   -0.072826
     30          6           0       -6.397192   -0.548261   -0.373268
     31          6           0        5.594120    2.069408    0.059944
     32          6           0       -5.090071   -1.132702   -0.622187
     33          6           0        4.427622    1.335058   -0.016571
     34          6           0       -4.016264   -0.294557   -0.339015
     35          6           0        3.028185    1.732578    0.136583
     36          6           0       -2.588960   -0.677026   -0.526686
     37          6           0        2.744431    3.191103    0.529859
     38          6           0       -2.279404   -2.032310   -1.048847
     39          6           0        2.065868    0.792242   -0.044065
     40          6           0       -1.710539    0.199590   -0.229338
     41          6           0        0.605959    1.013753    0.057026
     42          6           0       -0.208418    0.053806   -0.436329
     43          1           0       13.547574   -0.903731    1.413601
     44          1           0       13.075102   -2.404960    1.759870
     45          1           0      -14.320337   -0.876785    1.586131
     46          1           0      -14.177837   -0.501146   -0.165721
     47          1           0       12.553245   -2.952108   -0.565359
     48          1           0      -12.823966    1.544595    1.669015
     49          1           0       13.804434   -0.130593   -1.186601
     50          1           0       13.189135   -1.224839   -2.449587
     51          1           0      -13.433505    1.396085   -1.377123
     52          1           0      -12.785403    2.705331   -0.400952
     53          1           0       11.510533   -1.017571    3.364068
     54          1           0       10.256399   -0.127182    2.754127
     55          1           0       11.998933    0.477471    2.553400
     56          1           0       10.231827   -2.980496    0.374805
     57          1           0       10.658078   -3.044658    2.288699
     58          1           0        9.317156   -2.077126    1.401761
     59          1           0      -11.494807   -0.043690    2.807766
     60          1           0      -10.769250   -1.572756    2.082334
     61          1           0      -12.479513   -1.678193    2.801218
     62          1           0      -13.367613   -2.943544    0.990164
     63          1           0      -11.706073   -3.172532    0.120218
     64          1           0      -13.098608   -2.453023   -0.528108
     65          1           0        8.720827   -0.068282    0.880778
     66          1           0      -10.204207   -2.274326   -0.719498
     67          1           0       10.143242    0.622363   -2.218939
     68          1           0       11.681839    1.781654   -2.214772
     69          1           0       11.657058    0.012352   -3.175860
     70          1           0      -11.409226    1.868547   -2.430095
     71          1           0       -9.885914    0.940894   -1.926947
     72          1           0      -10.202318    2.612717   -1.493450
     73          1           0       15.025742   -2.725604    0.557755
     74          1           0      -14.755194    2.010385    2.010169
     75          1           0       10.143280    2.124328   -0.606363
     76          1           0       -8.870094    0.238347    0.407532
     77          1           0        9.174478    4.204598   -0.086579
     78          1           0        7.115125    4.463644    0.082111
     79          1           0        8.256854    4.024708    1.421440
     80          1           0       -8.011595   -3.168970   -0.143119
     81          1           0       -8.281569   -2.915342   -1.965758
     82          1           0       -6.585248   -2.986327   -1.288835
     83          1           0        7.031467    0.410548   -0.183346
     84          1           0       -6.379683    0.339236   -0.051723
     85          1           0        5.581673    3.266330    0.108889
     86          1           0       -4.815034   -2.234362   -0.928336
     87          1           0        4.552929    0.367155   -0.206282
     88          1           0       -4.167005    0.613655    0.115609
     89          1           0        3.043182    3.680351    1.591868
     90          1           0        1.582239    3.535840    0.408513
     91          1           0        3.417633    4.028676   -0.167899
     92          1           0       -2.750961   -2.901649   -0.277033
     93          1           0       -2.539303   -2.219736   -2.160998
     94          1           0       -1.127338   -2.429351   -1.029863
     95          1           0        2.388196   -0.214753   -0.449384
     96          1           0       -2.028115    1.152150    0.138193
     97          1           0        0.334317    1.840920    0.478415
     98          1           0        0.176412   -0.866580   -0.643326
 ---------------------------------------------------------------------

 SCF Done:  E(RCAM-B3LYP) =  -1706.87761317     A.U. after   14 cycles

 Excitation energies and oscillator strengths:

 Excited State   1:      Singlet-A      2.9161 eV  425.17 nm  f=3.6700  <S**2>=0.000
     155 ->158        -0.23349
     156 ->157         0.65429
 This state for optimization and/or second-order correction.
 Total Energy, E(TD-HF/TD-DFT) =  -1706.77044730
 Copying the excited state density for this state as the 1-particle RhoCI density.

 The electronic state is 1-A.
 Alpha  occ. eigenvalues --  -19.22201 -19.21490 -10.30617 -10.29559 -10.29136
 Alpha  occ. eigenvalues --  -10.28811 -10.28575 -10.28071 -10.27923 -10.27788
 Alpha  occ. eigenvalues --  -10.27762 -10.27671 -10.27260 -10.27259 -10.26914
 Alpha  occ. eigenvalues --  -10.26878 -10.26703 -10.26605 -10.26455 -10.26434
 Alpha  occ. eigenvalues --  -10.26405 -10.26245 -10.26229 -10.26196 -10.26158
 Alpha  occ. eigenvalues --  -10.26038 -10.26007 -10.26002 -10.25984 -10.25866
 Alpha  occ. eigenvalues --  -10.25806 -10.25707 -10.25693 -10.25517 -10.25479
 Alpha  occ. eigenvalues --  -10.25440 -10.25382 -10.24757 -10.24469 -10.24400
 Alpha  occ. eigenvalues --  -10.24016 -10.23802  -1.07230  -1.06227  -0.93873
 Alpha  occ. eigenvalues --   -0.93575  -0.92292  -0.91751  -0.90706  -0.89876
 Alpha  occ. eigenvalues --   -0.87533  -0.87204  -0.86690  -0.85454  -0.84020
 Alpha  occ. eigenvalues --   -0.83233  -0.81773  -0.79860  -0.79110  -0.77051
 Alpha  occ. eigenvalues --   -0.76986  -0.76289  -0.75865  -0.75774  -0.75300
 Alpha  occ. eigenvalues --   -0.75184  -0.74929  -0.74470  -0.73735  -0.69908
 Alpha  occ. eigenvalues --   -0.68171  -0.66891  -0.65325  -0.64642  -0.64179
 Alpha  occ. eigenvalues --   -0.64081  -0.62861  -0.62492  -0.61104  -0.60019
 Alpha  occ. eigenvalues --   -0.59119  -0.57875  -0.57605  -0.56945  -0.56426
 Alpha  occ. eigenvalues --   -0.55364  -0.54892  -0.54704  -0.54117  -0.53699
 Alpha  occ. eigenvalues --   -0.53237  -0.52209  -0.51858  -0.51043  -0.50591
 Alpha  occ. eigenvalues --   -0.50305  -0.50103  -0.49865  -0.49360  -0.48904
 Alpha  occ. eigenvalues --   -0.48713  -0.48250  -0.48006  -0.47726  -0.47702
 Alpha  occ. eigenvalues --   -0.47478  -0.47017  -0.46781  -0.46495  -0.46456
 Alpha  occ. eigenvalues --   -0.46359  -0.45600  -0.45082  -0.44748  -0.44618
 Alpha  occ. eigenvalues --   -0.44300  -0.43947  -0.43674  -0.43483  -0.43349
 Alpha  occ. eigenvalues --   -0.42789  -0.42559  -0.42532  -0.41912  -0.41701
 Alpha  occ. eigenvalues --   -0.41360  -0.41305  -0.41154  -0.40869  -0.40640
 Alpha  occ. eigenvalues --   -0.39986  -0.39853  -0.39607  -0.39496  -0.39099
 Alpha  occ. eigenvalues --   -0.38941  -0.38684  -0.38253  -0.38023  -0.37906
 Alpha  occ. eigenvalues --   -0.37715  -0.37335  -0.36877  -0.36173  -0.35682
 Alpha  occ. eigenvalues --   -0.35258  -0.34451  -0.32966  -0.32184  -0.31819
 Alpha  occ. eigenvalues --   -0.30865  -0.30260  -0.28341  -0.26765  -0.23323
 Alpha  occ. eigenvalues --   -0.21185
 Alpha virt. eigenvalues --   -0.03670  -0.01091   0.02616   0.05292   0.07202
 Alpha virt. eigenvalues --    0.08622   0.09147   0.09454   0.10810   0.11287
 Alpha virt. eigenvalues --    0.11533   0.11918   0.12477   0.12606   0.12883

 Mulliken charges:
               1
     1  O   -0.568291
     2  O   -0.566835
     3  C   -0.005724
     4  C   -0.031033
     5  C   -0.198685
     6  C   -0.173393
     7  C    0.188039
     8  C    0.150351
     9  C    0.077521
    10  C    0.093185
    11  C   -0.218286
    12  C   -0.186917
    13  C    0.069856
    14  C    0.036289
    15  C   -0.297033
    16  C   -0.313888
    17  C   -0.259777
    18  C   -0.292465
    19  C   -0.121278
    20  C   -0.173257
    21  C   -0.362611
    22  C   -0.356658
    23  C   -0.151175
    24  C   -0.113888
    25  C    0.122188
    26  C    0.091371
    27  C   -0.371080
    28  C   -0.367179
    29  C   -0.092925
    30  C   -0.073040
    31  C   -0.084134
    32  C   -0.097581
    33  C   -0.117112
    34  C   -0.124387
    35  C    0.151224
    36  C    0.176248
    37  C   -0.360405
    38  C   -0.381211
    39  C   -0.160416
    40  C   -0.154491
    41  C   -0.031693
    42  C   -0.082937
    43  H    0.099327
    44  H    0.088017
    45  H    0.061767
    46  H    0.102478
    47  H    0.082051
    48  H    0.080783
    49  H    0.119894
    50  H    0.081377
    51  H    0.087868
    52  H    0.116103
    53  H    0.087066
    54  H    0.110828
    55  H    0.103109
    56  H    0.095400
    57  H    0.105900
    58  H    0.104746
    59  H    0.093771
    60  H    0.121530
    61  H    0.072535
    62  H    0.097013
    63  H    0.063310
    64  H    0.124971
    65  H    0.059899
    66  H    0.080019
    67  H    0.130955
    68  H    0.097862
    69  H    0.096436
    70  H    0.118708
    71  H    0.115514
    72  H    0.092237
    73  H    0.297803
    74  H    0.290876
    75  H    0.081754
    76  H    0.092440
    77  H    0.095692
    78  H    0.096678
    79  H    0.144560
    80  H    0.127659
    81  H    0.130705
    82  H    0.094447
    83  H    0.093000
    84  H    0.065412
    85  H    0.064316
    86  H    0.098706
    87  H    0.067494
    88  H    0.079967
    89  H    0.112353
    90  H    0.093353
    91  H    0.084572
    92  H    0.094317
    93  H    0.124749
    94  H    0.094197
    95  H    0.083728
    96  H    0.078644
    97  H    0.071207
    98  H    0.083408
 Sum of Mulliken charges =  -0.00000

 Dipole moment (field-independent basis, Debye):
    X=              0.9909    Y=             -0.5555    Z=              3.0068  Tot=              3.2142
 Quadrupole moment (field-independent basis, Debye-Ang):
   XX=           -293.0745   YY=           -247.8188   ZZ=           -259.5997
   XY=             13.4616   XZ=              7.9966   YZ=              3.5403

 Normal termination of Gaussian 16 at Sat Jul  6 15:40:42 2019.
