 Gaussian 16, Revision A.03,
 Gaussian 16:  ES64L-G16RevA.03 25-Dec-2016

 -------------------------------------
 # td=(NStates=1) CAM-B3LYP/6-31G(d,p)
 -------------------------------------

 --
 TD
 --
 Symbolic Z-matrix:
 Charge =  0 Multiplicity = 1

                         Standard orientation:
 ---------------------------------------------------------------------
 Center     Atomic      Atomic             Coordinates (Angstroms)
 Number     Number       Type             X           Y           Z
 ---------------------------------------------------------------------
      1          8           0       14.703572   -2.122891   -0.400003
      2          8           0      -14.665255    2.163110    0.794653
      3          6           0       11.453938   -1.098793    1.130540
      4          6           0      -12.326225   -0.960477    0.710446
      5          6           0       12.927420   -1.343524    1.018730
      6          6           0      -13.733492   -0.040629    0.645266
      7          6           0       13.350562   -1.935907   -0.346254
      8          6           0      -13.470816    1.414399    0.704414
      9          6           0       10.949361   -0.191821   -0.039756
     10          6           0      -11.275673   -0.294455   -0.249367
     11          6           0       13.009470   -0.922099   -1.357164
     12          6           0      -12.714859    1.730413   -0.635703
     13          6           0       11.654383   -0.206810   -1.203344
     14          6           0      -11.380189    0.891126   -0.770591
     15          6           0       11.152504   -0.324345    2.433924
     16          6           0       10.637172   -2.431415    1.314951
     17          6           0      -11.861494   -0.996706    2.227204
     18          6           0      -12.680718   -2.374316    0.269946
     19          6           0        9.596575    0.468459    0.176047
     20          6           0       -9.971469   -1.129915   -0.398883
     21          6           0       11.204207    0.584078   -2.429059
     22          6           0      -10.513363    1.542529   -1.941206
     23          6           0        9.322267    1.718058   -0.052405
     24          6           0       -8.795937   -0.564955   -0.266309
     25          6           0        8.024101    2.296708    0.135625
     26          6           0       -7.541562   -1.295527   -0.486125
     27          6           0        8.022448    3.736873    0.529008
     28          6           0       -7.625530   -2.852786   -0.894605
     29          6           0        6.879852    1.523592   -0.082959
     30          6           0       -6.364990   -0.644128   -0.199932
     31          6           0        5.561020    1.922803    0.148363
     32          6           0       -5.014419   -1.161069   -0.399512
     33          6           0        4.343481    1.139822   -0.073339
     34          6           0       -3.992950   -0.419872   -0.220373
     35          6           0        3.095569    1.596550    0.102640
     36          6           0       -2.681467   -0.834783   -0.394245
     37          6           0        2.677802    2.996933    0.478196
     38          6           0       -2.336041   -2.242766   -0.751262
     39          6           0        2.042336    0.672353    0.049609
     40          6           0       -1.705133    0.082837   -0.064977
     41          6           0        0.683229    0.801056    0.030626
     42          6           0       -0.248965   -0.214172   -0.108111
     43          1           0       13.544319   -0.463590    1.137831
     44          1           0       13.263915   -1.887530    1.962608
     45          1           0      -14.461101   -0.410155    1.536772
     46          1           0      -14.206646   -0.427099   -0.289764
     47          1           0       12.765182   -2.897723   -0.426862
     48          1           0      -12.795448    1.660926    1.455623
     49          1           0       13.749228   -0.073933   -1.218650
     50          1           0       13.148562   -1.532907   -2.246218
     51          1           0      -13.135850    1.830449   -1.413511
     52          1           0      -12.362069    2.921148   -0.612577
     53          1           0       11.599879   -0.693595    3.439941
     54          1           0       10.138158   -0.182497    2.719646
     55          1           0       11.649017    0.738571    2.195462
     56          1           0       10.705392   -3.186531    0.439777
     57          1           0       11.082510   -2.844033    2.279411
     58          1           0        9.581874   -2.175410    1.505345
     59          1           0      -11.922255    0.014781    2.839590
     60          1           0      -10.923334   -1.627846    2.406096
     61          1           0      -12.556832   -1.434392    2.682519
     62          1           0      -13.723554   -2.421689    0.761666
     63          1           0      -12.041033   -3.072528    0.367426
     64          1           0      -12.773026   -2.325159   -0.798495
     65          1           0        8.812907   -0.085568    0.706118
     66          1           0      -10.023912   -2.298087   -0.831399
     67          1           0       10.228988    1.514913   -2.143362
     68          1           0       12.312991    1.120750   -2.797052
     69          1           0       10.717240   -0.224028   -3.163888
     70          1           0      -11.111297    2.193838   -2.608249
     71          1           0      -10.159129    0.577786   -2.465684
     72          1           0       -9.628337    2.088711   -1.538475
     73          1           0       14.948559   -2.857702    0.070995
     74          1           0      -14.883206    2.031495    1.688953
     75          1           0       10.088589    2.371912   -0.390792
     76          1           0       -8.805641    0.475311    0.177180
     77          1           0        8.618824    4.483255   -0.214158
     78          1           0        7.032444    4.221533    0.560454
     79          1           0        8.524486    3.852198    1.537130
     80          1           0       -8.290717   -3.181990   -0.139525
     81          1           0       -8.266739   -2.710772   -1.860225
     82          1           0       -6.536633   -3.154812   -1.171550
     83          1           0        7.225845    0.611604   -0.293152
     84          1           0       -6.349333    0.332810    0.202537
     85          1           0        5.312457    2.912126    0.180643
     86          1           0       -5.058044   -2.180524   -0.805349
     87          1           0        4.649803    0.111816   -0.237549
     88          1           0       -3.939941    0.576375    0.307095
     89          1           0        3.245675    3.281480    1.231207
     90          1           0        1.597327    3.007267    0.689727
     91          1           0        3.055082    3.582961   -0.299398
     92          1           0       -2.769229   -2.946568   -0.008189
     93          1           0       -2.735227   -2.459658   -1.556898
     94          1           0       -1.302760   -2.431746   -0.709777
     95          1           0        2.429927   -0.350402   -0.231565
     96          1           0       -2.073193    1.247285   -0.010498
     97          1           0        0.246165    1.943567    0.094772
     98          1           0        0.138166   -1.312069   -0.291217
 ---------------------------------------------------------------------

 SCF Done:  E(RCAM-B3LYP) =  -1706.87413427     A.U. after   15 cycles

 Excitation energies and oscillator strengths:

 Excited State   1:      Singlet-A      2.3116 eV  536.35 nm  f=3.4906  <S**2>=0.000
     155 ->158         0.12977
     156 ->157         0.69703
 This state for optimization and/or second-order correction.
 Total Energy, E(TD-HF/TD-DFT) =  -1706.78918352
 Copying the excited state density for this state as the 1-particle RhoCI density.

 The electronic state is 1-A.
 Alpha  occ. eigenvalues --  -19.21356 -19.20906 -10.30465 -10.29919 -10.29682
 Alpha  occ. eigenvalues --  -10.28456 -10.27880 -10.27654 -10.27535 -10.27468
 Alpha  occ. eigenvalues --  -10.27355 -10.27304 -10.27171 -10.27168 -10.26987
 Alpha  occ. eigenvalues --  -10.26815 -10.26648 -10.26552 -10.26401 -10.26361
 Alpha  occ. eigenvalues --  -10.26310 -10.26158 -10.26145 -10.25959 -10.25950
 Alpha  occ. eigenvalues --  -10.25935 -10.25898 -10.25884 -10.25801 -10.25548
 Alpha  occ. eigenvalues --  -10.25365 -10.25330 -10.25311 -10.25004 -10.24962
 Alpha  occ. eigenvalues --  -10.24895 -10.24659 -10.24321 -10.24257 -10.23839
 Alpha  occ. eigenvalues --  -10.23706 -10.23444  -1.12920  -1.10778  -0.93455
 Alpha  occ. eigenvalues --   -0.92939  -0.92291  -0.92174  -0.91199  -0.89672
 Alpha  occ. eigenvalues --   -0.87177  -0.86450  -0.86144  -0.85701  -0.84784
 Alpha  occ. eigenvalues --   -0.83021  -0.82379  -0.80193  -0.79740  -0.79057
 Alpha  occ. eigenvalues --   -0.77667  -0.77134  -0.76707  -0.75893  -0.75690
 Alpha  occ. eigenvalues --   -0.74569  -0.74490  -0.74262  -0.73620  -0.70848
 Alpha  occ. eigenvalues --   -0.68469  -0.67539  -0.66496  -0.65343  -0.64096
 Alpha  occ. eigenvalues --   -0.62672  -0.62461  -0.61121  -0.60866  -0.60308
 Alpha  occ. eigenvalues --   -0.59831  -0.59252  -0.58577  -0.57342  -0.56334
 Alpha  occ. eigenvalues --   -0.56109  -0.55579  -0.55092  -0.54713  -0.54016
 Alpha  occ. eigenvalues --   -0.53026  -0.52851  -0.51923  -0.51625  -0.50420
 Alpha  occ. eigenvalues --   -0.50343  -0.50024  -0.49868  -0.49566  -0.49403
 Alpha  occ. eigenvalues --   -0.49212  -0.49034  -0.48499  -0.48323  -0.47996
 Alpha  occ. eigenvalues --   -0.47720  -0.47229  -0.47077  -0.46642  -0.46283
 Alpha  occ. eigenvalues --   -0.45859  -0.45624  -0.45454  -0.45356  -0.45015
 Alpha  occ. eigenvalues --   -0.44953  -0.44353  -0.43965  -0.43845  -0.43483
 Alpha  occ. eigenvalues --   -0.42994  -0.42791  -0.42449  -0.42188  -0.41863
 Alpha  occ. eigenvalues --   -0.41780  -0.41389  -0.41279  -0.41181  -0.40921
 Alpha  occ. eigenvalues --   -0.40223  -0.40119  -0.39589  -0.39367  -0.39034
 Alpha  occ. eigenvalues --   -0.39017  -0.38547  -0.38291  -0.37978  -0.37746
 Alpha  occ. eigenvalues --   -0.37593  -0.37375  -0.37076  -0.36467  -0.35960
 Alpha  occ. eigenvalues --   -0.35647  -0.34232  -0.33275  -0.32442  -0.32245
 Alpha  occ. eigenvalues --   -0.31749  -0.30135  -0.28707  -0.27074  -0.24222
 Alpha  occ. eigenvalues --   -0.19219
 Alpha virt. eigenvalues --   -0.05435   0.00133   0.03407   0.06064   0.08491
 Alpha virt. eigenvalues --    0.09856   0.10983   0.11246   0.11727   0.12072
 Alpha virt. eigenvalues --    0.12428   0.12496   0.13079   0.13381   0.14177

 Mulliken charges:
               1
     1  O   -0.528759
     2  O   -0.542134
     3  C   -0.012140
     4  C   -0.017966
     5  C   -0.189178
     6  C   -0.199191
     7  C    0.155899
     8  C    0.167187
     9  C    0.049185
    10  C    0.056679
    11  C   -0.203369
    12  C   -0.189980
    13  C    0.037824
    14  C    0.012675
    15  C   -0.302187
    16  C   -0.290280
    17  C   -0.287911
    18  C   -0.294175
    19  C   -0.114278
    20  C   -0.163477
    21  C   -0.312064
    22  C   -0.350166
    23  C   -0.094573
    24  C   -0.049294
    25  C    0.070540
    26  C    0.034489
    27  C   -0.373360
    28  C   -0.354921
    29  C   -0.075047
    30  C   -0.109308
    31  C   -0.108436
    32  C   -0.093852
    33  C   -0.127929
    34  C   -0.088296
    35  C    0.118191
    36  C    0.117983
    37  C   -0.357329
    38  C   -0.343422
    39  C   -0.133153
    40  C   -0.160726
    41  C   -0.074841
    42  C   -0.109160
    43  H    0.098314
    44  H    0.064609
    45  H    0.051842
    46  H    0.107672
    47  H    0.069669
    48  H    0.095943
    49  H    0.126681
    50  H    0.115293
    51  H    0.113539
    52  H    0.053627
    53  H    0.083223
    54  H    0.109395
    55  H    0.084800
    56  H    0.090299
    57  H    0.096976
    58  H    0.102052
    59  H    0.074857
    60  H    0.097826
    61  H    0.115830
    62  H    0.100030
    63  H    0.109316
    64  H    0.105082
    65  H    0.097901
    66  H    0.068089
    67  H    0.080815
    68  H    0.082151
    69  H    0.111100
    70  H    0.111016
    71  H    0.115642
    72  H    0.117329
    73  H    0.299131
    74  H    0.299611
    75  H    0.098919
    76  H    0.097716
    77  H    0.094913
    78  H    0.113828
    79  H    0.123374
    80  H    0.147831
    81  H    0.117540
    82  H    0.111473
    83  H    0.065254
    84  H    0.072503
    85  H    0.070794
    86  H    0.069722
    87  H    0.084697
    88  H    0.086302
    89  H    0.131642
    90  H    0.110190
    91  H    0.124796
    92  H    0.111034
    93  H    0.130504
    94  H    0.105841
    95  H    0.067815
    96  H    0.079293
    97  H    0.070984
    98  H    0.093620
 Sum of Mulliken charges =  -0.00000

 Dipole moment (field-independent basis, Debye):
    X=              1.2539    Y=             -2.0537    Z=              1.4534  Tot=              2.8111
 Quadrupole moment (field-independent basis, Debye-Ang):
   XX=           -271.7808   YY=           -244.6892   ZZ=           -260.7880
   XY=              2.4063   XZ=             -3.0792   YZ=              3.5397

 Normal termination of Gaussian 16 at Thu Jul 11 17:48:06 2019.
