 Gaussian 16, Revision A.03,
 Gaussian 16:  ES64L-G16RevA.03 25-Dec-2016

 -------------------------------------
 # td=(NStates=1) CAM-B3LYP/6-31G(d,p)
 -------------------------------------

 --
 TD
 --
 Symbolic Z-matrix:
 Charge =  0 Multiplicity = 1

                         Standard orientation:
 ---------------------------------------------------------------------
 Center     Atomic      Atomic             Coordinates (Angstroms)
 Number     Number       Type             X           Y           Z
 ---------------------------------------------------------------------
      1          8           0       14.671519   -2.122216   -0.541971
      2          8           0      -14.807532    2.042887    0.675074
      3          6           0       11.392764   -1.230805    1.265416
      4          6           0      -12.335530   -0.914506    0.743880
      5          6           0       12.943713   -1.399062    1.039637
      6          6           0      -13.701471   -0.207528    0.784602
      7          6           0       13.381360   -1.863605   -0.418578
      8          6           0      -13.553282    1.300279    0.765000
      9          6           0       10.950290   -0.305133    0.055373
     10          6           0      -11.233512   -0.280219   -0.202896
     11          6           0       13.018504   -0.858837   -1.369175
     12          6           0      -12.677111    1.782884   -0.527835
     13          6           0       11.671072   -0.190127   -1.092987
     14          6           0      -11.451590    0.945602   -0.799989
     15          6           0       11.207426   -0.379338    2.504855
     16          6           0       10.519447   -2.504185    1.222925
     17          6           0      -11.799352   -0.966657    2.309186
     18          6           0      -12.544429   -2.437235    0.339950
     19          6           0        9.622239    0.361350    0.268366
     20          6           0       -9.978885   -1.100861   -0.444383
     21          6           0       11.134483    0.516424   -2.276142
     22          6           0      -10.555933    1.528328   -1.815201
     23          6           0        9.382856    1.609093    0.083666
     24          6           0       -8.817572   -0.620977   -0.231606
     25          6           0        7.993623    2.218479    0.253187
     26          6           0       -7.528071   -1.250026   -0.462022
     27          6           0        8.001593    3.749987    0.669340
     28          6           0       -7.665866   -2.740118   -0.774744
     29          6           0        6.838534    1.525713   -0.013040
     30          6           0       -6.419865   -0.562635   -0.265672
     31          6           0        5.518803    2.124769    0.226190
     32          6           0       -5.091192   -1.087628   -0.424589
     33          6           0        4.431431    1.315317    0.043174
     34          6           0       -3.946263   -0.366435   -0.192654
     35          6           0        2.986447    1.719724    0.084517
     36          6           0       -2.557132   -0.845775   -0.460914
     37          6           0        2.725530    3.171454    0.358476
     38          6           0       -2.366694   -2.267036   -0.883440
     39          6           0        2.146382    0.741158   -0.282210
     40          6           0       -1.547365    0.005127   -0.318081
     41          6           0        0.696803    0.917336   -0.202616
     42          6           0       -0.174944   -0.131661   -0.324142
     43          1           0       13.292821   -0.463013    1.296811
     44          1           0       13.210364   -2.138198    1.755120
     45          1           0      -14.471313   -0.485238    1.540625
     46          1           0      -14.316692   -0.364720   -0.322178
     47          1           0       12.607401   -2.669304   -0.667021
     48          1           0      -12.946617    1.716688    1.432589
     49          1           0       13.803991    0.047454   -1.127940
     50          1           0       13.167636   -1.126245   -2.462001
     51          1           0      -13.428175    1.668031   -1.439182
     52          1           0      -12.536946    2.881562   -0.641291
     53          1           0       11.745749   -1.160047    3.232578
     54          1           0       10.112549   -0.242507    2.853963
     55          1           0       11.760800    0.561903    2.408844
     56          1           0       10.495360   -3.123120    0.365255
     57          1           0       11.136335   -3.051177    1.954299
     58          1           0        9.625100   -2.370226    1.634015
     59          1           0      -11.592481   -0.024180    2.677940
     60          1           0      -10.686392   -1.299471    2.130829
     61          1           0      -12.329151   -1.732618    3.012881
     62          1           0      -13.276616   -2.984108    0.923178
     63          1           0      -11.618701   -2.962806    0.762497
     64          1           0      -12.960218   -2.499265   -0.631081
     65          1           0        8.859970   -0.348695    0.687183
     66          1           0      -10.064947   -2.177313   -0.968573
     67          1           0       10.091418    0.988142   -2.510476
     68          1           0       11.649257    1.448350   -2.393923
     69          1           0       11.219697    0.102021   -3.272105
     70          1           0      -11.134535    1.909248   -2.671243
     71          1           0       -9.786141    0.853826   -2.163830
     72          1           0       -9.924467    2.393751   -1.454094
     73          1           0       15.064335   -3.036328   -0.039710
     74          1           0      -15.330830    1.663961    1.484032
     75          1           0       10.113592    2.214871   -0.317843
     76          1           0       -8.680588    0.377773    0.247337
     77          1           0        8.919367    4.337041    0.225723
     78          1           0        6.976999    4.222430    0.381761
     79          1           0        8.222580    3.970108    1.676814
     80          1           0       -8.174479   -3.406185   -0.112448
     81          1           0       -8.262285   -2.983479   -1.574158
     82          1           0       -6.694438   -3.283497   -0.968627
     83          1           0        6.834760    0.621125   -0.568423
     84          1           0       -6.235040    0.592360   -0.115144
     85          1           0        5.443684    3.078471    0.777677
     86          1           0       -4.952192   -2.143726   -0.605646
     87          1           0        4.562450    0.220746   -0.253156
     88          1           0       -3.972031    0.684533    0.030131
     89          1           0        2.829693    3.243451    1.507743
     90          1           0        1.553383    3.358615    0.202932
     91          1           0        3.309572    3.871019   -0.337019
     92          1           0       -2.861885   -3.018386   -0.173745
     93          1           0       -2.921555   -2.574494   -1.854288
     94          1           0       -1.285883   -2.358667   -1.059104
     95          1           0        2.477729   -0.329061   -0.364982
     96          1           0       -1.897631    1.015238   -0.111696
     97          1           0        0.245334    2.027491    0.111213
     98          1           0        0.394960   -1.215317   -0.606806
 ---------------------------------------------------------------------

 SCF Done:  E(RCAM-B3LYP) =  -1707.00374549     A.U. after   14 cycles

 Excitation energies and oscillator strengths:

 Excited State   1:      Singlet-A      2.9974 eV  413.64 nm  f=3.5452  <S**2>=0.000
     155 ->158         0.16494
     156 ->157         0.68107
 This state for optimization and/or second-order correction.
 Total Energy, E(TD-HF/TD-DFT) =  -1706.89359348
 Copying the excited state density for this state as the 1-particle RhoCI density.

 The electronic state is 1-A.
 Alpha  occ. eigenvalues --  -19.23177 -19.21640 -10.30373 -10.29622 -10.28873
 Alpha  occ. eigenvalues --  -10.28067 -10.28017 -10.27676 -10.27547 -10.27488
 Alpha  occ. eigenvalues --  -10.27234 -10.27151 -10.27137 -10.26964 -10.26872
 Alpha  occ. eigenvalues --  -10.26785 -10.26757 -10.26677 -10.26595 -10.26541
 Alpha  occ. eigenvalues --  -10.26287 -10.26268 -10.26255 -10.26238 -10.26154
 Alpha  occ. eigenvalues --  -10.26145 -10.25956 -10.25935 -10.25872 -10.25505
 Alpha  occ. eigenvalues --  -10.25491 -10.25267 -10.25123 -10.25033 -10.24985
 Alpha  occ. eigenvalues --  -10.24915 -10.24608 -10.24515 -10.24283 -10.24138
 Alpha  occ. eigenvalues --  -10.23904 -10.23698  -1.11425  -1.07047  -0.92811
 Alpha  occ. eigenvalues --   -0.92621  -0.91919  -0.91104  -0.90452  -0.89105
 Alpha  occ. eigenvalues --   -0.87061  -0.86868  -0.85983  -0.85455  -0.84229
 Alpha  occ. eigenvalues --   -0.82332  -0.81549  -0.79968  -0.79641  -0.78045
 Alpha  occ. eigenvalues --   -0.77585  -0.77164  -0.75432  -0.75252  -0.75091
 Alpha  occ. eigenvalues --   -0.75074  -0.74741  -0.74358  -0.73785  -0.70167
 Alpha  occ. eigenvalues --   -0.68087  -0.67046  -0.65620  -0.63963  -0.63376
 Alpha  occ. eigenvalues --   -0.62844  -0.62026  -0.60741  -0.60072  -0.59704
 Alpha  occ. eigenvalues --   -0.59668  -0.59446  -0.57440  -0.56860  -0.56444
 Alpha  occ. eigenvalues --   -0.55868  -0.54743  -0.54220  -0.53789  -0.53247
 Alpha  occ. eigenvalues --   -0.53075  -0.52570  -0.52305  -0.51686  -0.51443
 Alpha  occ. eigenvalues --   -0.50427  -0.50112  -0.49995  -0.49692  -0.49196
 Alpha  occ. eigenvalues --   -0.48492  -0.47878  -0.47654  -0.47204  -0.47093
 Alpha  occ. eigenvalues --   -0.47008  -0.46944  -0.46509  -0.46277  -0.46019
 Alpha  occ. eigenvalues --   -0.45769  -0.45508  -0.44880  -0.44835  -0.44525
 Alpha  occ. eigenvalues --   -0.44329  -0.44241  -0.43812  -0.43432  -0.43404
 Alpha  occ. eigenvalues --   -0.42986  -0.42876  -0.42743  -0.42201  -0.42053
 Alpha  occ. eigenvalues --   -0.41870  -0.41648  -0.41039  -0.40640  -0.40424
 Alpha  occ. eigenvalues --   -0.40208  -0.39978  -0.39929  -0.39563  -0.39273
 Alpha  occ. eigenvalues --   -0.39154  -0.38681  -0.38527  -0.37864  -0.37687
 Alpha  occ. eigenvalues --   -0.36711  -0.36586  -0.36272  -0.36130  -0.35348
 Alpha  occ. eigenvalues --   -0.34654  -0.33975  -0.33164  -0.32297  -0.32270
 Alpha  occ. eigenvalues --   -0.31490  -0.29145  -0.27507  -0.26507  -0.24559
 Alpha  occ. eigenvalues --   -0.21287
 Alpha virt. eigenvalues --   -0.03519   0.00667   0.03763   0.06242   0.07512
 Alpha virt. eigenvalues --    0.08308   0.09801   0.10396   0.11531   0.11951
 Alpha virt. eigenvalues --    0.12723   0.13060   0.13161   0.13332   0.13828

 Mulliken charges:
               1
     1  O   -0.548413
     2  O   -0.564523
     3  C   -0.042287
     4  C   -0.002180
     5  C   -0.194541
     6  C   -0.175300
     7  C    0.215662
     8  C    0.168917
     9  C    0.018727
    10  C    0.009577
    11  C   -0.209576
    12  C   -0.258928
    13  C    0.072274
    14  C    0.105517
    15  C   -0.283701
    16  C   -0.296767
    17  C   -0.322894
    18  C   -0.310901
    19  C   -0.091116
    20  C   -0.155774
    21  C   -0.393564
    22  C   -0.373042
    23  C   -0.088987
    24  C   -0.053544
    25  C    0.051917
    26  C    0.123766
    27  C   -0.368375
    28  C   -0.393581
    29  C   -0.107504
    30  C   -0.132034
    31  C   -0.101253
    32  C   -0.078799
    33  C   -0.121117
    34  C   -0.124912
    35  C    0.124035
    36  C    0.134529
    37  C   -0.363902
    38  C   -0.375222
    39  C   -0.135111
    40  C   -0.129707
    41  C   -0.085461
    42  C   -0.085911
    43  H    0.103904
    44  H    0.070485
    45  H    0.087243
    46  H    0.064108
    47  H    0.055972
    48  H    0.102950
    49  H    0.086697
    50  H    0.107856
    51  H    0.100630
    52  H    0.112933
    53  H    0.069092
    54  H    0.103827
    55  H    0.118083
    56  H    0.118403
    57  H    0.089637
    58  H    0.115759
    59  H    0.114554
    60  H    0.091366
    61  H    0.098446
    62  H    0.096923
    63  H    0.100067
    64  H    0.113721
    65  H    0.082854
    66  H    0.087912
    67  H    0.107109
    68  H    0.114754
    69  H    0.105927
    70  H    0.110479
    71  H    0.122331
    72  H    0.106573
    73  H    0.318196
    74  H    0.302334
    75  H    0.085962
    76  H    0.085783
    77  H    0.098188
    78  H    0.102835
    79  H    0.130865
    80  H    0.128221
    81  H    0.130944
    82  H    0.099524
    83  H    0.093593
    84  H    0.086542
    85  H    0.097780
    86  H    0.075596
    87  H    0.076703
    88  H    0.072398
    89  H    0.129228
    90  H    0.091303
    91  H    0.132132
    92  H    0.113626
    93  H    0.110714
    94  H    0.105932
    95  H    0.091656
    96  H    0.075390
    97  H    0.077470
    98  H    0.070498
 Sum of Mulliken charges =  -0.00000

 Dipole moment (field-independent basis, Debye):
    X=              1.7238    Y=             -2.1173    Z=              1.5844  Tot=              3.1567
 Quadrupole moment (field-independent basis, Debye-Ang):
   XX=           -264.0951   YY=           -241.8416   ZZ=           -262.0475
   XY=              2.9001   XZ=             -4.7379   YZ=              2.4992

 Normal termination of Gaussian 16 at Wed Jul 10 15:35:57 2019.
