 Gaussian 16, Revision A.03,
 Gaussian 16:  ES64L-G16RevA.03 25-Dec-2016

 -------------------------------------
 # td=(NStates=1) CAM-B3LYP/6-31G(d,p)
 -------------------------------------

 --
 TD
 --
 Symbolic Z-matrix:
 Charge =  0 Multiplicity = 1

                         Standard orientation:
 ---------------------------------------------------------------------
 Center     Atomic      Atomic             Coordinates (Angstroms)
 Number     Number       Type             X           Y           Z
 ---------------------------------------------------------------------
      1          8           0       14.664132   -2.392220   -0.358164
      2          8           0      -14.891918    1.873720    0.374001
      3          6           0       11.384269   -1.192761    1.179360
      4          6           0      -12.373293   -0.938505    0.741923
      5          6           0       12.777352   -1.591936    1.033354
      6          6           0      -13.733708   -0.235828    0.625735
      7          6           0       13.268335   -1.994251   -0.371178
      8          6           0      -13.597631    1.259085    0.566169
      9          6           0       10.862459   -0.287883   -0.027426
     10          6           0      -11.216746   -0.305459   -0.123734
     11          6           0       13.028036   -0.905846   -1.271503
     12          6           0      -12.593379    1.793762   -0.429266
     13          6           0       11.652139   -0.180701   -1.167851
     14          6           0      -11.384924    0.963774   -0.711692
     15          6           0       11.074401   -0.552774    2.501230
     16          6           0       10.613674   -2.521653    1.116237
     17          6           0      -11.976082   -0.928174    2.212961
     18          6           0      -12.535878   -2.411330    0.345967
     19          6           0        9.606743    0.342857    0.207428
     20          6           0      -10.008894   -1.136066   -0.426241
     21          6           0       11.277439    0.596235   -2.413066
     22          6           0      -10.509638    1.505759   -1.766548
     23          6           0        9.370857    1.630984   -0.271817
     24          6           0       -8.811737   -0.604965   -0.193665
     25          6           0        8.080106    2.239049   -0.024862
     26          6           0       -7.557681   -1.287269   -0.457684
     27          6           0        8.260320    3.768693    0.407494
     28          6           0       -7.642519   -2.708743   -0.892550
     29          6           0        6.902059    1.725966   -0.149400
     30          6           0       -6.434440   -0.664450   -0.280002
     31          6           0        5.568857    2.199814    0.199576
     32          6           0       -5.035356   -1.192537   -0.374063
     33          6           0        4.528630    1.472320   -0.031384
     34          6           0       -3.995181   -0.349528   -0.267376
     35          6           0        3.085131    1.816892    0.339742
     36          6           0       -2.607082   -0.839211   -0.437322
     37          6           0        2.716519    3.265416    0.770357
     38          6           0       -2.328991   -2.126333   -1.083170
     39          6           0        2.132645    0.895620    0.059742
     40          6           0       -1.651083    0.134050   -0.076798
     41          6           0        0.722522    1.036303    0.263802
     42          6           0       -0.099110   -0.016509   -0.064806
     43          1           0       13.479187   -0.544884    1.350706
     44          1           0       13.131618   -2.355363    1.759208
     45          1           0      -14.372359   -0.665137    1.453843
     46          1           0      -14.121435   -0.562448   -0.445561
     47          1           0       12.643028   -2.776423   -0.705461
     48          1           0      -13.112923    1.438803    1.665313
     49          1           0       13.929325   -0.223517   -1.243980
     50          1           0       13.098005   -1.328097   -2.459796
     51          1           0      -13.238654    1.546881   -1.420779
     52          1           0      -12.562566    2.844323   -0.158694
     53          1           0       11.763865   -1.045915    3.142537
     54          1           0       10.068961   -0.564156    3.061986
     55          1           0       11.447846    0.560357    2.634899
     56          1           0       10.660241   -2.942501    0.310105
     57          1           0       10.711680   -3.175380    2.158986
     58          1           0        9.552195   -2.443330    1.243224
     59          1           0      -12.084954    0.234779    2.418371
     60          1           0      -11.111112   -1.481403    2.306320
     61          1           0      -12.723024   -1.433965    2.774233
     62          1           0      -13.424389   -3.028781    0.844436
     63          1           0      -11.770010   -3.182750    0.499829
     64          1           0      -12.616068   -2.460644   -0.667880
     65          1           0        8.736864   -0.189084    0.877153
     66          1           0      -10.245764   -2.213943   -0.548855
     67          1           0       10.137395    0.640188   -2.417055
     68          1           0       11.634948    1.625775   -2.591270
     69          1           0       11.867019    0.197798   -3.320701
     70          1           0      -11.161480    1.937240   -2.357816
     71          1           0       -9.866018    1.074397   -2.363435
     72          1           0      -10.141773    2.555602   -1.496816
     73          1           0       14.704266   -3.164982    0.068915
     74          1           0      -15.434543    1.682083    1.130158
     75          1           0       10.193484    2.214923   -0.751517
     76          1           0       -8.589734    0.553866   -0.019942
     77          1           0        9.100638    4.294449   -0.094783
     78          1           0        7.361797    4.220767    0.329464
     79          1           0        8.596290    3.830703    1.610855
     80          1           0       -8.364204   -3.214787   -0.105513
     81          1           0       -8.137802   -2.800099   -1.852315
     82          1           0       -6.609747   -3.258517   -0.937470
     83          1           0        6.943324    0.630706   -0.519144
     84          1           0       -6.222766    0.276830    0.070549
     85          1           0        5.460457    3.267899    0.498809
     86          1           0       -5.026514   -2.231196   -0.749741
     87          1           0        4.505627    0.548731   -0.483386
     88          1           0       -4.099346    0.631146    0.201038
     89          1           0        3.461407    3.460175    1.678586
     90          1           0        1.758424    3.289873    1.210580
     91          1           0        3.010640    4.034583    0.068385
     92          1           0       -2.390098   -3.076699   -0.224185
     93          1           0       -3.249269   -2.427217   -1.848452
     94          1           0       -1.400178   -2.264182   -1.753827
     95          1           0        2.502705   -0.049408   -0.217864
     96          1           0       -1.861169    0.941896    0.478742
     97          1           0        0.177219    1.870767    0.564194
     98          1           0        0.206898   -1.195952   -0.327923
 ---------------------------------------------------------------------

 SCF Done:  E(RCAM-B3LYP) =  -1706.91080118     A.U. after   13 cycles

 Excitation energies and oscillator strengths:

 Excited State   1:      Singlet-A      3.1476 eV  393.90 nm  f=3.4552  <S**2>=0.000
     155 ->158        -0.18765
     156 ->157         0.66574
 This state for optimization and/or second-order correction.
 Total Energy, E(TD-HF/TD-DFT) =  -1706.79512950
 Copying the excited state density for this state as the 1-particle RhoCI density.

 The electronic state is 1-A.
 Alpha  occ. eigenvalues --  -19.21670 -19.20795 -10.31706 -10.29996 -10.29265
 Alpha  occ. eigenvalues --  -10.28565 -10.28407 -10.27890 -10.27496 -10.27479
 Alpha  occ. eigenvalues --  -10.27464 -10.27392 -10.27151 -10.26749 -10.26735
 Alpha  occ. eigenvalues --  -10.26719 -10.26667 -10.26624 -10.26624 -10.26572
 Alpha  occ. eigenvalues --  -10.26503 -10.26431 -10.26429 -10.26393 -10.26246
 Alpha  occ. eigenvalues --  -10.26203 -10.26163 -10.26117 -10.26096 -10.26003
 Alpha  occ. eigenvalues --  -10.25996 -10.25907 -10.25883 -10.25714 -10.25562
 Alpha  occ. eigenvalues --  -10.25555 -10.25167 -10.24541 -10.24468 -10.23772
 Alpha  occ. eigenvalues --  -10.23646 -10.22961  -1.10627  -1.09450  -0.94033
 Alpha  occ. eigenvalues --   -0.93373  -0.91909  -0.91696  -0.90462  -0.89764
 Alpha  occ. eigenvalues --   -0.87992  -0.87524  -0.86981  -0.85719  -0.85024
 Alpha  occ. eigenvalues --   -0.83337  -0.82193  -0.80722  -0.79899  -0.77486
 Alpha  occ. eigenvalues --   -0.77373  -0.76892  -0.76227  -0.75938  -0.75816
 Alpha  occ. eigenvalues --   -0.75506  -0.74954  -0.74897  -0.74102  -0.70138
 Alpha  occ. eigenvalues --   -0.69008  -0.67210  -0.65330  -0.64506  -0.64012
 Alpha  occ. eigenvalues --   -0.63290  -0.62470  -0.61539  -0.61130  -0.60128
 Alpha  occ. eigenvalues --   -0.59733  -0.58970  -0.58596  -0.57748  -0.56457
 Alpha  occ. eigenvalues --   -0.56092  -0.55309  -0.55186  -0.54149  -0.53845
 Alpha  occ. eigenvalues --   -0.53508  -0.52842  -0.52552  -0.51842  -0.51293
 Alpha  occ. eigenvalues --   -0.50586  -0.50214  -0.49735  -0.49664  -0.49534
 Alpha  occ. eigenvalues --   -0.49209  -0.48851  -0.48512  -0.48167  -0.47894
 Alpha  occ. eigenvalues --   -0.47264  -0.47066  -0.46871  -0.46650  -0.46552
 Alpha  occ. eigenvalues --   -0.46202  -0.46130  -0.45287  -0.44970  -0.44678
 Alpha  occ. eigenvalues --   -0.44598  -0.44493  -0.43859  -0.43549  -0.43413
 Alpha  occ. eigenvalues --   -0.43085  -0.42937  -0.42428  -0.42087  -0.41909
 Alpha  occ. eigenvalues --   -0.41782  -0.41735  -0.41103  -0.40417  -0.40269
 Alpha  occ. eigenvalues --   -0.40195  -0.39634  -0.39540  -0.39267  -0.39092
 Alpha  occ. eigenvalues --   -0.38698  -0.38530  -0.38339  -0.38250  -0.37787
 Alpha  occ. eigenvalues --   -0.37481  -0.37111  -0.36702  -0.36189  -0.35728
 Alpha  occ. eigenvalues --   -0.35240  -0.34988  -0.33210  -0.32817  -0.32009
 Alpha  occ. eigenvalues --   -0.31733  -0.30003  -0.27950  -0.25823  -0.24237
 Alpha  occ. eigenvalues --   -0.21889
 Alpha virt. eigenvalues --   -0.03221  -0.00032   0.02311   0.05431   0.07878
 Alpha virt. eigenvalues --    0.09473   0.10856   0.11614   0.11748   0.12020
 Alpha virt. eigenvalues --    0.12310   0.12939   0.13084   0.13197   0.13497

 Mulliken charges:
               1
     1  O   -0.546327
     2  O   -0.554080
     3  C    0.018215
     4  C   -0.030790
     5  C   -0.185125
     6  C   -0.170126
     7  C    0.168316
     8  C    0.160961
     9  C    0.066337
    10  C    0.027697
    11  C   -0.212094
    12  C   -0.224949
    13  C    0.057040
    14  C    0.063521
    15  C   -0.317211
    16  C   -0.277312
    17  C   -0.263642
    18  C   -0.326308
    19  C   -0.121006
    20  C   -0.153995
    21  C   -0.376965
    22  C   -0.342375
    23  C   -0.125825
    24  C   -0.071550
    25  C    0.074880
    26  C    0.135611
    27  C   -0.349858
    28  C   -0.369181
    29  C   -0.120598
    30  C   -0.122682
    31  C   -0.086598
    32  C   -0.088547
    33  C   -0.073039
    34  C   -0.116756
    35  C    0.080065
    36  C    0.141182
    37  C   -0.366203
    38  C   -0.369291
    39  C   -0.116430
    40  C   -0.143913
    41  C   -0.085809
    42  C   -0.094456
    43  H    0.050535
    44  H    0.084059
    45  H    0.087134
    46  H    0.080624
    47  H    0.094424
    48  H    0.043613
    49  H    0.123661
    50  H    0.066017
    51  H    0.109492
    52  H    0.126960
    53  H    0.108468
    54  H    0.103341
    55  H    0.091983
    56  H    0.104447
    57  H    0.070238
    58  H    0.097803
    59  H    0.079280
    60  H    0.110356
    61  H    0.093821
    62  H    0.079383
    63  H    0.098672
    64  H    0.114572
    65  H    0.100579
    66  H    0.093103
    67  H    0.126545
    68  H    0.116359
    69  H    0.095082
    70  H    0.120948
    71  H    0.127520
    72  H    0.089646
    73  H    0.295979
    74  H    0.310595
    75  H    0.114329
    76  H    0.094506
    77  H    0.112233
    78  H    0.115452
    79  H    0.084229
    80  H    0.103875
    81  H    0.128758
    82  H    0.095928
    83  H    0.068731
    84  H    0.064788
    85  H    0.086711
    86  H    0.073890
    87  H    0.079354
    88  H    0.095320
    89  H    0.094803
    90  H    0.119286
    91  H    0.133096
    92  H    0.095108
    93  H    0.099222
    94  H    0.123990
    95  H    0.083107
    96  H    0.079757
    97  H    0.092775
    98  H    0.074730
 Sum of Mulliken charges =  -0.00000

 Dipole moment (field-independent basis, Debye):
    X=             -1.3427    Y=             -1.3025    Z=              1.1447  Tot=              2.1931
 Quadrupole moment (field-independent basis, Debye-Ang):
   XX=           -289.8416   YY=           -242.6426   ZZ=           -261.2811
   XY=              5.8593   XZ=             -5.3810   YZ=              1.4861

 Normal termination of Gaussian 16 at Sun Jun 30 00:59:41 2019.
