 Gaussian 16, Revision A.03,
 Gaussian 16:  ES64L-G16RevA.03 25-Dec-2016

 -------------------------------------
 # td=(NStates=1) CAM-B3LYP/6-31G(d,p)
 -------------------------------------

 --
 TD
 --
 Symbolic Z-matrix:
 Charge =  0 Multiplicity = 1

                         Standard orientation:
 ---------------------------------------------------------------------
 Center     Atomic      Atomic             Coordinates (Angstroms)
 Number     Number       Type             X           Y           Z
 ---------------------------------------------------------------------
      1          8           0       14.719665   -2.312790   -0.223820
      2          8           0      -14.825994    1.959459    0.946742
      3          6           0       11.552208   -1.204707    1.289615
      4          6           0      -12.354254   -0.945398    0.917747
      5          6           0       13.022325   -1.469297    1.281286
      6          6           0      -13.756640   -0.265313    0.943672
      7          6           0       13.382341   -1.958920   -0.145020
      8          6           0      -13.442546    1.267081    0.882687
      9          6           0       10.970956   -0.366171   -0.004332
     10          6           0      -11.466584   -0.338769   -0.121101
     11          6           0       13.081098   -0.841912   -1.216281
     12          6           0      -12.912880    1.628041   -0.413429
     13          6           0       11.727828   -0.284662   -1.143635
     14          6           0      -11.639771    0.867481   -0.658998
     15          6           0       11.170818   -0.331402    2.534632
     16          6           0       10.648890   -2.466509    1.236487
     17          6           0      -11.740459   -0.945733    2.302770
     18          6           0      -12.597561   -2.374110    0.426836
     19          6           0        9.703435    0.334627    0.225025
     20          6           0      -10.201206   -1.028342   -0.473922
     21          6           0       11.360500    0.529339   -2.361270
     22          6           0      -10.903153    1.369680   -1.993110
     23          6           0        9.301617    1.609578   -0.201150
     24          6           0       -8.865718   -0.542768   -0.366215
     25          6           0        8.071382    2.292984    0.009699
     26          6           0       -7.630265   -1.239153   -0.488131
     27          6           0        8.337983    3.768649    0.469399
     28          6           0       -7.652939   -2.726791   -0.932497
     29          6           0        6.931766    1.677640   -0.049377
     30          6           0       -6.496211   -0.493702   -0.409806
     31          6           0        5.588916    2.128421    0.061839
     32          6           0       -5.138777   -1.069402   -0.516720
     33          6           0        4.511560    1.215847    0.022488
     34          6           0       -4.026463   -0.394510   -0.383488
     35          6           0        3.098756    1.666200    0.164358
     36          6           0       -2.605801   -0.782075   -0.702821
     37          6           0        2.818301    3.085888    0.570594
     38          6           0       -2.341581   -2.176667   -1.095602
     39          6           0        2.096929    0.773013   -0.066046
     40          6           0       -1.596830    0.120020   -0.407863
     41          6           0        0.658603    0.979802   -0.198428
     42          6           0       -0.202006   -0.010082   -0.533589
     43          1           0       13.479398   -0.613409    1.398146
     44          1           0       13.253088   -2.174192    1.912488
     45          1           0      -14.359645   -0.399278    1.727237
     46          1           0      -14.248112   -0.536738    0.089832
     47          1           0       12.692776   -2.843328   -0.356535
     48          1           0      -12.786360    1.856289    1.627507
     49          1           0       13.833971   -0.154775   -1.383371
     50          1           0       13.026166   -1.202491   -2.140213
     51          1           0      -13.777816    1.284855   -1.123864
     52          1           0      -12.861571    2.749229   -0.584590
     53          1           0       11.490791   -0.906288    3.437972
     54          1           0       10.036828   -0.177025    2.696123
     55          1           0       11.775093    0.502070    2.498940
     56          1           0       10.886424   -2.887001    0.392243
     57          1           0       10.858094   -2.950518    2.101007
     58          1           0        9.635414   -2.147462    1.106626
     59          1           0      -11.803406   -0.009025    2.894183
     60          1           0      -10.753847   -1.117461    2.455713
     61          1           0      -12.261190   -1.477623    2.957144
     62          1           0      -13.396646   -2.712361    0.915957
     63          1           0      -11.770884   -3.155836    0.439750
     64          1           0      -12.923973   -2.335356   -0.721837
     65          1           0        8.888855   -0.073492    0.910070
     66          1           0      -10.228551   -2.126469   -0.661255
     67          1           0       10.166575    0.677998   -2.388906
     68          1           0       11.647922    1.680985   -2.038884
     69          1           0       11.768995   -0.066475   -3.249117
     70          1           0      -11.550198    1.466417   -2.811056
     71          1           0      -10.051853    0.728865   -2.117507
     72          1           0      -10.547773    2.351469   -1.602670
     73          1           0       15.044036   -3.159030    0.132740
     74          1           0      -15.063766    1.892162    1.799136
     75          1           0       10.154851    2.168043   -0.660548
     76          1           0       -8.887070    0.539948   -0.349359
     77          1           0        9.079429    4.322470   -0.272013
     78          1           0        7.394631    4.178164    0.287492
     79          1           0        8.696782    3.912265    1.490305
     80          1           0       -8.227951   -3.277666   -0.212764
     81          1           0       -8.254623   -2.734247   -1.923348
     82          1           0       -6.659463   -3.101474   -1.090407
     83          1           0        7.010786    0.716073   -0.439553
     84          1           0       -6.515195    0.541333   -0.103504
     85          1           0        5.542061    3.219683    0.380865
     86          1           0       -5.084068   -2.049631   -0.966363
     87          1           0        4.686031    0.365481   -0.344184
     88          1           0       -3.925350    0.608986    0.070410
     89          1           0        3.496837    3.325522    1.430922
     90          1           0        1.810189    3.152298    1.006684
     91          1           0        3.092486    3.992935   -0.249098
     92          1           0       -2.558106   -2.816497   -0.312218
     93          1           0       -2.628993   -2.479408   -2.140814
     94          1           0       -1.213315   -2.234901   -1.055914
     95          1           0        2.476356   -0.221410   -0.475086
     96          1           0       -1.960454    1.254432    0.027766
     97          1           0        0.145210    2.003723   -0.102045
     98          1           0        0.293335   -0.871570   -0.831429
 ---------------------------------------------------------------------

 SCF Done:  E(RCAM-B3LYP) =  -1706.97594598     A.U. after   14 cycles

 Excitation energies and oscillator strengths:

 Excited State   1:      Singlet-A      2.7804 eV  445.92 nm  f=3.7039  <S**2>=0.000
     155 ->158         0.18819
     156 ->157         0.67257
 This state for optimization and/or second-order correction.
 Total Energy, E(TD-HF/TD-DFT) =  -1706.87376681
 Copying the excited state density for this state as the 1-particle RhoCI density.

 The electronic state is 1-A.
 Alpha  occ. eigenvalues --  -19.20835 -19.18858 -10.31196 -10.30599 -10.27959
 Alpha  occ. eigenvalues --  -10.27822 -10.27702 -10.27654 -10.27459 -10.27374
 Alpha  occ. eigenvalues --  -10.27312 -10.27263 -10.27024 -10.26915 -10.26686
 Alpha  occ. eigenvalues --  -10.26659 -10.26563 -10.26553 -10.26237 -10.26195
 Alpha  occ. eigenvalues --  -10.26131 -10.26067 -10.26058 -10.26037 -10.25964
 Alpha  occ. eigenvalues --  -10.25894 -10.25870 -10.25856 -10.25689 -10.25662
 Alpha  occ. eigenvalues --  -10.25631 -10.25338 -10.24990 -10.24900 -10.24425
 Alpha  occ. eigenvalues --  -10.24420 -10.24254 -10.23919 -10.23471 -10.22620
 Alpha  occ. eigenvalues --  -10.22178 -10.21628  -1.09571  -1.07096  -0.94454
 Alpha  occ. eigenvalues --   -0.93006  -0.92041  -0.91643  -0.90726  -0.89761
 Alpha  occ. eigenvalues --   -0.87723  -0.87326  -0.87070  -0.85398  -0.84683
 Alpha  occ. eigenvalues --   -0.83274  -0.82297  -0.79644  -0.79194  -0.78111
 Alpha  occ. eigenvalues --   -0.77744  -0.77266  -0.76804  -0.76536  -0.76208
 Alpha  occ. eigenvalues --   -0.75973  -0.75596  -0.74857  -0.73855  -0.70456
 Alpha  occ. eigenvalues --   -0.69001  -0.67865  -0.66347  -0.65516  -0.64280
 Alpha  occ. eigenvalues --   -0.63493  -0.61856  -0.61816  -0.61004  -0.60047
 Alpha  occ. eigenvalues --   -0.59694  -0.59327  -0.57913  -0.57390  -0.55932
 Alpha  occ. eigenvalues --   -0.55656  -0.55397  -0.54884  -0.54286  -0.54224
 Alpha  occ. eigenvalues --   -0.53507  -0.52755  -0.51933  -0.51538  -0.51224
 Alpha  occ. eigenvalues --   -0.50482  -0.50461  -0.50181  -0.49979  -0.49424
 Alpha  occ. eigenvalues --   -0.48893  -0.48740  -0.48606  -0.48222  -0.48100
 Alpha  occ. eigenvalues --   -0.47844  -0.47798  -0.47431  -0.47089  -0.46641
 Alpha  occ. eigenvalues --   -0.46210  -0.45825  -0.45809  -0.45366  -0.45188
 Alpha  occ. eigenvalues --   -0.44931  -0.44633  -0.44022  -0.43926  -0.43751
 Alpha  occ. eigenvalues --   -0.43679  -0.43405  -0.42779  -0.42619  -0.42109
 Alpha  occ. eigenvalues --   -0.41642  -0.41347  -0.41054  -0.40991  -0.40879
 Alpha  occ. eigenvalues --   -0.40743  -0.40670  -0.40117  -0.39502  -0.39101
 Alpha  occ. eigenvalues --   -0.38989  -0.38645  -0.38423  -0.38272  -0.38172
 Alpha  occ. eigenvalues --   -0.37703  -0.37390  -0.36342  -0.36265  -0.35618
 Alpha  occ. eigenvalues --   -0.35272  -0.34642  -0.33258  -0.31772  -0.31659
 Alpha  occ. eigenvalues --   -0.30923  -0.29947  -0.28325  -0.25849  -0.23730
 Alpha  occ. eigenvalues --   -0.21112
 Alpha virt. eigenvalues --   -0.04321  -0.00624   0.02270   0.05444   0.07691
 Alpha virt. eigenvalues --    0.09595   0.11198   0.11686   0.12300   0.12478
 Alpha virt. eigenvalues --    0.13084   0.13525   0.13818   0.13911   0.14099

 Mulliken charges:
               1
     1  O   -0.579957
     2  O   -0.574417
     3  C   -0.044884
     4  C   -0.009707
     5  C   -0.132303
     6  C   -0.156055
     7  C    0.168049
     8  C    0.101496
     9  C    0.038849
    10  C    0.096536
    11  C   -0.203070
    12  C   -0.194629
    13  C    0.031162
    14  C   -0.009410
    15  C   -0.298546
    16  C   -0.279398
    17  C   -0.307474
    18  C   -0.307992
    19  C   -0.115185
    20  C   -0.170417
    21  C   -0.355768
    22  C   -0.337180
    23  C   -0.128294
    24  C   -0.094862
    25  C    0.069077
    26  C    0.107680
    27  C   -0.354399
    28  C   -0.361537
    29  C   -0.100480
    30  C   -0.119048
    31  C   -0.092195
    32  C   -0.103619
    33  C   -0.089695
    34  C   -0.087077
    35  C    0.123632
    36  C    0.095494
    37  C   -0.366225
    38  C   -0.380791
    39  C   -0.152813
    40  C   -0.134492
    41  C   -0.088953
    42  C   -0.056433
    43  H    0.105701
    44  H    0.085324
    45  H    0.092415
    46  H    0.117470
    47  H    0.066089
    48  H    0.095700
    49  H    0.126077
    50  H    0.106190
    51  H    0.106358
    52  H    0.099754
    53  H    0.078899
    54  H    0.096201
    55  H    0.110947
    56  H    0.105275
    57  H    0.095961
    58  H    0.102090
    59  H    0.085692
    60  H    0.119768
    61  H    0.106270
    62  H    0.109064
    63  H    0.101241
    64  H    0.084770
    65  H    0.079843
    66  H    0.070809
    67  H    0.114598
    68  H    0.110976
    69  H    0.102304
    70  H    0.122896
    71  H    0.117185
    72  H    0.104548
    73  H    0.310963
    74  H    0.287987
    75  H    0.070145
    76  H    0.083135
    77  H    0.099736
    78  H    0.113269
    79  H    0.134303
    80  H    0.128157
    81  H    0.117073
    82  H    0.114304
    83  H    0.078849
    84  H    0.088849
    85  H    0.083545
    86  H    0.079211
    87  H    0.069730
    88  H    0.069735
    89  H    0.116414
    90  H    0.115227
    91  H    0.099080
    92  H    0.138576
    93  H    0.123048
    94  H    0.097707
    95  H    0.076983
    96  H    0.064055
    97  H    0.087136
    98  H    0.087698
 Sum of Mulliken charges =  -0.00000

 Dipole moment (field-independent basis, Debye):
    X=              1.7306    Y=             -2.1753    Z=              1.5665  Tot=              3.1908
 Quadrupole moment (field-independent basis, Debye-Ang):
   XX=           -271.4754   YY=           -243.3739   ZZ=           -257.5344
   XY=              6.8870   XZ=            -10.2666   YZ=              3.3078

 Normal termination of Gaussian 16 at Tue Jul  2 18:12:37 2019.
