 Gaussian 16, Revision A.03,
 Gaussian 16:  ES64L-G16RevA.03 25-Dec-2016

 -------------------------------------
 # td=(NStates=1) CAM-B3LYP/6-31G(d,p)
 -------------------------------------

 --
 TD
 --
 Symbolic Z-matrix:
 Charge =  0 Multiplicity = 1

                         Standard orientation:
 ---------------------------------------------------------------------
 Center     Atomic      Atomic             Coordinates (Angstroms)
 Number     Number       Type             X           Y           Z
 ---------------------------------------------------------------------
      1          8           0       14.762248   -2.131150   -0.576859
      2          8           0      -14.635056    2.258102    0.733117
      3          6           0       11.491582   -1.064722    1.089672
      4          6           0      -12.383558   -0.982460    0.745115
      5          6           0       13.056373   -1.387867    1.011266
      6          6           0      -13.721633   -0.083424    0.732137
      7          6           0       13.524827   -1.832462   -0.317272
      8          6           0      -13.492824    1.475472    0.639275
      9          6           0       10.949647   -0.243958   -0.034411
     10          6           0      -11.348612   -0.246693   -0.165331
     11          6           0       13.118229   -0.651135   -1.251827
     12          6           0      -12.792524    1.774400   -0.603969
     13          6           0       11.708777   -0.072404   -1.112861
     14          6           0      -11.591862    0.896861   -0.819650
     15          6           0       11.368653   -0.345033    2.477010
     16          6           0       10.703714   -2.497556    1.178285
     17          6           0      -11.791962   -1.096481    2.202744
     18          6           0      -12.749502   -2.369009    0.340352
     19          6           0        9.633847    0.343146    0.249630
     20          6           0      -10.174029   -1.134094   -0.480319
     21          6           0       11.341835    0.722173   -2.307494
     22          6           0      -10.595256    1.460387   -1.729795
     23          6           0        9.362078    1.675821   -0.277990
     24          6           0       -8.911760   -0.601143   -0.343266
     25          6           0        8.064508    2.219655    0.073333
     26          6           0       -7.590428   -1.193679   -0.603242
     27          6           0        7.959791    3.664008    0.514495
     28          6           0       -7.772881   -2.676549   -1.010038
     29          6           0        6.863682    1.456573   -0.017633
     30          6           0       -6.439329   -0.465108   -0.489328
     31          6           0        5.616289    1.872383    0.299425
     32          6           0       -5.225453   -1.057879   -0.449054
     33          6           0        4.449923    1.197800   -0.000905
     34          6           0       -4.064331   -0.418623   -0.211656
     35          6           0        2.983665    1.525866    0.161839
     36          6           0       -2.717277   -0.929967   -0.334987
     37          6           0        2.712091    3.034846    0.509082
     38          6           0       -2.310243   -2.263594   -0.745001
     39          6           0        2.142899    0.524527   -0.015263
     40          6           0       -1.670266   -0.063104   -0.066426
     41          6           0        0.711015    0.686724    0.236109
     42          6           0       -0.197697   -0.176931   -0.110243
     43          1           0       13.639719   -0.425122    1.205698
     44          1           0       13.517441   -2.186979    1.578481
     45          1           0      -14.182337   -0.440861    1.815875
     46          1           0      -14.318270   -0.238475   -0.251385
     47          1           0       12.859279   -2.663194   -0.541407
     48          1           0      -12.802726    1.726745    1.709736
     49          1           0       13.909120    0.186209   -1.050352
     50          1           0       13.242630   -0.868230   -2.342571
     51          1           0      -13.540613    1.875188   -1.426157
     52          1           0      -12.708543    2.677147   -0.498424
     53          1           0       11.601267   -0.978305    3.469599
     54          1           0       10.317016   -0.120651    2.561260
     55          1           0       12.032401    0.534370    2.405551
     56          1           0       10.741580   -3.093075    0.437840
     57          1           0       11.090798   -3.082720    2.081171
     58          1           0        9.598281   -2.281382    1.264831
     59          1           0      -11.712736   -0.251585    2.600598
     60          1           0      -10.787017   -1.601394    2.243055
     61          1           0      -12.279237   -1.764513    2.803064
     62          1           0      -13.556065   -2.963323    1.016667
     63          1           0      -11.941059   -3.042882    0.422510
     64          1           0      -12.759696   -2.461551   -0.766143
     65          1           0        8.808545   -0.084750    0.869731
     66          1           0      -10.674026   -2.219932   -0.747719
     67          1           0       10.272357    0.873404   -2.459782
     68          1           0       11.675427    1.959928   -2.122646
     69          1           0       11.690238    0.232884   -3.498747
     70          1           0      -11.105600    1.739448   -2.652686
     71          1           0       -9.706058    0.987453   -2.147708
     72          1           0      -10.315149    2.599474   -1.599829
     73          1           0       15.068105   -2.912464   -0.062476
     74          1           0      -15.135627    2.258974    1.697159
     75          1           0       10.145249    2.231046   -0.578253
     76          1           0       -9.088261    0.517377    0.006521
     77          1           0        8.629732    4.273130   -0.067906
     78          1           0        6.919164    4.171618    0.607542
     79          1           0        8.245262    3.665739    1.571976
     80          1           0       -8.402499   -3.289489   -0.164472
     81          1           0       -8.296144   -2.616825   -1.829792
     82          1           0       -6.968344   -3.386061   -1.155521
     83          1           0        7.025075    0.253188   -0.413556
     84          1           0       -6.605124    0.610672   -0.201046
     85          1           0        5.829653    2.860716    0.756527
     86          1           0       -5.095453   -2.104060   -0.724464
     87          1           0        4.630592    0.191882   -0.371778
     88          1           0       -4.327526    0.503471    0.277956
     89          1           0        3.511765    3.390282    1.256975
     90          1           0        1.678028    3.142818    0.945573
     91          1           0        2.867657    3.749512   -0.531357
     92          1           0       -2.810090   -2.892848   -0.010239
     93          1           0       -2.608035   -2.586485   -1.637444
     94          1           0       -1.296984   -2.590143   -0.635927
     95          1           0        2.479802   -0.429756   -0.390843
     96          1           0       -1.853670    0.789611    0.283292
     97          1           0        0.326333    1.686937    0.712747
     98          1           0        0.174850   -1.188370   -0.742211
 ---------------------------------------------------------------------

 SCF Done:  E(RCAM-B3LYP) =  -1706.82215683     A.U. after   14 cycles

 Excitation energies and oscillator strengths:

 Excited State   1:      Singlet-A      2.6692 eV  464.50 nm  f=3.6226  <S**2>=0.000
     155 ->158         0.23503
     156 ->157         0.65655
 This state for optimization and/or second-order correction.
 Total Energy, E(TD-HF/TD-DFT) =  -1706.72406466
 Copying the excited state density for this state as the 1-particle RhoCI density.

 The electronic state is 1-A.
 Alpha  occ. eigenvalues --  -19.22370 -19.22255 -10.31829 -10.28913 -10.28449
 Alpha  occ. eigenvalues --  -10.28361 -10.28241 -10.28012 -10.27795 -10.27794
 Alpha  occ. eigenvalues --  -10.27710 -10.27652 -10.27479 -10.27463 -10.27083
 Alpha  occ. eigenvalues --  -10.26971 -10.26862 -10.26736 -10.26647 -10.26521
 Alpha  occ. eigenvalues --  -10.26505 -10.26487 -10.26473 -10.26242 -10.26044
 Alpha  occ. eigenvalues --  -10.26031 -10.25970 -10.25852 -10.25636 -10.25561
 Alpha  occ. eigenvalues --  -10.25479 -10.25308 -10.25226 -10.25194 -10.25111
 Alpha  occ. eigenvalues --  -10.24918 -10.24479 -10.24336 -10.24251 -10.23721
 Alpha  occ. eigenvalues --  -10.23601 -10.22145  -1.13860  -1.08811  -0.93422
 Alpha  occ. eigenvalues --   -0.93311  -0.92278  -0.91307  -0.90456  -0.89564
 Alpha  occ. eigenvalues --   -0.87764  -0.86880  -0.86043  -0.85500  -0.84635
 Alpha  occ. eigenvalues --   -0.83545  -0.82786  -0.79749  -0.79636  -0.78222
 Alpha  occ. eigenvalues --   -0.77240  -0.77183  -0.76351  -0.76303  -0.75448
 Alpha  occ. eigenvalues --   -0.75163  -0.74783  -0.74221  -0.73693  -0.70203
 Alpha  occ. eigenvalues --   -0.69310  -0.66687  -0.65716  -0.65355  -0.64673
 Alpha  occ. eigenvalues --   -0.63628  -0.62756  -0.61324  -0.60394  -0.59971
 Alpha  occ. eigenvalues --   -0.59755  -0.58850  -0.57557  -0.57360  -0.56358
 Alpha  occ. eigenvalues --   -0.56148  -0.55636  -0.54799  -0.54524  -0.54071
 Alpha  occ. eigenvalues --   -0.53182  -0.52549  -0.51897  -0.51511  -0.51384
 Alpha  occ. eigenvalues --   -0.50856  -0.50249  -0.49964  -0.49490  -0.49260
 Alpha  occ. eigenvalues --   -0.48935  -0.48798  -0.48619  -0.47829  -0.47452
 Alpha  occ. eigenvalues --   -0.47262  -0.46959  -0.46684  -0.46465  -0.46143
 Alpha  occ. eigenvalues --   -0.45630  -0.45468  -0.45173  -0.44768  -0.44533
 Alpha  occ. eigenvalues --   -0.44344  -0.44021  -0.43744  -0.43640  -0.43359
 Alpha  occ. eigenvalues --   -0.43343  -0.42823  -0.42752  -0.42305  -0.42143
 Alpha  occ. eigenvalues --   -0.41815  -0.41220  -0.40653  -0.40480  -0.40345
 Alpha  occ. eigenvalues --   -0.39973  -0.39833  -0.39800  -0.39473  -0.39141
 Alpha  occ. eigenvalues --   -0.38904  -0.38450  -0.38347  -0.38123  -0.37784
 Alpha  occ. eigenvalues --   -0.37334  -0.37007  -0.36539  -0.36052  -0.35077
 Alpha  occ. eigenvalues --   -0.34506  -0.33988  -0.33256  -0.32267  -0.31347
 Alpha  occ. eigenvalues --   -0.30543  -0.29777  -0.28148  -0.26730  -0.22830
 Alpha  occ. eigenvalues --   -0.20474
 Alpha virt. eigenvalues --   -0.04095  -0.01570   0.02819   0.05746   0.07707
 Alpha virt. eigenvalues --    0.09106   0.09170   0.10286   0.11277   0.11672
 Alpha virt. eigenvalues --    0.11905   0.12046   0.12638   0.13129   0.13894

 Mulliken charges:
               1
     1  O   -0.521848
     2  O   -0.574540
     3  C   -0.041872
     4  C    0.006641
     5  C   -0.170392
     6  C   -0.177891
     7  C    0.188468
     8  C    0.197315
     9  C    0.109539
    10  C   -0.011467
    11  C   -0.223918
    12  C   -0.199094
    13  C    0.064762
    14  C    0.117711
    15  C   -0.284539
    16  C   -0.305530
    17  C   -0.300111
    18  C   -0.323805
    19  C   -0.128596
    20  C   -0.095414
    21  C   -0.351304
    22  C   -0.401970
    23  C   -0.099357
    24  C   -0.140611
    25  C    0.049468
    26  C    0.091462
    27  C   -0.385239
    28  C   -0.357566
    29  C   -0.103039
    30  C   -0.124597
    31  C   -0.049025
    32  C   -0.067387
    33  C   -0.146151
    34  C   -0.118534
    35  C    0.125142
    36  C    0.113947
    37  C   -0.343308
    38  C   -0.383339
    39  C   -0.121422
    40  C   -0.106186
    41  C   -0.089826
    42  C   -0.074527
    43  H    0.077518
    44  H    0.062770
    45  H    0.055462
    46  H    0.091187
    47  H    0.052196
    48  H    0.011426
    49  H    0.099600
    50  H    0.095649
    51  H    0.113596
    52  H    0.120603
    53  H    0.084773
    54  H    0.100640
    55  H    0.105694
    56  H    0.119193
    57  H    0.090834
    58  H    0.087266
    59  H    0.108412
    60  H    0.098247
    61  H    0.100545
    62  H    0.097818
    63  H    0.110290
    64  H    0.100300
    65  H    0.118006
    66  H    0.085607
    67  H    0.137334
    68  H    0.079544
    69  H    0.069390
    70  H    0.106573
    71  H    0.136518
    72  H    0.095244
    73  H    0.307203
    74  H    0.322169
    75  H    0.090708
    76  H    0.104733
    77  H    0.120180
    78  H    0.112672
    79  H    0.132350
    80  H    0.095352
    81  H    0.142836
    82  H    0.109710
    83  H    0.051668
    84  H    0.089143
    85  H    0.062827
    86  H    0.078219
    87  H    0.077177
    88  H    0.082210
    89  H    0.117574
    90  H    0.109430
    91  H    0.102910
    92  H    0.114914
    93  H    0.129049
    94  H    0.121969
    95  H    0.095735
    96  H    0.046981
    97  H    0.079207
    98  H    0.048793
 Sum of Mulliken charges =  -0.00000

 Dipole moment (field-independent basis, Debye):
    X=             -0.3743    Y=             -1.2872    Z=              1.8202  Tot=              2.2606
 Quadrupole moment (field-independent basis, Debye-Ang):
   XX=           -252.3804   YY=           -239.9362   ZZ=           -260.5883
   XY=             -2.1020   XZ=              1.0869   YZ=              3.0076

 Normal termination of Gaussian 16 at Thu Jul  4 05:02:26 2019.
