 Gaussian 16, Revision A.03,
 Gaussian 16:  ES64L-G16RevA.03 25-Dec-2016

 -------------------------------------
 # td=(NStates=1) CAM-B3LYP/6-31G(d,p)
 -------------------------------------

 --
 TD
 --
 Symbolic Z-matrix:
 Charge =  0 Multiplicity = 1

                         Standard orientation:
 ---------------------------------------------------------------------
 Center     Atomic      Atomic             Coordinates (Angstroms)
 Number     Number       Type             X           Y           Z
 ---------------------------------------------------------------------
      1          8           0       14.686869   -2.282781   -0.562540
      2          8           0      -14.722055    1.991963    0.596199
      3          6           0       11.516535   -1.104088    1.171652
      4          6           0      -12.327560   -0.905857    0.884157
      5          6           0       12.968006   -1.560826    0.945930
      6          6           0      -13.600737   -0.185551    0.746137
      7          6           0       13.323295   -2.016434   -0.454650
      8          6           0      -13.418822    1.307723    0.671030
      9          6           0       11.011702   -0.136351    0.083411
     10          6           0      -11.306717   -0.214506   -0.142198
     11          6           0       12.976463   -0.688974   -1.386214
     12          6           0      -12.836269    1.804147   -0.562637
     13          6           0       11.681977   -0.056791   -1.168679
     14          6           0      -11.513900    0.940689   -0.881870
     15          6           0       11.323579   -0.309485    2.524480
     16          6           0       10.576105   -2.287407    1.310519
     17          6           0      -11.606172   -0.877183    2.256669
     18          6           0      -12.550056   -2.303475    0.549779
     19          6           0        9.645045    0.326245    0.154418
     20          6           0      -10.088500   -1.077400   -0.457904
     21          6           0       11.082390    0.727584   -2.314590
     22          6           0      -10.628296    1.445248   -1.973674
     23          6           0        9.349344    1.642699   -0.139748
     24          6           0       -8.789833   -0.680830   -0.339794
     25          6           0        7.918139    2.158750    0.067190
     26          6           0       -7.570839   -1.371732   -0.627690
     27          6           0        7.945049    3.666129    0.524929
     28          6           0       -7.692898   -2.829711   -1.024294
     29          6           0        6.845201    1.425416   -0.095073
     30          6           0       -6.432146   -0.672316   -0.282020
     31          6           0        5.451922    1.869236    0.154064
     32          6           0       -5.141027   -1.171274   -0.535941
     33          6           0        4.435715    1.104042    0.028745
     34          6           0       -3.959334   -0.386717   -0.244550
     35          6           0        3.089810    1.605886    0.289086
     36          6           0       -2.553684   -0.810216   -0.299122
     37          6           0        2.806501    3.002412    0.631592
     38          6           0       -2.324179   -2.204896   -0.796544
     39          6           0        2.070666    0.794291    0.028888
     40          6           0       -1.699367    0.185082   -0.149162
     41          6           0        0.570496    0.900021    0.142632
     42          6           0       -0.357592   -0.000608   -0.265962
     43          1           0       13.596398   -0.521971    1.092310
     44          1           0       13.416398   -2.315625    1.694043
     45          1           0      -14.172639   -0.421971    1.737426
     46          1           0      -13.974940   -0.589796   -0.052974
     47          1           0       12.513347   -2.685648   -0.862266
     48          1           0      -12.727104    1.780121    1.607531
     49          1           0       13.802283   -0.037941   -1.245398
     50          1           0       13.275912   -0.949984   -2.433058
     51          1           0      -13.534067    1.691609   -1.347919
     52          1           0      -12.382051    2.927602   -0.472415
     53          1           0       11.646995   -1.057175    3.462855
     54          1           0       10.157363   -0.162024    2.571969
     55          1           0       11.917371    0.691782    2.628108
     56          1           0       10.432296   -3.085608    0.503834
     57          1           0       11.134462   -2.818648    2.161599
     58          1           0        9.412399   -1.998988    1.850594
     59          1           0      -11.445772    0.183966    2.477098
     60          1           0      -10.491849   -1.256486    2.183808
     61          1           0      -12.181849   -1.368677    2.997797
     62          1           0      -13.216747   -2.582250    1.310873
     63          1           0      -11.582896   -2.868817    0.607729
     64          1           0      -12.897088   -2.521437   -0.475497
     65          1           0        9.036304   -0.471846    0.910340
     66          1           0      -10.179099   -2.115295   -0.747823
     67          1           0       10.174394    1.226222   -2.336250
     68          1           0       11.814595    1.702409   -2.369746
     69          1           0       11.209060    0.291785   -3.272996
     70          1           0      -11.195432    1.591058   -2.851075
     71          1           0       -9.687347    0.724110   -2.121819
     72          1           0      -10.085735    2.462056   -1.911669
     73          1           0       14.840222   -3.000831    0.177137
     74          1           0      -15.077929    1.725139    1.493714
     75          1           0       10.215281    2.233828   -0.653527
     76          1           0       -8.619672    0.420970    0.120574
     77          1           0        8.639690    4.099284   -0.068501
     78          1           0        7.024691    4.169071    0.364148
     79          1           0        8.152418    3.923472    1.625100
     80          1           0       -8.395515   -3.483169   -0.322812
     81          1           0       -8.037502   -2.774696   -2.103983
     82          1           0       -6.680357   -3.392507   -1.048453
     83          1           0        7.022758    0.386656   -0.330872
     84          1           0       -6.591318    0.193306    0.381173
     85          1           0        5.406558    2.885976    0.711285
     86          1           0       -4.979720   -2.050643   -0.964064
     87          1           0        4.613216    0.163119   -0.567965
     88          1           0       -3.872309    0.623652    0.234739
     89          1           0        3.391778    3.039687    1.394270
     90          1           0        1.703740    3.278642    0.922902
     91          1           0        3.310007    3.673066   -0.111063
     92          1           0       -2.840630   -2.882343    0.038534
     93          1           0       -2.914353   -2.324678   -1.677413
     94          1           0       -1.300140   -2.246959   -1.038154
     95          1           0        2.153583   -0.192468   -0.305837
     96          1           0       -2.132942    1.097378    0.157920
     97          1           0        0.182941    1.908934    0.280293
     98          1           0        0.141957   -0.907707   -0.413382
 ---------------------------------------------------------------------

 SCF Done:  E(RCAM-B3LYP) =  -1706.93111262     A.U. after   14 cycles

 Excitation energies and oscillator strengths:

 Excited State   1:      Singlet-A      2.8252 eV  438.85 nm  f=3.4971  <S**2>=0.000
     155 ->158         0.14628
     156 ->157         0.68375
 This state for optimization and/or second-order correction.
 Total Energy, E(TD-HF/TD-DFT) =  -1706.82728925
 Copying the excited state density for this state as the 1-particle RhoCI density.

 The electronic state is 1-A.
 Alpha  occ. eigenvalues --  -19.23761 -19.21075 -10.31787 -10.31164 -10.28702
 Alpha  occ. eigenvalues --  -10.28048 -10.27834 -10.27714 -10.27614 -10.27466
 Alpha  occ. eigenvalues --  -10.27349 -10.27321 -10.27204 -10.27021 -10.26932
 Alpha  occ. eigenvalues --  -10.26878 -10.26706 -10.26664 -10.26349 -10.26203
 Alpha  occ. eigenvalues --  -10.26062 -10.26056 -10.26052 -10.26028 -10.25988
 Alpha  occ. eigenvalues --  -10.25859 -10.25832 -10.25717 -10.25599 -10.25476
 Alpha  occ. eigenvalues --  -10.25339 -10.25278 -10.25157 -10.25097 -10.25010
 Alpha  occ. eigenvalues --  -10.25000 -10.24932 -10.24835 -10.24817 -10.24717
 Alpha  occ. eigenvalues --  -10.24651 -10.23933  -1.10670  -1.07782  -0.93923
 Alpha  occ. eigenvalues --   -0.93403  -0.93108  -0.92329  -0.90789  -0.89481
 Alpha  occ. eigenvalues --   -0.87304  -0.87037  -0.86735  -0.85195  -0.84524
 Alpha  occ. eigenvalues --   -0.83047  -0.82105  -0.79590  -0.79355  -0.78859
 Alpha  occ. eigenvalues --   -0.77122  -0.76744  -0.76653  -0.76164  -0.76114
 Alpha  occ. eigenvalues --   -0.75367  -0.74494  -0.73808  -0.73565  -0.70521
 Alpha  occ. eigenvalues --   -0.68420  -0.66395  -0.64904  -0.63859  -0.63529
 Alpha  occ. eigenvalues --   -0.63066  -0.62421  -0.62151  -0.60376  -0.59603
 Alpha  occ. eigenvalues --   -0.58946  -0.58222  -0.57864  -0.57585  -0.56414
 Alpha  occ. eigenvalues --   -0.55701  -0.55269  -0.54692  -0.54356  -0.53719
 Alpha  occ. eigenvalues --   -0.52907  -0.52647  -0.52138  -0.51885  -0.50998
 Alpha  occ. eigenvalues --   -0.50439  -0.50096  -0.49757  -0.49554  -0.49398
 Alpha  occ. eigenvalues --   -0.49140  -0.48548  -0.48072  -0.48013  -0.47494
 Alpha  occ. eigenvalues --   -0.47324  -0.47283  -0.47036  -0.46794  -0.46672
 Alpha  occ. eigenvalues --   -0.46331  -0.46027  -0.45875  -0.45327  -0.44808
 Alpha  occ. eigenvalues --   -0.44435  -0.44382  -0.44070  -0.43841  -0.43218
 Alpha  occ. eigenvalues --   -0.42913  -0.42697  -0.42389  -0.42029  -0.41797
 Alpha  occ. eigenvalues --   -0.41557  -0.41379  -0.41175  -0.41058  -0.40898
 Alpha  occ. eigenvalues --   -0.40675  -0.40386  -0.39549  -0.39428  -0.39222
 Alpha  occ. eigenvalues --   -0.39095  -0.38794  -0.38395  -0.37936  -0.37716
 Alpha  occ. eigenvalues --   -0.37658  -0.37300  -0.36934  -0.36494  -0.35102
 Alpha  occ. eigenvalues --   -0.34686  -0.34174  -0.33427  -0.33282  -0.32451
 Alpha  occ. eigenvalues --   -0.31904  -0.29586  -0.28035  -0.25774  -0.23713
 Alpha  occ. eigenvalues --   -0.20662
 Alpha virt. eigenvalues --   -0.03869   0.00158   0.02728   0.05974   0.07671
 Alpha virt. eigenvalues --    0.09251   0.09599   0.10492   0.11010   0.11220
 Alpha virt. eigenvalues --    0.12333   0.13010   0.13259   0.13550   0.13719

 Mulliken charges:
               1
     1  O   -0.543990
     2  O   -0.557876
     3  C   -0.033313
     4  C   -0.014416
     5  C   -0.184281
     6  C   -0.145758
     7  C    0.179699
     8  C    0.145282
     9  C    0.053615
    10  C    0.022533
    11  C   -0.267189
    12  C   -0.192622
    13  C    0.087933
    14  C    0.046706
    15  C   -0.266142
    16  C   -0.276087
    17  C   -0.299726
    18  C   -0.290231
    19  C   -0.085770
    20  C   -0.173034
    21  C   -0.369032
    22  C   -0.366234
    23  C   -0.147921
    24  C   -0.095161
    25  C    0.058603
    26  C    0.118022
    27  C   -0.362597
    28  C   -0.368489
    29  C   -0.110554
    30  C   -0.110651
    31  C   -0.089925
    32  C   -0.103661
    33  C   -0.088252
    34  C   -0.119544
    35  C    0.097684
    36  C    0.105337
    37  C   -0.361676
    38  C   -0.358650
    39  C   -0.131527
    40  C   -0.098874
    41  C   -0.109334
    42  C   -0.087074
    43  H    0.090224
    44  H    0.064665
    45  H    0.067136
    46  H    0.112442
    47  H    0.086279
    48  H    0.061533
    49  H    0.127620
    50  H    0.101517
    51  H    0.128130
    52  H    0.098207
    53  H    0.067260
    54  H    0.097681
    55  H    0.104653
    56  H    0.110713
    57  H    0.095680
    58  H    0.067022
    59  H    0.102424
    60  H    0.106235
    61  H    0.098572
    62  H    0.101599
    63  H    0.095602
    64  H    0.100217
    65  H    0.074746
    66  H    0.083467
    67  H    0.139627
    68  H    0.079953
    69  H    0.114349
    70  H    0.117834
    71  H    0.110594
    72  H    0.099764
    73  H    0.313983
    74  H    0.297490
    75  H    0.108091
    76  H    0.068309
    77  H    0.122060
    78  H    0.108738
    79  H    0.112480
    80  H    0.117869
    81  H    0.125517
    82  H    0.102651
    83  H    0.082139
    84  H    0.097048
    85  H    0.078606
    86  H    0.073589
    87  H    0.095575
    88  H    0.069867
    89  H    0.136604
    90  H    0.109924
    91  H    0.119194
    92  H    0.113881
    93  H    0.132943
    94  H    0.112222
    95  H    0.058220
    96  H    0.088458
    97  H    0.060479
    98  H    0.082493
 Sum of Mulliken charges =  -0.00000

 Dipole moment (field-independent basis, Debye):
    X=              2.1023    Y=             -2.0987    Z=              1.6051  Tot=              3.3764
 Quadrupole moment (field-independent basis, Debye-Ang):
   XX=           -274.1076   YY=           -246.8660   ZZ=           -260.0513
   XY=             11.8428   XZ=             -2.9972   YZ=              1.2628

 Normal termination of Gaussian 16 at Sat Jul  6 17:25:50 2019.
