 Gaussian 16, Revision A.03,
 Gaussian 16:  ES64L-G16RevA.03 25-Dec-2016

 -------------------------------------
 # td=(NStates=1) CAM-B3LYP/6-31G(d,p)
 -------------------------------------

 --
 TD
 --
 Symbolic Z-matrix:
 Charge =  0 Multiplicity = 1

                         Standard orientation:
 ---------------------------------------------------------------------
 Center     Atomic      Atomic             Coordinates (Angstroms)
 Number     Number       Type             X           Y           Z
 ---------------------------------------------------------------------
      1          8           0       14.801044   -2.228710   -0.527188
      2          8           0      -14.805956    2.132375    0.542790
      3          6           0       11.493055   -1.082938    1.179722
      4          6           0      -12.258106   -0.884405    0.829128
      5          6           0       12.997114   -1.265641    1.118388
      6          6           0      -13.641951   -0.156380    0.815043
      7          6           0       13.426637   -1.873547   -0.293702
      8          6           0      -13.535491    1.336740    0.684053
      9          6           0       10.944868   -0.257901    0.025650
     10          6           0      -11.264189   -0.234947   -0.087961
     11          6           0       13.113266   -0.765180   -1.264511
     12          6           0      -12.840359    1.647339   -0.594976
     13          6           0       11.714025   -0.147265   -1.042494
     14          6           0      -11.607601    0.795562   -0.837514
     15          6           0       11.130731   -0.318251    2.574285
     16          6           0       10.807998   -2.395443    1.164020
     17          6           0      -11.758471   -0.819637    2.343778
     18          6           0      -12.568767   -2.308045    0.506038
     19          6           0        9.631816    0.335283    0.236918
     20          6           0      -10.094049   -1.085586   -0.379050
     21          6           0       11.250499    0.572737   -2.425099
     22          6           0      -10.683485    1.428602   -1.905027
     23          6           0        9.311328    1.616044   -0.080808
     24          6           0       -8.895204   -0.538021   -0.246964
     25          6           0        7.980915    2.299979    0.022303
     26          6           0       -7.660037   -1.271913   -0.502388
     27          6           0        8.088340    3.802866    0.402884
     28          6           0       -7.726208   -2.722734   -0.960634
     29          6           0        6.856217    1.584090    0.005396
     30          6           0       -6.439142   -0.659163   -0.509491
     31          6           0        5.507178    2.032677    0.141595
     32          6           0       -5.063500   -1.214006   -0.523991
     33          6           0        4.484170    1.165223    0.016181
     34          6           0       -4.021237   -0.394173   -0.340730
     35          6           0        3.047353    1.598442    0.141734
     36          6           0       -2.670180   -0.889686   -0.437144
     37          6           0        2.812703    3.067515    0.574186
     38          6           0       -2.384287   -2.315904   -0.739322
     39          6           0        2.073080    0.698403   -0.006534
     40          6           0       -1.665819   -0.012072   -0.184089
     41          6           0        0.665501    0.875041    0.073456
     42          6           0       -0.209285   -0.187718   -0.386676
     43          1           0       13.470030   -0.425490    1.105621
     44          1           0       13.254088   -2.012227    1.842927
     45          1           0      -14.262354   -0.341334    1.731119
     46          1           0      -14.297902   -0.652571    0.011046
     47          1           0       12.864064   -2.766447   -0.631499
     48          1           0      -12.957460    1.763159    1.601642
     49          1           0       13.829683    0.115722   -1.142234
     50          1           0       13.082169   -1.305944   -2.236438
     51          1           0      -13.624482    1.701613   -1.354591
     52          1           0      -12.617412    2.748215   -0.718354
     53          1           0       11.841839   -0.860005    3.316201
     54          1           0       10.107617   -0.210355    2.764091
     55          1           0       11.707215    0.697903    2.675902
     56          1           0       11.147605   -2.992217    0.364004
     57          1           0       11.157053   -2.990635    2.035946
     58          1           0        9.725512   -2.434349    1.151356
     59          1           0      -11.923415    0.285891    2.997009
     60          1           0      -10.622943   -1.084839    2.218941
     61          1           0      -12.244205   -1.305996    3.017458
     62          1           0      -13.656598   -2.643814    0.851056
     63          1           0      -11.812818   -3.133478    0.963929
     64          1           0      -12.534505   -2.462800   -0.610798
     65          1           0        8.923527   -0.179935    0.746274
     66          1           0      -10.265704   -2.085974   -0.602735
     67          1           0       10.006081    0.644321   -2.533533
     68          1           0       11.819306    1.468578   -2.466711
     69          1           0       11.541170   -0.112762   -3.190072
     70          1           0      -11.257144    1.408499   -2.966354
     71          1           0       -9.644558    0.965519   -2.077732
     72          1           0      -10.515535    2.439531   -1.274066
     73          1           0       14.988430   -3.098422   -0.036709
     74          1           0      -15.555989    1.672953    1.232570
     75          1           0       10.164637    2.055399   -0.329513
     76          1           0       -8.857042    0.488033   -0.011899
     77          1           0        8.637387    4.326681   -0.276272
     78          1           0        7.169276    4.401323    0.454852
     79          1           0        8.901200    3.832319    1.253101
     80          1           0       -8.346210   -3.287645   -0.286431
     81          1           0       -8.105475   -2.688628   -1.765970
     82          1           0       -6.928727   -3.219888   -1.003323
     83          1           0        6.875699    0.498886   -0.305707
     84          1           0       -6.407854    0.409359   -0.208474
     85          1           0        5.327921    3.135554    0.450015
     86          1           0       -4.882361   -2.187249   -0.638698
     87          1           0        4.703189    0.213629   -0.128557
     88          1           0       -4.037107    0.773715   -0.276561
     89          1           0        3.323655    3.129032    1.626104
     90          1           0        1.708381    3.266005    0.421506
     91          1           0        3.367811    3.457138   -0.229057
     92          1           0       -3.030562   -3.005942   -0.037209
     93          1           0       -2.567506   -2.489403   -1.759348
     94          1           0       -1.222136   -2.548961   -0.395383
     95          1           0        2.272429   -0.395667   -0.147854
     96          1           0       -2.122525    0.896141    0.319021
     97          1           0        0.078863    1.761580    0.440787
     98          1           0        0.247422   -1.198968   -0.709126
 ---------------------------------------------------------------------

 SCF Done:  E(RCAM-B3LYP) =  -1706.93616996     A.U. after   14 cycles

 Excitation energies and oscillator strengths:

 Excited State   1:      Singlet-A      2.8506 eV  434.93 nm  f=3.5336  <S**2>=0.000
     155 ->158        -0.16538
     156 ->157         0.68178
 This state for optimization and/or second-order correction.
 Total Energy, E(TD-HF/TD-DFT) =  -1706.83141055
 Copying the excited state density for this state as the 1-particle RhoCI density.

 The electronic state is 1-A.
 Alpha  occ. eigenvalues --  -19.21946 -19.21732 -10.30583 -10.30484 -10.28142
 Alpha  occ. eigenvalues --  -10.27928 -10.27714 -10.27481 -10.27389 -10.27237
 Alpha  occ. eigenvalues --  -10.27219 -10.26998 -10.26884 -10.26760 -10.26672
 Alpha  occ. eigenvalues --  -10.26502 -10.26430 -10.26425 -10.26375 -10.26268
 Alpha  occ. eigenvalues --  -10.26140 -10.26037 -10.26023 -10.25860 -10.25773
 Alpha  occ. eigenvalues --  -10.25767 -10.25676 -10.25656 -10.25625 -10.25565
 Alpha  occ. eigenvalues --  -10.25372 -10.25329 -10.25322 -10.25124 -10.25038
 Alpha  occ. eigenvalues --  -10.24995 -10.24952 -10.24864 -10.24822 -10.24011
 Alpha  occ. eigenvalues --  -10.23820 -10.21598  -1.08137  -1.04638  -0.94211
 Alpha  occ. eigenvalues --   -0.93967  -0.91903  -0.91549  -0.90379  -0.89800
 Alpha  occ. eigenvalues --   -0.87030  -0.86660  -0.85993  -0.85739  -0.84852
 Alpha  occ. eigenvalues --   -0.83506  -0.81770  -0.80585  -0.79882  -0.77952
 Alpha  occ. eigenvalues --   -0.77150  -0.76707  -0.76292  -0.75534  -0.75366
 Alpha  occ. eigenvalues --   -0.75237  -0.74892  -0.74758  -0.74070  -0.70266
 Alpha  occ. eigenvalues --   -0.68583  -0.66888  -0.65243  -0.64625  -0.64308
 Alpha  occ. eigenvalues --   -0.63605  -0.63004  -0.61724  -0.61061  -0.60448
 Alpha  occ. eigenvalues --   -0.59909  -0.58926  -0.58390  -0.56382  -0.55830
 Alpha  occ. eigenvalues --   -0.55221  -0.55092  -0.54502  -0.54266  -0.53088
 Alpha  occ. eigenvalues --   -0.52719  -0.52384  -0.51951  -0.51768  -0.50981
 Alpha  occ. eigenvalues --   -0.50557  -0.49994  -0.49822  -0.49688  -0.49644
 Alpha  occ. eigenvalues --   -0.49402  -0.49177  -0.48796  -0.48544  -0.48028
 Alpha  occ. eigenvalues --   -0.47534  -0.47478  -0.47077  -0.46475  -0.46174
 Alpha  occ. eigenvalues --   -0.45883  -0.45726  -0.45418  -0.45338  -0.44899
 Alpha  occ. eigenvalues --   -0.44697  -0.44657  -0.44570  -0.44007  -0.43669
 Alpha  occ. eigenvalues --   -0.43200  -0.42821  -0.42613  -0.41976  -0.41610
 Alpha  occ. eigenvalues --   -0.41435  -0.41332  -0.40940  -0.40320  -0.40031
 Alpha  occ. eigenvalues --   -0.39892  -0.39655  -0.39517  -0.39205  -0.39091
 Alpha  occ. eigenvalues --   -0.39042  -0.38863  -0.38446  -0.38366  -0.37799
 Alpha  occ. eigenvalues --   -0.37455  -0.37261  -0.37050  -0.36311  -0.35638
 Alpha  occ. eigenvalues --   -0.35127  -0.34923  -0.33568  -0.32342  -0.32102
 Alpha  occ. eigenvalues --   -0.31541  -0.29937  -0.28695  -0.26563  -0.24300
 Alpha  occ. eigenvalues --   -0.20830
 Alpha virt. eigenvalues --   -0.03738   0.00322   0.03115   0.06702   0.08278
 Alpha virt. eigenvalues --    0.09706   0.10086   0.11400   0.11843   0.11917
 Alpha virt. eigenvalues --    0.12300   0.13117   0.13298   0.13425   0.13636

 Mulliken charges:
               1
     1  O   -0.571131
     2  O   -0.579848
     3  C   -0.030487
     4  C    0.018878
     5  C   -0.173655
     6  C   -0.207114
     7  C    0.152263
     8  C    0.178037
     9  C    0.108212
    10  C    0.026379
    11  C   -0.210764
    12  C   -0.221063
    13  C   -0.032131
    14  C    0.060033
    15  C   -0.302670
    16  C   -0.299572
    17  C   -0.279942
    18  C   -0.315786
    19  C   -0.104549
    20  C   -0.115341
    21  C   -0.340967
    22  C   -0.340520
    23  C   -0.098645
    24  C   -0.080283
    25  C    0.086621
    26  C    0.065317
    27  C   -0.371814
    28  C   -0.332129
    29  C   -0.132921
    30  C   -0.145104
    31  C   -0.079181
    32  C   -0.083322
    33  C   -0.078339
    34  C   -0.096096
    35  C    0.053110
    36  C    0.121376
    37  C   -0.350074
    38  C   -0.364858
    39  C   -0.122311
    40  C   -0.146128
    41  C   -0.087923
    42  C   -0.110805
    43  H    0.107609
    44  H    0.084272
    45  H    0.076597
    46  H    0.089876
    47  H    0.078772
    48  H    0.084091
    49  H    0.119963
    50  H    0.111033
    51  H    0.128316
    52  H    0.103395
    53  H    0.085807
    54  H    0.117267
    55  H    0.087199
    56  H    0.106284
    57  H    0.087970
    58  H    0.106452
    59  H    0.047461
    60  H    0.096684
    61  H    0.117740
    62  H    0.096932
    63  H    0.086299
    64  H    0.108789
    65  H    0.077129
    66  H    0.097414
    67  H    0.097546
    68  H    0.122190
    69  H    0.109410
    70  H    0.101413
    71  H    0.115989
    72  H    0.105826
    73  H    0.306349
    74  H    0.293405
    75  H    0.070811
    76  H    0.093805
    77  H    0.133713
    78  H    0.114405
    79  H    0.112814
    80  H    0.102092
    81  H    0.133765
    82  H    0.104857
    83  H    0.081193
    84  H    0.068386
    85  H    0.083124
    86  H    0.074784
    87  H    0.071582
    88  H    0.086255
    89  H    0.127264
    90  H    0.108211
    91  H    0.138621
    92  H    0.108877
    93  H    0.135736
    94  H    0.087881
    95  H    0.080129
    96  H    0.077159
    97  H    0.092571
    98  H    0.091733
 Sum of Mulliken charges =  -0.00000

 Dipole moment (field-independent basis, Debye):
    X=              0.3618    Y=             -2.6762    Z=              1.3132  Tot=              3.0029
 Quadrupole moment (field-independent basis, Debye-Ang):
   XX=           -261.7425   YY=           -244.6355   ZZ=           -263.7832
   XY=             15.9926   XZ=              2.0322   YZ=              1.9437

 Normal termination of Gaussian 16 at Thu Jun 27 20:09:52 2019.
