 Gaussian 16, Revision A.03,
 Gaussian 16:  ES64L-G16RevA.03 25-Dec-2016

 -------------------------------------
 # td=(NStates=1) CAM-B3LYP/6-31G(d,p)
 -------------------------------------

 --
 TD
 --
 Symbolic Z-matrix:
 Charge =  0 Multiplicity = 1

                         Standard orientation:
 ---------------------------------------------------------------------
 Center     Atomic      Atomic             Coordinates (Angstroms)
 Number     Number       Type             X           Y           Z
 ---------------------------------------------------------------------
      1          8           0       14.697937   -2.211678   -0.606675
      2          8           0      -14.819910    1.965287    0.526812
      3          6           0       11.454978   -1.066995    1.199488
      4          6           0      -12.310472   -0.921258    0.913380
      5          6           0       12.885370   -1.422427    0.959333
      6          6           0      -13.745581   -0.145735    0.785983
      7          6           0       13.296929   -1.966395   -0.431205
      8          6           0      -13.606227    1.406495    0.532386
      9          6           0       10.946068   -0.237345   -0.018509
     10          6           0      -11.338244   -0.308069   -0.158728
     11          6           0       12.982964   -0.784822   -1.397385
     12          6           0      -12.870554    1.648570   -0.781097
     13          6           0       11.622960   -0.185142   -1.085765
     14          6           0      -11.577713    0.829920   -0.831102
     15          6           0       11.317796   -0.347319    2.585548
     16          6           0       10.672165   -2.451403    1.338110
     17          6           0      -11.659148   -0.895886    2.294584
     18          6           0      -12.490462   -2.469847    0.495444
     19          6           0        9.780358    0.359768    0.173050
     20          6           0      -10.029797   -1.083376   -0.383551
     21          6           0       11.095821    0.606148   -2.315209
     22          6           0      -10.701578    1.385547   -1.819523
     23          6           0        9.378796    1.624685   -0.107624
     24          6           0       -8.828798   -0.601135   -0.110304
     25          6           0        8.070880    2.185127    0.094645
     26          6           0       -7.538306   -1.205526   -0.449827
     27          6           0        8.064914    3.653094    0.642109
     28          6           0       -7.641837   -2.699531   -1.008493
     29          6           0        6.903828    1.522675   -0.084707
     30          6           0       -6.414124   -0.554292   -0.282148
     31          6           0        5.549448    2.036344    0.164644
     32          6           0       -5.089782   -1.098367   -0.476261
     33          6           0        4.516212    1.127455    0.056150
     34          6           0       -4.017517   -0.285649   -0.238838
     35          6           0        3.166116    1.633256    0.244795
     36          6           0       -2.667636   -0.773602   -0.465050
     37          6           0        2.901048    3.074410    0.596904
     38          6           0       -2.411261   -2.143942   -0.853187
     39          6           0        2.041240    0.759147   -0.077152
     40          6           0       -1.693694    0.091411   -0.128554
     41          6           0        0.667689    0.989341   -0.046425
     42          6           0       -0.164961   -0.080556   -0.179056
     43          1           0       13.541696   -0.559384    0.806469
     44          1           0       13.384415   -2.202995    1.677648
     45          1           0      -14.358094   -0.313720    1.859301
     46          1           0      -14.355584   -0.701971    0.075916
     47          1           0       12.888903   -3.017493   -0.712571
     48          1           0      -13.059576    1.905692    1.369055
     49          1           0       13.705477   -0.003606   -1.314999
     50          1           0       13.033606   -1.180618   -2.463659
     51          1           0      -13.600976    1.313577   -1.482017
     52          1           0      -12.762802    2.775590   -0.930697
     53          1           0       11.532712   -1.126051    3.264068
     54          1           0       10.387663    0.079051    2.639728
     55          1           0       11.793324    0.539624    2.340511
     56          1           0       10.391498   -3.086299    0.517352
     57          1           0       11.282237   -3.193222    2.060122
     58          1           0        9.716812   -2.120620    1.751174
     59          1           0      -11.855342    0.265119    2.474150
     60          1           0      -10.621005   -1.381976    2.320637
     61          1           0      -12.141325   -1.548804    3.056096
     62          1           0      -13.647186   -2.539677    1.004154
     63          1           0      -11.696172   -3.219697    0.916719
     64          1           0      -12.519120   -2.798779   -0.574367
     65          1           0        9.173573   -0.364822    0.683033
     66          1           0      -10.074582   -2.044914   -0.785624
     67          1           0       10.163030    1.208392   -1.942552
     68          1           0       11.831210    1.541820   -2.553090
     69          1           0       10.800735   -0.186891   -3.330818
     70          1           0      -11.288321    1.740810   -2.680460
     71          1           0       -9.811523    0.670257   -1.951657
     72          1           0      -10.088158    2.263364   -1.513472
     73          1           0       14.850758   -2.904207    0.089359
     74          1           0      -15.328500    1.968101    1.400116
     75          1           0       10.172615    2.358770   -0.415826
     76          1           0       -8.763977    0.372804    0.357879
     77          1           0        8.720115    4.224425    0.022439
     78          1           0        7.100482    4.223074    0.334930
     79          1           0        8.449127    3.658205    1.735516
     80          1           0       -8.322921   -3.134054   -0.258940
     81          1           0       -8.337564   -2.418741   -2.006671
     82          1           0       -6.798765   -3.262409   -1.078690
     83          1           0        6.977428    0.532305   -0.415501
     84          1           0       -6.400372    0.381662    0.155153
     85          1           0        5.504888    2.972601    0.485077
     86          1           0       -4.854925   -2.144142   -0.898188
     87          1           0        4.616114    0.125733   -0.129520
     88          1           0       -4.211168    0.620410   -0.062019
     89          1           0        3.300958    3.267785    1.541108
     90          1           0        1.821912    3.246621    0.743516
     91          1           0        3.307146    3.784254   -0.273476
     92          1           0       -3.005571   -2.938790   -0.340157
     93          1           0       -2.407524   -2.209468   -2.066130
     94          1           0       -1.252814   -2.383938   -0.574711
     95          1           0        2.254787   -0.207564   -0.500638
     96          1           0       -1.933174    1.004285    0.206174
     97          1           0        0.425346    1.942819    0.313177
     98          1           0        0.236936   -1.049815   -0.386332
 ---------------------------------------------------------------------

 SCF Done:  E(RCAM-B3LYP) =  -1706.94787083     A.U. after   14 cycles

 Excitation energies and oscillator strengths:

 Excited State   1:      Singlet-A      2.7161 eV  456.48 nm  f=3.4080  <S**2>=0.000
     155 ->158         0.16108
     156 ->157         0.68472
 This state for optimization and/or second-order correction.
 Total Energy, E(TD-HF/TD-DFT) =  -1706.84805575
 Copying the excited state density for this state as the 1-particle RhoCI density.

 The electronic state is 1-A.
 Alpha  occ. eigenvalues --  -19.21265 -19.21218 -10.30811 -10.30638 -10.28416
 Alpha  occ. eigenvalues --  -10.27958 -10.27828 -10.27803 -10.27531 -10.27029
 Alpha  occ. eigenvalues --  -10.26981 -10.26862 -10.26766 -10.26755 -10.26680
 Alpha  occ. eigenvalues --  -10.26644 -10.26634 -10.26530 -10.26310 -10.26184
 Alpha  occ. eigenvalues --  -10.26086 -10.25951 -10.25925 -10.25868 -10.25804
 Alpha  occ. eigenvalues --  -10.25748 -10.25744 -10.25672 -10.25611 -10.25495
 Alpha  occ. eigenvalues --  -10.25479 -10.25335 -10.25334 -10.25327 -10.25263
 Alpha  occ. eigenvalues --  -10.25097 -10.25038 -10.24762 -10.24486 -10.24108
 Alpha  occ. eigenvalues --  -10.24043 -10.23452  -1.11267  -1.08954  -0.95460
 Alpha  occ. eigenvalues --   -0.92603  -0.92070  -0.91321  -0.90345  -0.89748
 Alpha  occ. eigenvalues --   -0.87907  -0.86878  -0.86133  -0.85744  -0.85145
 Alpha  occ. eigenvalues --   -0.82574  -0.81800  -0.79712  -0.79267  -0.77752
 Alpha  occ. eigenvalues --   -0.77149  -0.76568  -0.76017  -0.75895  -0.74981
 Alpha  occ. eigenvalues --   -0.74459  -0.74202  -0.73596  -0.73502  -0.70636
 Alpha  occ. eigenvalues --   -0.68870  -0.67516  -0.66102  -0.65562  -0.64006
 Alpha  occ. eigenvalues --   -0.63058  -0.62851  -0.62236  -0.61745  -0.61073
 Alpha  occ. eigenvalues --   -0.59706  -0.59367  -0.58343  -0.57991  -0.56897
 Alpha  occ. eigenvalues --   -0.56529  -0.55247  -0.54889  -0.54621  -0.54218
 Alpha  occ. eigenvalues --   -0.53788  -0.52760  -0.52289  -0.51834  -0.50798
 Alpha  occ. eigenvalues --   -0.50341  -0.50092  -0.49857  -0.49451  -0.49133
 Alpha  occ. eigenvalues --   -0.49064  -0.48699  -0.48394  -0.48022  -0.47878
 Alpha  occ. eigenvalues --   -0.47762  -0.47526  -0.46966  -0.46735  -0.46035
 Alpha  occ. eigenvalues --   -0.45972  -0.45676  -0.45369  -0.45111  -0.44796
 Alpha  occ. eigenvalues --   -0.44460  -0.44332  -0.44302  -0.43747  -0.43516
 Alpha  occ. eigenvalues --   -0.43301  -0.42921  -0.42290  -0.42105  -0.41894
 Alpha  occ. eigenvalues --   -0.41541  -0.41350  -0.41114  -0.40921  -0.40659
 Alpha  occ. eigenvalues --   -0.40170  -0.39959  -0.39927  -0.39421  -0.39126
 Alpha  occ. eigenvalues --   -0.38753  -0.38653  -0.38222  -0.38113  -0.37852
 Alpha  occ. eigenvalues --   -0.37594  -0.37439  -0.36709  -0.35802  -0.35402
 Alpha  occ. eigenvalues --   -0.35028  -0.33971  -0.32936  -0.31770  -0.31666
 Alpha  occ. eigenvalues --   -0.31443  -0.30130  -0.27884  -0.26779  -0.24238
 Alpha  occ. eigenvalues --   -0.20523
 Alpha virt. eigenvalues --   -0.04121   0.00073   0.02824   0.06543   0.08203
 Alpha virt. eigenvalues --    0.09774   0.10702   0.11056   0.11644   0.11926
 Alpha virt. eigenvalues --    0.12400   0.12719   0.12993   0.13106   0.13648

 Mulliken charges:
               1
     1  O   -0.550811
     2  O   -0.557523
     3  C   -0.040395
     4  C    0.009621
     5  C   -0.179768
     6  C   -0.211306
     7  C    0.147098
     8  C    0.192767
     9  C    0.127374
    10  C    0.029076
    11  C   -0.224885
    12  C   -0.228758
    13  C    0.023523
    14  C    0.104094
    15  C   -0.280733
    16  C   -0.311897
    17  C   -0.283840
    18  C   -0.308649
    19  C   -0.096099
    20  C   -0.162243
    21  C   -0.337111
    22  C   -0.379014
    23  C   -0.162438
    24  C   -0.067742
    25  C    0.062095
    26  C    0.091525
    27  C   -0.369130
    28  C   -0.347080
    29  C   -0.100261
    30  C   -0.129839
    31  C   -0.071458
    32  C   -0.097727
    33  C   -0.081826
    34  C   -0.068288
    35  C    0.067326
    36  C    0.146706
    37  C   -0.365147
    38  C   -0.383361
    39  C   -0.136471
    40  C   -0.130418
    41  C   -0.042434
    42  C   -0.109673
    43  H    0.104736
    44  H    0.053151
    45  H    0.045609
    46  H    0.115557
    47  H    0.066231
    48  H    0.063705
    49  H    0.134003
    50  H    0.107327
    51  H    0.126907
    52  H    0.104238
    53  H    0.115506
    54  H    0.108885
    55  H    0.112953
    56  H    0.114325
    57  H    0.080595
    58  H    0.102482
    59  H    0.087813
    60  H    0.107747
    61  H    0.098983
    62  H    0.069721
    63  H    0.091012
    64  H    0.105697
    65  H    0.086389
    66  H    0.087929
    67  H    0.110774
    68  H    0.088535
    69  H    0.073493
    70  H    0.107718
    71  H    0.106645
    72  H    0.108537
    73  H    0.299111
    74  H    0.315566
    75  H    0.099028
    76  H    0.084981
    77  H    0.117639
    78  H    0.102232
    79  H    0.122949
    80  H    0.122084
    81  H    0.105092
    82  H    0.113516
    83  H    0.071634
    84  H    0.077718
    85  H    0.081929
    86  H    0.081855
    87  H    0.088470
    88  H    0.061501
    89  H    0.131311
    90  H    0.103228
    91  H    0.111677
    92  H    0.125812
    93  H    0.112123
    94  H    0.091753
    95  H    0.070197
    96  H    0.071358
    97  H    0.079056
    98  H    0.086094
 Sum of Mulliken charges =  -0.00000

 Dipole moment (field-independent basis, Debye):
    X=             -0.7994    Y=             -0.4681    Z=              2.3693  Tot=              2.5439
 Quadrupole moment (field-independent basis, Debye-Ang):
   XX=           -285.6852   YY=           -242.9120   ZZ=           -264.5226
   XY=             -1.0327   XZ=              1.7677   YZ=              2.4858

 Normal termination of Gaussian 16 at Sat Jul  6 08:01:13 2019.
