 Gaussian 16, Revision A.03,
 Gaussian 16:  ES64L-G16RevA.03 25-Dec-2016

 -------------------------------------
 # td=(NStates=1) CAM-B3LYP/6-31G(d,p)
 -------------------------------------

 --
 TD
 --
 Symbolic Z-matrix:
 Charge =  0 Multiplicity = 1

                         Standard orientation:
 ---------------------------------------------------------------------
 Center     Atomic      Atomic             Coordinates (Angstroms)
 Number     Number       Type             X           Y           Z
 ---------------------------------------------------------------------
      1          8           0       14.729876   -2.272830   -0.491817
      2          8           0      -14.661229    2.113263    0.823217
      3          6           0       11.442978   -1.056579    1.282209
      4          6           0      -12.417384   -0.912207    0.840498
      5          6           0       12.962794   -1.400463    1.082079
      6          6           0      -13.661309   -0.085915    0.730627
      7          6           0       13.310495   -1.964787   -0.289633
      8          6           0      -13.406777    1.351314    0.753551
      9          6           0       10.966225   -0.325025    0.049443
     10          6           0      -11.331377   -0.344246   -0.144150
     11          6           0       12.953936   -0.904433   -1.371993
     12          6           0      -12.681717    1.686542   -0.498688
     13          6           0       11.574460   -0.283245   -1.104288
     14          6           0      -11.507937    0.804489   -0.823837
     15          6           0       11.328153   -0.167375    2.598081
     16          6           0       10.680342   -2.437869    1.483619
     17          6           0      -11.871388   -0.864441    2.180272
     18          6           0      -12.727585   -2.335674    0.453073
     19          6           0        9.634370    0.355089    0.266741
     20          6           0      -10.128395   -1.165332   -0.305307
     21          6           0       11.210994    0.411631   -2.402480
     22          6           0      -10.583425    1.338386   -1.948513
     23          6           0        9.319948    1.606027   -0.199813
     24          6           0       -8.881130   -0.706835   -0.238436
     25          6           0        7.967693    2.259763    0.078074
     26          6           0       -7.564357   -1.340884   -0.454581
     27          6           0        7.995395    3.734228    0.445482
     28          6           0       -7.553962   -2.870020   -0.668889
     29          6           0        6.945954    1.556521   -0.015608
     30          6           0       -6.447750   -0.578025   -0.536418
     31          6           0        5.512487    2.055233    0.175696
     32          6           0       -5.156556   -1.008939   -0.753473
     33          6           0        4.463091    1.294119   -0.057280
     34          6           0       -3.919806   -0.370329   -0.419839
     35          6           0        3.061826    1.689729    0.024010
     36          6           0       -2.587082   -0.737615   -0.399348
     37          6           0        2.830728    3.091557    0.624421
     38          6           0       -2.388587   -2.283859   -0.761290
     39          6           0        2.166123    0.843107   -0.279239
     40          6           0       -1.619010    0.145640   -0.132452
     41          6           0        0.679931    1.070279   -0.247754
     42          6           0       -0.194850    0.015969   -0.257472
     43          1           0       13.771776   -0.590764    1.253484
     44          1           0       13.420288   -2.175341    1.810792
     45          1           0      -14.238777   -0.345710    1.680372
     46          1           0      -14.320602   -0.144857   -0.103755
     47          1           0       12.649823   -2.792594   -0.285478
     48          1           0      -12.803974    1.690543    1.565077
     49          1           0       13.745582   -0.035931   -1.489117
     50          1           0       12.865767   -1.391154   -2.294747
     51          1           0      -13.273859    1.581957   -1.402548
     52          1           0      -12.285850    2.691357   -0.813640
     53          1           0       11.864306   -0.628339    3.509094
     54          1           0       10.173124    0.080221    2.718791
     55          1           0       11.902610    0.834197    2.445535
     56          1           0       10.822330   -3.088664    0.670385
     57          1           0       10.960332   -2.901109    2.412481
     58          1           0        9.728789   -2.416500    1.638291
     59          1           0      -11.547587    0.157373    2.860585
     60          1           0      -10.911651   -1.639458    2.245852
     61          1           0      -12.708488   -1.224535    2.698789
     62          1           0      -13.507690   -2.893839    1.103462
     63          1           0      -11.853133   -3.106353    0.565283
     64          1           0      -13.093503   -2.349822   -0.630034
     65          1           0        8.817477   -0.199650    0.858895
     66          1           0      -10.364816   -2.223728   -0.297962
     67          1           0       10.092615    0.657873   -2.448512
     68          1           0       11.666974    1.268755   -2.457785
     69          1           0       11.377284   -0.443454   -3.289908
     70          1           0      -11.095551    1.647039   -3.021809
     71          1           0       -9.713110    0.569647   -2.005354
     72          1           0      -10.167435    2.282690   -1.425337
     73          1           0       14.875332   -3.027764    0.088990
     74          1           0      -15.031454    1.826198    1.673472
     75          1           0       10.052393    2.177502   -0.778354
     76          1           0       -8.784171    0.473655   -0.271083
     77          1           0        8.325145    4.343617   -0.520461
     78          1           0        6.913515    4.074962    0.756519
     79          1           0        8.723055    3.934347    1.281952
     80          1           0       -8.234505   -3.621812    0.056194
     81          1           0       -8.019073   -3.177373   -1.631697
     82          1           0       -6.440451   -3.340664   -0.695154
     83          1           0        6.840068    0.459311   -0.197188
     84          1           0       -6.561207    0.622826   -0.553502
     85          1           0        5.395020    3.146848    0.516322
     86          1           0       -5.104620   -2.044064   -1.128216
     87          1           0        4.331528    0.249800   -0.425015
     88          1           0       -4.102549    0.613044   -0.074990
     89          1           0        3.710071    3.346845    1.552134
     90          1           0        1.861359    3.387012    1.035805
     91          1           0        2.777688    3.911467   -0.194674
     92          1           0       -2.699710   -2.915045   -0.089607
     93          1           0       -2.973298   -2.447966   -1.832919
     94          1           0       -1.442261   -2.671997   -0.939441
     95          1           0        2.303027   -0.088531   -0.679482
     96          1           0       -1.831880    1.152278    0.099540
     97          1           0        0.247490    2.062602   -0.010143
     98          1           0        0.082012   -1.033552   -0.303966
 ---------------------------------------------------------------------

 SCF Done:  E(RCAM-B3LYP) =  -1706.96243700     A.U. after   14 cycles

 Excitation energies and oscillator strengths:

 Excited State   1:      Singlet-A      2.9077 eV  426.41 nm  f=3.2674  <S**2>=0.000
     155 ->158         0.13176
     156 ->157         0.69061
 This state for optimization and/or second-order correction.
 Total Energy, E(TD-HF/TD-DFT) =  -1706.85558274
 Copying the excited state density for this state as the 1-particle RhoCI density.

 The electronic state is 1-A.
 Alpha  occ. eigenvalues --  -19.21309 -19.20906 -10.29824 -10.29809 -10.28751
 Alpha  occ. eigenvalues --  -10.28359 -10.28233 -10.27962 -10.27824 -10.27708
 Alpha  occ. eigenvalues --  -10.27631 -10.27409 -10.27323 -10.27025 -10.26975
 Alpha  occ. eigenvalues --  -10.26914 -10.26787 -10.26603 -10.26588 -10.26583
 Alpha  occ. eigenvalues --  -10.26565 -10.26540 -10.26494 -10.26413 -10.26403
 Alpha  occ. eigenvalues --  -10.26215 -10.26157 -10.25960 -10.25952 -10.25801
 Alpha  occ. eigenvalues --  -10.25723 -10.25542 -10.25525 -10.25489 -10.25445
 Alpha  occ. eigenvalues --  -10.25188 -10.25183 -10.25167 -10.25127 -10.24998
 Alpha  occ. eigenvalues --  -10.24792 -10.23362  -1.08276  -1.08182  -0.95124
 Alpha  occ. eigenvalues --   -0.93224  -0.92543  -0.91821  -0.90721  -0.90243
 Alpha  occ. eigenvalues --   -0.88122  -0.87039  -0.86446  -0.85926  -0.84467
 Alpha  occ. eigenvalues --   -0.82949  -0.81844  -0.79968  -0.79479  -0.78053
 Alpha  occ. eigenvalues --   -0.77239  -0.76517  -0.75912  -0.75821  -0.75555
 Alpha  occ. eigenvalues --   -0.75399  -0.74988  -0.74445  -0.74152  -0.71193
 Alpha  occ. eigenvalues --   -0.68394  -0.67337  -0.66096  -0.65072  -0.64143
 Alpha  occ. eigenvalues --   -0.63419  -0.62825  -0.62465  -0.60856  -0.59942
 Alpha  occ. eigenvalues --   -0.59245  -0.58718  -0.58564  -0.58267  -0.56344
 Alpha  occ. eigenvalues --   -0.55506  -0.54822  -0.54664  -0.53980  -0.53535
 Alpha  occ. eigenvalues --   -0.53278  -0.52653  -0.51824  -0.51314  -0.50644
 Alpha  occ. eigenvalues --   -0.50481  -0.49696  -0.49542  -0.49329  -0.49089
 Alpha  occ. eigenvalues --   -0.48756  -0.48521  -0.48444  -0.48270  -0.47716
 Alpha  occ. eigenvalues --   -0.47578  -0.46715  -0.46183  -0.46059  -0.45845
 Alpha  occ. eigenvalues --   -0.45462  -0.45234  -0.45081  -0.44818  -0.44677
 Alpha  occ. eigenvalues --   -0.44457  -0.44062  -0.43851  -0.43446  -0.43191
 Alpha  occ. eigenvalues --   -0.42752  -0.42693  -0.42513  -0.42329  -0.41767
 Alpha  occ. eigenvalues --   -0.41559  -0.41452  -0.41087  -0.40913  -0.40790
 Alpha  occ. eigenvalues --   -0.40218  -0.40083  -0.39672  -0.39470  -0.39217
 Alpha  occ. eigenvalues --   -0.39162  -0.38762  -0.38604  -0.38473  -0.38367
 Alpha  occ. eigenvalues --   -0.37517  -0.37375  -0.36946  -0.36111  -0.35932
 Alpha  occ. eigenvalues --   -0.35196  -0.34580  -0.33738  -0.32791  -0.32687
 Alpha  occ. eigenvalues --   -0.31896  -0.30806  -0.28487  -0.26806  -0.25066
 Alpha  occ. eigenvalues --   -0.21399
 Alpha virt. eigenvalues --   -0.04255   0.01012   0.03551   0.05866   0.08432
 Alpha virt. eigenvalues --    0.10305   0.10965   0.11446   0.11661   0.11824
 Alpha virt. eigenvalues --    0.12602   0.12791   0.13018   0.13444   0.13628

 Mulliken charges:
               1
     1  O   -0.556572
     2  O   -0.567541
     3  C   -0.025175
     4  C   -0.005471
     5  C   -0.190705
     6  C   -0.185439
     7  C    0.141677
     8  C    0.157456
     9  C    0.098304
    10  C    0.055605
    11  C   -0.188989
    12  C   -0.221392
    13  C    0.009507
    14  C    0.046734
    15  C   -0.295736
    16  C   -0.307592
    17  C   -0.267408
    18  C   -0.306052
    19  C   -0.122614
    20  C   -0.132665
    21  C   -0.344005
    22  C   -0.354683
    23  C   -0.117808
    24  C   -0.107210
    25  C    0.071728
    26  C    0.133885
    27  C   -0.351604
    28  C   -0.368839
    29  C   -0.080056
    30  C   -0.116657
    31  C   -0.132473
    32  C   -0.101173
    33  C   -0.092134
    34  C   -0.117387
    35  C    0.178490
    36  C    0.137792
    37  C   -0.368139
    38  C   -0.366607
    39  C   -0.158723
    40  C   -0.147000
    41  C   -0.110224
    42  C   -0.063108
    43  H    0.091102
    44  H    0.056835
    45  H    0.065434
    46  H    0.118918
    47  H    0.086967
    48  H    0.092130
    49  H    0.107949
    50  H    0.109599
    51  H    0.117063
    52  H    0.100266
    53  H    0.099632
    54  H    0.094948
    55  H    0.100946
    56  H    0.108177
    57  H    0.103168
    58  H    0.109998
    59  H    0.083645
    60  H    0.090458
    61  H    0.100907
    62  H    0.094890
    63  H    0.094348
    64  H    0.111494
    65  H    0.091379
    66  H    0.077053
    67  H    0.108106
    68  H    0.136974
    69  H    0.084986
    70  H    0.098953
    71  H    0.122814
    72  H    0.107535
    73  H    0.301474
    74  H    0.301906
    75  H    0.088955
    76  H    0.073446
    77  H    0.106824
    78  H    0.100426
    79  H    0.124448
    80  H    0.091304
    81  H    0.129318
    82  H    0.097427
    83  H    0.086426
    84  H    0.080889
    85  H    0.084441
    86  H    0.073816
    87  H    0.077492
    88  H    0.071843
    89  H    0.086294
    90  H    0.112627
    91  H    0.112261
    92  H    0.138711
    93  H    0.094461
    94  H    0.109214
    95  H    0.086626
    96  H    0.078134
    97  H    0.085113
    98  H    0.079454
 Sum of Mulliken charges =  -0.00000

 Dipole moment (field-independent basis, Debye):
    X=             -0.5411    Y=             -1.9037    Z=              1.7058  Tot=              2.6128
 Quadrupole moment (field-independent basis, Debye-Ang):
   XX=           -292.6028   YY=           -243.9001   ZZ=           -260.8836
   XY=             16.1794   XZ=              0.9594   YZ=             -0.6066

 Normal termination of Gaussian 16 at Thu Jul 11 10:35:20 2019.
