 Gaussian 16, Revision A.03,
 Gaussian 16:  ES64L-G16RevA.03 25-Dec-2016

 -------------------------------------
 # td=(NStates=1) CAM-B3LYP/6-31G(d,p)
 -------------------------------------

 --
 TD
 --
 Symbolic Z-matrix:
 Charge =  0 Multiplicity = 1

                         Standard orientation:
 ---------------------------------------------------------------------
 Center     Atomic      Atomic             Coordinates (Angstroms)
 Number     Number       Type             X           Y           Z
 ---------------------------------------------------------------------
      1          8           0       14.704067   -2.230947   -0.519275
      2          8           0      -14.698429    2.048427    0.673230
      3          6           0       11.446918   -1.122133    1.230079
      4          6           0      -12.416583   -0.991274    0.710662
      5          6           0       12.978245   -1.500312    1.140476
      6          6           0      -13.678680   -0.188667    0.642643
      7          6           0       13.350134   -2.016930   -0.323296
      8          6           0      -13.490483    1.335374    0.711901
      9          6           0       11.034751   -0.308851    0.025160
     10          6           0      -11.350262   -0.320666   -0.118772
     11          6           0       13.078791   -0.730121   -1.279435
     12          6           0      -12.752885    1.836816   -0.468006
     13          6           0       11.741802   -0.145189   -1.067787
     14          6           0      -11.455087    0.941897   -0.769035
     15          6           0       11.267778   -0.405251    2.585968
     16          6           0       10.628317   -2.421264    1.240267
     17          6           0      -11.875275   -0.974758    2.154260
     18          6           0      -12.777901   -2.449494    0.337678
     19          6           0        9.651366    0.362942    0.115403
     20          6           0      -10.082418   -1.088815   -0.462042
     21          6           0       11.228722    0.544644   -2.325582
     22          6           0      -10.437662    1.549020   -1.695618
     23          6           0        9.332047    1.646970   -0.040546
     24          6           0       -8.855743   -0.657438   -0.249768
     25          6           0        8.044591    2.269602    0.032272
     26          6           0       -7.592966   -1.372568   -0.464275
     27          6           0        8.101487    3.736733    0.388306
     28          6           0       -7.651334   -2.792378   -0.954305
     29          6           0        6.937629    1.520843   -0.124508
     30          6           0       -6.519552   -0.616805   -0.261858
     31          6           0        5.568400    1.950616    0.041031
     32          6           0       -5.119473   -1.125498   -0.336353
     33          6           0        4.449505    1.197633   -0.130202
     34          6           0       -4.019637   -0.386642   -0.086343
     35          6           0        3.082032    1.700215    0.148817
     36          6           0       -2.663446   -0.765363   -0.354435
     37          6           0        2.859589    3.135219    0.490113
     38          6           0       -2.390752   -2.063738   -1.069725
     39          6           0        2.090184    0.787877   -0.025451
     40          6           0       -1.631688    0.111136   -0.073504
     41          6           0        0.672695    0.873483    0.067234
     42          6           0       -0.171145   -0.063692   -0.350633
     43          1           0       13.539174   -0.715159    1.545671
     44          1           0       13.061218   -2.343931    1.865891
     45          1           0      -14.404627   -0.494633    1.172313
     46          1           0      -14.356492   -0.249833   -0.351709
     47          1           0       12.690571   -2.907491   -0.632284
     48          1           0      -12.844080    1.763897    1.623260
     49          1           0       13.892871    0.015964   -1.111791
     50          1           0       13.214571   -1.111602   -2.433644
     51          1           0      -13.497733    1.979875   -1.334796
     52          1           0      -12.303006    2.804038   -0.184406
     53          1           0       11.706219   -0.796066    3.471448
     54          1           0       10.244516   -0.404151    2.633461
     55          1           0       11.860620    0.514902    2.536162
     56          1           0       10.725193   -3.181299    0.439420
     57          1           0       10.745384   -2.895741    2.219499
     58          1           0        9.635389   -2.222800    1.397778
     59          1           0      -12.126432   -0.001242    2.577056
     60          1           0      -10.754068   -1.210604    2.128536
     61          1           0      -12.303521   -1.690164    2.790645
     62          1           0      -13.778842   -2.713921    1.051472
     63          1           0      -11.954235   -3.103725    0.422512
     64          1           0      -13.162950   -2.517098   -0.805589
     65          1           0        8.888967   -0.280571    0.470068
     66          1           0      -10.332995   -2.229854   -0.899033
     67          1           0       10.220873    1.072207   -1.900128
     68          1           0       12.088576    1.333114   -2.802411
     69          1           0       11.085402   -0.233608   -3.061639
     70          1           0      -11.158619    1.873327   -2.449655
     71          1           0       -9.767639    0.765980   -2.023183
     72          1           0       -9.848305    2.294186   -1.225194
     73          1           0       15.092920   -2.959963    0.111743
     74          1           0      -15.265346    1.780875    1.521421
     75          1           0       10.201315    2.299803   -0.276529
     76          1           0       -8.665906    0.332591    0.294364
     77          1           0        8.572982    4.303741   -0.451761
     78          1           0        7.166745    4.261550    0.850881
     79          1           0        8.734319    3.890087    1.224495
     80          1           0       -8.307813   -3.403648   -0.266195
     81          1           0       -8.142473   -2.647650   -1.915834
     82          1           0       -6.790121   -3.221713   -1.150322
     83          1           0        7.103819    0.633666   -0.421501
     84          1           0       -6.718756    0.404234    0.024059
     85          1           0        5.414482    3.031396    0.504738
     86          1           0       -5.110629   -2.071477   -0.944985
     87          1           0        4.632272    0.109951   -0.511364
     88          1           0       -4.091304    0.623816    0.540414
     89          1           0        3.217024    3.317975    1.476243
     90          1           0        1.786909    3.402186    0.578103
     91          1           0        3.263222    3.679023   -0.216994
     92          1           0       -3.057495   -2.813523   -0.357435
     93          1           0       -3.115404   -2.086932   -2.050309
     94          1           0       -1.395702   -2.214590   -1.149745
     95          1           0        2.363575   -0.210457   -0.159189
     96          1           0       -2.050985    1.045552    0.275448
     97          1           0        0.275046    1.832976    0.724557
     98          1           0        0.164118   -0.932323   -0.800433
 ---------------------------------------------------------------------

 SCF Done:  E(RCAM-B3LYP) =  -1707.01370258     A.U. after   14 cycles

 Excitation energies and oscillator strengths:

 Excited State   1:      Singlet-A      3.0260 eV  409.73 nm  f=3.6190  <S**2>=0.000
     155 ->158         0.18796
     156 ->157         0.67336
 This state for optimization and/or second-order correction.
 Total Energy, E(TD-HF/TD-DFT) =  -1706.90250056
 Copying the excited state density for this state as the 1-particle RhoCI density.

 The electronic state is 1-A.
 Alpha  occ. eigenvalues --  -19.21872 -19.21750 -10.31504 -10.30474 -10.27486
 Alpha  occ. eigenvalues --  -10.27397 -10.27296 -10.27188 -10.27084 -10.27073
 Alpha  occ. eigenvalues --  -10.26981 -10.26924 -10.26921 -10.26897 -10.26797
 Alpha  occ. eigenvalues --  -10.26691 -10.26660 -10.26623 -10.26523 -10.26366
 Alpha  occ. eigenvalues --  -10.26199 -10.26189 -10.26077 -10.26045 -10.26021
 Alpha  occ. eigenvalues --  -10.25917 -10.25849 -10.25681 -10.25562 -10.25438
 Alpha  occ. eigenvalues --  -10.25431 -10.25228 -10.24950 -10.24924 -10.24740
 Alpha  occ. eigenvalues --  -10.24372 -10.24212 -10.24134 -10.24031 -10.24006
 Alpha  occ. eigenvalues --  -10.23994 -10.23748  -1.08993  -1.08814  -0.93466
 Alpha  occ. eigenvalues --   -0.92986  -0.91938  -0.91596  -0.90989  -0.90093
 Alpha  occ. eigenvalues --   -0.87319  -0.86962  -0.86396  -0.84671  -0.84144
 Alpha  occ. eigenvalues --   -0.82413  -0.81800  -0.80022  -0.79211  -0.78641
 Alpha  occ. eigenvalues --   -0.77445  -0.77209  -0.76941  -0.76454  -0.75646
 Alpha  occ. eigenvalues --   -0.75293  -0.74960  -0.74160  -0.73914  -0.70065
 Alpha  occ. eigenvalues --   -0.68263  -0.66487  -0.65445  -0.64742  -0.64088
 Alpha  occ. eigenvalues --   -0.63481  -0.61806  -0.61238  -0.60123  -0.59571
 Alpha  occ. eigenvalues --   -0.59382  -0.58102  -0.57770  -0.57399  -0.55663
 Alpha  occ. eigenvalues --   -0.55282  -0.55076  -0.54330  -0.53945  -0.53486
 Alpha  occ. eigenvalues --   -0.53309  -0.53105  -0.52321  -0.52161  -0.51374
 Alpha  occ. eigenvalues --   -0.50740  -0.50248  -0.50179  -0.49466  -0.49262
 Alpha  occ. eigenvalues --   -0.49022  -0.48919  -0.48772  -0.48517  -0.48181
 Alpha  occ. eigenvalues --   -0.47892  -0.47467  -0.46434  -0.46367  -0.46143
 Alpha  occ. eigenvalues --   -0.45759  -0.45676  -0.45386  -0.45128  -0.45005
 Alpha  occ. eigenvalues --   -0.44706  -0.44390  -0.44216  -0.44051  -0.43191
 Alpha  occ. eigenvalues --   -0.42920  -0.42722  -0.42577  -0.42299  -0.41850
 Alpha  occ. eigenvalues --   -0.41526  -0.41420  -0.41167  -0.41054  -0.40490
 Alpha  occ. eigenvalues --   -0.40337  -0.39774  -0.39753  -0.39508  -0.39319
 Alpha  occ. eigenvalues --   -0.39031  -0.38715  -0.38543  -0.38396  -0.37827
 Alpha  occ. eigenvalues --   -0.37571  -0.37441  -0.36177  -0.36000  -0.35512
 Alpha  occ. eigenvalues --   -0.35282  -0.34538  -0.32983  -0.31779  -0.31583
 Alpha  occ. eigenvalues --   -0.31489  -0.29625  -0.28098  -0.26418  -0.24217
 Alpha  occ. eigenvalues --   -0.21351
 Alpha virt. eigenvalues --   -0.03322   0.00230   0.03646   0.06428   0.08098
 Alpha virt. eigenvalues --    0.09412   0.10878   0.11272   0.11594   0.11754
 Alpha virt. eigenvalues --    0.12325   0.12792   0.13125   0.13603   0.13913

 Mulliken charges:
               1
     1  O   -0.555977
     2  O   -0.563621
     3  C   -0.046405
     4  C    0.005665
     5  C   -0.192855
     6  C   -0.165813
     7  C    0.182397
     8  C    0.167653
     9  C    0.094881
    10  C    0.042212
    11  C   -0.225088
    12  C   -0.204554
    13  C    0.059781
    14  C    0.017319
    15  C   -0.300823
    16  C   -0.315111
    17  C   -0.301041
    18  C   -0.286034
    19  C   -0.141622
    20  C   -0.181985
    21  C   -0.334730
    22  C   -0.344220
    23  C   -0.115225
    24  C   -0.080148
    25  C    0.107363
    26  C    0.127670
    27  C   -0.379156
    28  C   -0.355012
    29  C   -0.087736
    30  C   -0.138936
    31  C   -0.092778
    32  C   -0.120110
    33  C   -0.113476
    34  C   -0.100013
    35  C    0.096300
    36  C    0.117444
    37  C   -0.367240
    38  C   -0.341816
    39  C   -0.135255
    40  C   -0.137128
    41  C   -0.063599
    42  C   -0.088694
    43  H    0.099078
    44  H    0.073584
    45  H    0.077338
    46  H    0.076661
    47  H    0.072564
    48  H    0.058744
    49  H    0.123568
    50  H    0.080486
    51  H    0.110029
    52  H    0.107085
    53  H    0.106431
    54  H    0.108148
    55  H    0.105230
    56  H    0.108901
    57  H    0.095525
    58  H    0.105662
    59  H    0.103425
    60  H    0.105102
    61  H    0.100292
    62  H    0.075823
    63  H    0.109751
    64  H    0.087810
    65  H    0.083143
    66  H    0.073147
    67  H    0.101463
    68  H    0.075640
    69  H    0.120946
    70  H    0.114460
    71  H    0.124574
    72  H    0.120705
    73  H    0.304335
    74  H    0.304595
    75  H    0.091568
    76  H    0.089766
    77  H    0.123184
    78  H    0.102514
    79  H    0.129132
    80  H    0.117752
    81  H    0.127944
    82  H    0.112878
    83  H    0.057686
    84  H    0.076802
    85  H    0.070354
    86  H    0.079877
    87  H    0.083286
    88  H    0.077610
    89  H    0.129049
    90  H    0.106422
    91  H    0.138763
    92  H    0.096649
    93  H    0.108346
    94  H    0.108987
    95  H    0.076715
    96  H    0.076187
    97  H    0.072045
    98  H    0.089757
 Sum of Mulliken charges =  -0.00000

 Dipole moment (field-independent basis, Debye):
    X=              0.6493    Y=             -1.5970    Z=              2.6475  Tot=              3.1593
 Quadrupole moment (field-independent basis, Debye-Ang):
   XX=           -255.7772   YY=           -246.2187   ZZ=           -260.5611
   XY=              5.9230   XZ=              6.0494   YZ=              4.7160

 Normal termination of Gaussian 16 at Thu Jul 11 18:03:10 2019.
