 Gaussian 16, Revision A.03,
 Gaussian 16:  ES64L-G16RevA.03 25-Dec-2016

 -------------------------------------
 # td=(NStates=1) CAM-B3LYP/6-31G(d,p)
 -------------------------------------

 --
 TD
 --
 Symbolic Z-matrix:
 Charge =  0 Multiplicity = 1

                         Standard orientation:
 ---------------------------------------------------------------------
 Center     Atomic      Atomic             Coordinates (Angstroms)
 Number     Number       Type             X           Y           Z
 ---------------------------------------------------------------------
      1          8           0       14.646745   -2.331908   -0.339060
      2          8           0      -14.800985    1.846627    0.711272
      3          6           0       11.267128   -1.141468    1.204675
      4          6           0      -12.279841   -1.033566    0.832884
      5          6           0       12.850761   -1.524853    1.033114
      6          6           0      -13.661976   -0.320270    0.841025
      7          6           0       13.170170   -2.102981   -0.203694
      8          6           0      -13.538675    1.236231    0.738812
      9          6           0       10.833972   -0.410165   -0.091352
     10          6           0      -11.267611   -0.455731   -0.263821
     11          6           0       12.856062   -1.109794   -1.461186
     12          6           0      -12.751790    1.572287   -0.483701
     13          6           0       11.569371   -0.306150   -1.168004
     14          6           0      -11.623542    0.739737   -0.917086
     15          6           0       11.121798   -0.288476    2.432365
     16          6           0       10.531490   -2.378543    1.437880
     17          6           0      -11.680071   -0.795406    2.210625
     18          6           0      -12.561612   -2.474587    0.457523
     19          6           0        9.659275    0.364584    0.097285
     20          6           0      -10.072531   -1.163728   -0.464963
     21          6           0       11.212232    0.483617   -2.508675
     22          6           0      -10.821065    1.358628   -1.994810
     23          6           0        9.427886    1.672908    0.034711
     24          6           0       -8.814461   -0.669673   -0.275355
     25          6           0        8.090358    2.286399    0.049045
     26          6           0       -7.517008   -1.221285   -0.521703
     27          6           0        8.049083    3.760328    0.340702
     28          6           0       -7.512944   -2.670011   -0.897798
     29          6           0        6.919607    1.515703   -0.106273
     30          6           0       -6.395967   -0.512319   -0.282337
     31          6           0        5.622391    2.002188    0.247517
     32          6           0       -5.024584   -0.962228   -0.494352
     33          6           0        4.486481    1.225603    0.007982
     34          6           0       -4.008087   -0.131161   -0.201187
     35          6           0        3.094468    1.769240    0.234425
     36          6           0       -2.601246   -0.590053   -0.353896
     37          6           0        2.860616    3.096136    0.677502
     38          6           0       -2.200683   -1.967029   -0.877596
     39          6           0        2.183304    0.887588    0.003722
     40          6           0       -1.605530    0.360348   -0.084705
     41          6           0        0.697775    1.207648   -0.033524
     42          6           0       -0.169037    0.162917   -0.269137
     43          1           0       13.547866   -0.659650    1.020972
     44          1           0       13.020944   -2.113107    1.880533
     45          1           0      -13.959715   -0.654580    1.713893
     46          1           0      -14.445506   -0.676706    0.058653
     47          1           0       12.501171   -2.944606   -0.291650
     48          1           0      -12.863656    1.536874    1.573156
     49          1           0       13.838379   -0.437752   -1.367185
     50          1           0       13.083822   -1.732001   -2.253237
     51          1           0      -13.469979    1.657622   -1.414866
     52          1           0      -12.393386    2.837878   -0.398746
     53          1           0       11.711175   -0.700171    3.324567
     54          1           0       10.051836   -0.167124    2.541496
     55          1           0       11.651663    0.612703    2.138167
     56          1           0       10.962947   -3.138004    0.704406
     57          1           0       10.843773   -2.767711    2.368700
     58          1           0        9.470959   -2.239210    1.514126
     59          1           0      -11.787311    0.296834    2.327536
     60          1           0      -10.679254   -1.542481    2.240047
     61          1           0      -12.248116   -1.001934    3.111681
     62          1           0      -13.385801   -3.242620    0.986243
     63          1           0      -11.651377   -3.227159    0.275162
     64          1           0      -12.956092   -2.697247   -0.670083
     65          1           0        8.932246   -0.142953    0.601603
     66          1           0       -9.779798   -2.273196   -0.875198
     67          1           0       10.177688    0.759054   -2.549139
     68          1           0       11.874338    1.429644   -2.388065
     69          1           0       11.428289   -0.049373   -3.218724
     70          1           0      -11.470024    1.793743   -2.820238
     71          1           0      -10.189949    0.596340   -2.511027
     72          1           0      -10.118752    2.097155   -1.626168
     73          1           0       14.968382   -3.187579    0.187556
     74          1           0      -15.407120    1.810116    1.446316
     75          1           0       10.126698    2.340639   -0.295290
     76          1           0       -8.759155    0.469539   -0.076568
     77          1           0        8.512657    4.209556   -0.669956
     78          1           0        6.974721    4.139923    0.505784
     79          1           0        8.869615    4.178884    1.092745
     80          1           0       -8.006306   -3.409695   -0.141499
     81          1           0       -7.898092   -2.739303   -1.971511
     82          1           0       -6.425907   -3.041412   -0.981741
     83          1           0        6.875634    0.477622   -0.432891
     84          1           0       -6.337172    0.431576    0.155150
     85          1           0        5.407671    2.942857    0.670759
     86          1           0       -4.684092   -2.126892   -0.690358
     87          1           0        4.692504    0.189651   -0.385287
     88          1           0       -4.105938    0.966058    0.164031
     89          1           0        3.198012    3.468166    1.644335
     90          1           0        1.754807    3.333977    0.831255
     91          1           0        3.161596    3.709436   -0.108305
     92          1           0       -2.547481   -2.761202   -0.210625
     93          1           0       -3.132543   -2.160052   -1.693185
     94          1           0       -1.095690   -2.052016   -1.321279
     95          1           0        2.448407   -0.136724   -0.445798
     96          1           0       -1.863381    1.391325    0.211719
     97          1           0        0.201056    2.196735    0.440850
     98          1           0        0.230868   -0.804873   -0.460375
 ---------------------------------------------------------------------

 SCF Done:  E(RCAM-B3LYP) =  -1706.91513968     A.U. after   14 cycles

 Excitation energies and oscillator strengths:

 Excited State   1:      Singlet-A      2.8972 eV  427.94 nm  f=3.6081  <S**2>=0.000
     155 ->158         0.21318
     156 ->157         0.66170
 This state for optimization and/or second-order correction.
 Total Energy, E(TD-HF/TD-DFT) =  -1706.80866865
 Copying the excited state density for this state as the 1-particle RhoCI density.

 The electronic state is 1-A.
 Alpha  occ. eigenvalues --  -19.21731 -19.21053 -10.31096 -10.29706 -10.28328
 Alpha  occ. eigenvalues --  -10.27992 -10.27930 -10.27897 -10.27740 -10.27494
 Alpha  occ. eigenvalues --  -10.27471 -10.27345 -10.27343 -10.27138 -10.27104
 Alpha  occ. eigenvalues --  -10.27079 -10.26915 -10.26898 -10.26801 -10.26552
 Alpha  occ. eigenvalues --  -10.26543 -10.26494 -10.26340 -10.26313 -10.26215
 Alpha  occ. eigenvalues --  -10.26048 -10.25971 -10.25915 -10.25888 -10.25812
 Alpha  occ. eigenvalues --  -10.25520 -10.25414 -10.25163 -10.25153 -10.24884
 Alpha  occ. eigenvalues --  -10.24829 -10.24626 -10.24387 -10.24147 -10.23926
 Alpha  occ. eigenvalues --  -10.23827 -10.23663  -1.09530  -1.05577  -0.94304
 Alpha  occ. eigenvalues --   -0.93153  -0.92192  -0.91540  -0.90248  -0.89740
 Alpha  occ. eigenvalues --   -0.87413  -0.87096  -0.86566  -0.85842  -0.84704
 Alpha  occ. eigenvalues --   -0.83429  -0.82088  -0.80796  -0.79722  -0.78179
 Alpha  occ. eigenvalues --   -0.77042  -0.76571  -0.75761  -0.75611  -0.75454
 Alpha  occ. eigenvalues --   -0.75299  -0.75072  -0.73643  -0.73047  -0.69900
 Alpha  occ. eigenvalues --   -0.69246  -0.67583  -0.65055  -0.64563  -0.63638
 Alpha  occ. eigenvalues --   -0.62521  -0.62135  -0.61381  -0.60720  -0.59809
 Alpha  occ. eigenvalues --   -0.59450  -0.58951  -0.58724  -0.57189  -0.56461
 Alpha  occ. eigenvalues --   -0.55935  -0.55238  -0.54776  -0.54020  -0.53563
 Alpha  occ. eigenvalues --   -0.52918  -0.52641  -0.52410  -0.52125  -0.50905
 Alpha  occ. eigenvalues --   -0.50322  -0.50142  -0.49916  -0.49803  -0.48998
 Alpha  occ. eigenvalues --   -0.48832  -0.48689  -0.48253  -0.48133  -0.48108
 Alpha  occ. eigenvalues --   -0.47411  -0.47220  -0.46748  -0.46220  -0.45907
 Alpha  occ. eigenvalues --   -0.45649  -0.45382  -0.45134  -0.44869  -0.44791
 Alpha  occ. eigenvalues --   -0.44009  -0.43886  -0.43631  -0.43380  -0.43124
 Alpha  occ. eigenvalues --   -0.42749  -0.42643  -0.42381  -0.42184  -0.41702
 Alpha  occ. eigenvalues --   -0.41324  -0.41286  -0.41070  -0.40756  -0.40465
 Alpha  occ. eigenvalues --   -0.40233  -0.39750  -0.39645  -0.39280  -0.39155
 Alpha  occ. eigenvalues --   -0.38443  -0.37769  -0.37743  -0.37587  -0.37450
 Alpha  occ. eigenvalues --   -0.37190  -0.37103  -0.36246  -0.36101  -0.34982
 Alpha  occ. eigenvalues --   -0.34805  -0.33993  -0.33035  -0.32457  -0.32067
 Alpha  occ. eigenvalues --   -0.31424  -0.29165  -0.28158  -0.26308  -0.23531
 Alpha  occ. eigenvalues --   -0.20942
 Alpha virt. eigenvalues --   -0.03488  -0.00575   0.02667   0.05605   0.06984
 Alpha virt. eigenvalues --    0.09625   0.10383   0.10987   0.11525   0.11838
 Alpha virt. eigenvalues --    0.12296   0.12782   0.12853   0.13083   0.13397

 Mulliken charges:
               1
     1  O   -0.579791
     2  O   -0.573363
     3  C   -0.065295
     4  C   -0.004254
     5  C   -0.154390
     6  C   -0.188894
     7  C    0.128714
     8  C    0.195230
     9  C    0.101022
    10  C    0.044513
    11  C   -0.235335
    12  C   -0.210217
    13  C    0.005391
    14  C    0.096313
    15  C   -0.276511
    16  C   -0.285540
    17  C   -0.293233
    18  C   -0.308728
    19  C   -0.131446
    20  C   -0.149542
    21  C   -0.319623
    22  C   -0.363685
    23  C   -0.067094
    24  C   -0.076403
    25  C    0.068727
    26  C    0.124292
    27  C   -0.358573
    28  C   -0.388063
    29  C   -0.121671
    30  C   -0.118934
    31  C   -0.076152
    32  C   -0.104659
    33  C   -0.138322
    34  C   -0.088678
    35  C    0.159306
    36  C    0.109152
    37  C   -0.394243
    38  C   -0.376011
    39  C   -0.148873
    40  C   -0.140761
    41  C   -0.111183
    42  C   -0.066523
    43  H    0.095732
    44  H    0.081053
    45  H    0.097982
    46  H    0.091709
    47  H    0.079055
    48  H    0.075559
    49  H    0.109785
    50  H    0.127862
    51  H    0.109815
    52  H    0.064759
    53  H    0.092519
    54  H    0.102733
    55  H    0.109094
    56  H    0.088235
    57  H    0.105050
    58  H    0.107439
    59  H    0.099698
    60  H    0.099148
    61  H    0.100909
    62  H    0.077544
    63  H    0.085546
    64  H    0.086653
    65  H    0.079794
    66  H    0.079025
    67  H    0.115382
    68  H    0.106149
    69  H    0.117752
    70  H    0.102147
    71  H    0.115301
    72  H    0.125632
    73  H    0.303102
    74  H    0.311900
    75  H    0.071229
    76  H    0.057717
    77  H    0.104691
    78  H    0.112697
    79  H    0.112454
    80  H    0.124236
    81  H    0.122583
    82  H    0.096469
    83  H    0.084855
    84  H    0.088645
    85  H    0.077061
    86  H    0.076766
    87  H    0.078983
    88  H    0.093167
    89  H    0.127078
    90  H    0.101389
    91  H    0.136785
    92  H    0.134458
    93  H    0.090842
    94  H    0.118252
    95  H    0.084343
    96  H    0.075669
    97  H    0.086169
    98  H    0.082730
 Sum of Mulliken charges =  -0.00000

 Dipole moment (field-independent basis, Debye):
    X=              0.5562    Y=             -0.9366    Z=              1.9852  Tot=              2.2644
 Quadrupole moment (field-independent basis, Debye-Ang):
   XX=           -270.6961   YY=           -242.7984   ZZ=           -260.6811
   XY=             -6.9188   XZ=             -7.0341   YZ=              3.5312

 Normal termination of Gaussian 16 at Fri Jul  5 11:39:29 2019.
