 Gaussian 16, Revision A.03,
 Gaussian 16:  ES64L-G16RevA.03 25-Dec-2016

 -------------------------------------
 # td=(NStates=1) CAM-B3LYP/6-31G(d,p)
 -------------------------------------

 --
 TD
 --
 Symbolic Z-matrix:
 Charge =  0 Multiplicity = 1

                         Standard orientation:
 ---------------------------------------------------------------------
 Center     Atomic      Atomic             Coordinates (Angstroms)
 Number     Number       Type             X           Y           Z
 ---------------------------------------------------------------------
      1          8           0       14.666664   -2.424604   -0.386726
      2          8           0      -14.765399    1.979865    0.824721
      3          6           0       11.482008   -1.079903    1.238726
      4          6           0      -12.311390   -0.959310    0.727837
      5          6           0       12.943100   -1.463174    1.011488
      6          6           0      -13.680813   -0.122619    0.847556
      7          6           0       13.268242   -2.008379   -0.318529
      8          6           0      -13.494176    1.279681    0.752298
      9          6           0       10.908808   -0.360041   -0.063254
     10          6           0      -11.354987   -0.335708   -0.230401
     11          6           0       12.975762   -0.927419   -1.370517
     12          6           0      -12.815747    1.686325   -0.418833
     13          6           0       11.614346   -0.280047   -1.214850
     14          6           0      -11.600723    0.869656   -0.788856
     15          6           0       11.528626   -0.191455    2.456186
     16          6           0       10.617319   -2.268184    1.623844
     17          6           0      -11.679493   -0.876679    2.161472
     18          6           0      -12.597238   -2.429031    0.517940
     19          6           0        9.644282    0.351589    0.152243
     20          6           0      -10.093870   -1.068211   -0.460491
     21          6           0       11.138133    0.457830   -2.296123
     22          6           0      -10.725100    1.441460   -1.828484
     23          6           0        9.311498    1.608373   -0.202966
     24          6           0       -8.815148   -0.570921   -0.309240
     25          6           0        8.047020    2.268195    0.090164
     26          6           0       -7.582818   -1.411243   -0.441794
     27          6           0        8.211906    3.751973    0.358981
     28          6           0       -7.599615   -2.783216   -0.895016
     29          6           0        6.908419    1.553368    0.002899
     30          6           0       -6.472801   -0.656453   -0.344378
     31          6           0        5.633060    1.997003    0.179201
     32          6           0       -5.155453   -1.151368   -0.600563
     33          6           0        4.449890    1.292119    0.072419
     34          6           0       -4.023494   -0.306991   -0.527417
     35          6           0        3.023802    1.735347    0.166721
     36          6           0       -2.600752   -0.739696   -0.567808
     37          6           0        2.852851    3.095087    0.514832
     38          6           0       -2.265614   -2.231452   -0.857041
     39          6           0        2.037259    0.830291   -0.106458
     40          6           0       -1.657799    0.271228   -0.218886
     41          6           0        0.645483    0.963459   -0.106518
     42          6           0       -0.280374   -0.058733   -0.236147
     43          1           0       13.521244   -0.585611    1.138646
     44          1           0       13.181843   -2.138719    1.804901
     45          1           0      -14.312707   -0.304615    1.745494
     46          1           0      -14.270317   -0.483145   -0.088355
     47          1           0       12.498012   -2.855796   -0.440534
     48          1           0      -12.894267    1.648472    1.704999
     49          1           0       13.743296   -0.127281   -1.265573
     50          1           0       13.011338   -1.357464   -2.326235
     51          1           0      -13.420012    1.513768   -1.321002
     52          1           0      -12.608368    2.833944   -0.138237
     53          1           0       11.900845   -0.850116    3.282582
     54          1           0       10.500174    0.252960    2.763589
     55          1           0       12.276089    0.666093    2.234892
     56          1           0       10.523269   -3.017276    0.928148
     57          1           0       11.001245   -2.782279    2.479907
     58          1           0        9.711676   -1.794476    1.989290
     59          1           0      -11.396902    0.282226    2.450785
     60          1           0      -10.868975   -1.510315    2.365060
     61          1           0      -12.684262   -1.069933    2.911722
     62          1           0      -13.402185   -2.895172    1.051236
     63          1           0      -11.640618   -2.989633    0.538733
     64          1           0      -12.722723   -2.659991   -0.505044
     65          1           0        8.984786   -0.173998    0.840782
     66          1           0      -10.153762   -2.189060   -0.620122
     67          1           0       10.092473    0.754319   -2.256385
     68          1           0       11.864004    1.245369   -2.435908
     69          1           0       11.092928   -0.176279   -3.231900
     70          1           0      -11.513831    1.755350   -2.808631
     71          1           0       -9.837362    0.903239   -2.271767
     72          1           0      -10.046012    2.277923   -1.409412
     73          1           0       14.808770   -3.005440    0.241386
     74          1           0      -15.118892    1.810123    1.664626
     75          1           0       10.109429    2.612404   -0.662546
     76          1           0       -8.678062    0.555946   -0.082804
     77          1           0        8.973605    4.098931   -0.384290
     78          1           0        7.214659    4.224887    0.168048
     79          1           0        8.480285    4.110870    1.384333
     80          1           0       -8.014753   -3.375907   -0.191851
     81          1           0       -8.309605   -2.878338   -1.816595
     82          1           0       -6.596779   -3.292302   -0.844987
     83          1           0        6.909774    0.493979   -0.205223
     84          1           0       -6.519361    0.377719   -0.101759
     85          1           0        5.407046    3.068054    0.389926
     86          1           0       -5.092559   -2.315113   -0.674121
     87          1           0        4.425829    0.240055   -0.135497
     88          1           0       -4.144251    0.818514   -0.573804
     89          1           0        3.101178    3.375620    1.575794
     90          1           0        1.820162    3.460330    0.553282
     91          1           0        3.379902    3.691003   -0.242156
     92          1           0       -2.720070   -2.756343    0.049200
     93          1           0       -2.818085   -2.757676   -1.684799
     94          1           0       -1.280917   -2.348794   -0.846285
     95          1           0        2.368081   -0.037076   -0.375257
     96          1           0       -2.036197    1.476356   -0.346021
     97          1           0        0.263090    1.965302   -0.106949
     98          1           0        0.120223   -1.264192   -0.188683
 ---------------------------------------------------------------------

 SCF Done:  E(RCAM-B3LYP) =  -1707.00201008     A.U. after   14 cycles

 Excitation energies and oscillator strengths:

 Excited State   1:      Singlet-A      2.4790 eV  500.13 nm  f=3.7017  <S**2>=0.000
     155 ->158         0.16926
     156 ->157         0.68349
 This state for optimization and/or second-order correction.
 Total Energy, E(TD-HF/TD-DFT) =  -1706.91090728
 Copying the excited state density for this state as the 1-particle RhoCI density.

 The electronic state is 1-A.
 Alpha  occ. eigenvalues --  -19.20406 -19.20215 -10.30779 -10.29645 -10.28853
 Alpha  occ. eigenvalues --  -10.28488 -10.28364 -10.27934 -10.27730 -10.27649
 Alpha  occ. eigenvalues --  -10.27480 -10.27363 -10.27121 -10.27099 -10.27055
 Alpha  occ. eigenvalues --  -10.26940 -10.26888 -10.26569 -10.26428 -10.26404
 Alpha  occ. eigenvalues --  -10.26391 -10.26251 -10.26085 -10.26067 -10.26030
 Alpha  occ. eigenvalues --  -10.26026 -10.25873 -10.25804 -10.25724 -10.25686
 Alpha  occ. eigenvalues --  -10.25515 -10.25464 -10.25461 -10.25284 -10.25197
 Alpha  occ. eigenvalues --  -10.25163 -10.25034 -10.24394 -10.24173 -10.23745
 Alpha  occ. eigenvalues --  -10.23521 -10.23511  -1.10457  -1.09351  -0.94291
 Alpha  occ. eigenvalues --   -0.94127  -0.92321  -0.91910  -0.91089  -0.89735
 Alpha  occ. eigenvalues --   -0.88834  -0.87193  -0.86818  -0.86155  -0.85432
 Alpha  occ. eigenvalues --   -0.83769  -0.82662  -0.80866  -0.80456  -0.79155
 Alpha  occ. eigenvalues --   -0.77487  -0.77062  -0.76671  -0.76526  -0.75807
 Alpha  occ. eigenvalues --   -0.75460  -0.75145  -0.74447  -0.73505  -0.70532
 Alpha  occ. eigenvalues --   -0.68748  -0.66987  -0.65790  -0.64292  -0.63927
 Alpha  occ. eigenvalues --   -0.63222  -0.62066  -0.61050  -0.60448  -0.60193
 Alpha  occ. eigenvalues --   -0.59689  -0.58905  -0.58394  -0.57690  -0.56283
 Alpha  occ. eigenvalues --   -0.55871  -0.55756  -0.55016  -0.54899  -0.54507
 Alpha  occ. eigenvalues --   -0.53709  -0.53520  -0.52803  -0.52146  -0.51660
 Alpha  occ. eigenvalues --   -0.50714  -0.50178  -0.50080  -0.49572  -0.49478
 Alpha  occ. eigenvalues --   -0.49289  -0.49161  -0.48829  -0.48632  -0.47916
 Alpha  occ. eigenvalues --   -0.47840  -0.47663  -0.46970  -0.46833  -0.46630
 Alpha  occ. eigenvalues --   -0.46418  -0.46146  -0.45733  -0.45428  -0.44681
 Alpha  occ. eigenvalues --   -0.44503  -0.44179  -0.44019  -0.43780  -0.43369
 Alpha  occ. eigenvalues --   -0.43008  -0.42771  -0.42201  -0.42117  -0.41704
 Alpha  occ. eigenvalues --   -0.41633  -0.41244  -0.41220  -0.41058  -0.40491
 Alpha  occ. eigenvalues --   -0.40406  -0.39997  -0.39936  -0.39647  -0.39320
 Alpha  occ. eigenvalues --   -0.39048  -0.38905  -0.38715  -0.38425  -0.38132
 Alpha  occ. eigenvalues --   -0.37752  -0.37678  -0.36996  -0.36892  -0.36261
 Alpha  occ. eigenvalues --   -0.34768  -0.34577  -0.33777  -0.32667  -0.32525
 Alpha  occ. eigenvalues --   -0.32245  -0.29503  -0.27983  -0.26016  -0.23610
 Alpha  occ. eigenvalues --   -0.20084
 Alpha virt. eigenvalues --   -0.04907  -0.00768   0.02684   0.05713   0.07440
 Alpha virt. eigenvalues --    0.09006   0.10197   0.10737   0.11433   0.11586
 Alpha virt. eigenvalues --    0.11782   0.12176   0.12319   0.13015   0.13526

 Mulliken charges:
               1
     1  O   -0.545099
     2  O   -0.561693
     3  C   -0.041075
     4  C   -0.023255
     5  C   -0.174820
     6  C   -0.180675
     7  C    0.155470
     8  C    0.173615
     9  C    0.080380
    10  C    0.090239
    11  C   -0.210747
    12  C   -0.194620
    13  C    0.057931
    14  C    0.047790
    15  C   -0.284123
    16  C   -0.296141
    17  C   -0.260335
    18  C   -0.316276
    19  C   -0.153370
    20  C   -0.166946
    21  C   -0.370915
    22  C   -0.346476
    23  C   -0.083119
    24  C   -0.084903
    25  C    0.077102
    26  C    0.115967
    27  C   -0.365019
    28  C   -0.379931
    29  C   -0.083745
    30  C   -0.098075
    31  C   -0.084669
    32  C   -0.101028
    33  C   -0.130995
    34  C   -0.124595
    35  C    0.139597
    36  C    0.082634
    37  C   -0.399787
    38  C   -0.349005
    39  C   -0.106533
    40  C   -0.129930
    41  C   -0.089213
    42  C   -0.078481
    43  H    0.100020
    44  H    0.075622
    45  H    0.075873
    46  H    0.087763
    47  H    0.066374
    48  H    0.060870
    49  H    0.117571
    50  H    0.113827
    51  H    0.121747
    52  H    0.103727
    53  H    0.097098
    54  H    0.091287
    55  H    0.095016
    56  H    0.109557
    57  H    0.095140
    58  H    0.101867
    59  H    0.075502
    60  H    0.114951
    61  H    0.055104
    62  H    0.115190
    63  H    0.094754
    64  H    0.106105
    65  H    0.095449
    66  H    0.072594
    67  H    0.130895
    68  H    0.115497
    69  H    0.091278
    70  H    0.069456
    71  H    0.121919
    72  H    0.101342
    73  H    0.289398
    74  H    0.297586
    75  H    0.051407
    76  H    0.087392
    77  H    0.111523
    78  H    0.108751
    79  H    0.128466
    80  H    0.135799
    81  H    0.125144
    82  H    0.104304
    83  H    0.086326
    84  H    0.081972
    85  H    0.072068
    86  H    0.073378
    87  H    0.065297
    88  H    0.084260
    89  H    0.122377
    90  H    0.102815
    91  H    0.125072
    92  H    0.117956
    93  H    0.127315
    94  H    0.113157
    95  H    0.057222
    96  H    0.087576
    97  H    0.079999
    98  H    0.084912
 Sum of Mulliken charges =  -0.00000

 Dipole moment (field-independent basis, Debye):
    X=              0.3070    Y=             -1.7657    Z=              1.8564  Tot=              2.5803
 Quadrupole moment (field-independent basis, Debye-Ang):
   XX=           -302.7619   YY=           -243.0881   ZZ=           -262.8718
   XY=             19.6734   XZ=              1.8841   YZ=              0.4493

 Normal termination of Gaussian 16 at Thu Jul  4 06:06:12 2019.
