 Gaussian 16, Revision A.03,
 Gaussian 16:  ES64L-G16RevA.03 25-Dec-2016

 -------------------------------------
 # td=(NStates=1) CAM-B3LYP/6-31G(d,p)
 -------------------------------------

 --
 TD
 --
 Symbolic Z-matrix:
 Charge =  0 Multiplicity = 1

                         Standard orientation:
 ---------------------------------------------------------------------
 Center     Atomic      Atomic             Coordinates (Angstroms)
 Number     Number       Type             X           Y           Z
 ---------------------------------------------------------------------
      1          8           0       14.822681   -1.976879   -0.356601
      2          8           0      -14.712688    2.021316    0.823751
      3          6           0       11.467262   -1.049675    1.195416
      4          6           0      -12.292643   -0.934208    0.844243
      5          6           0       12.955652   -1.429558    1.129585
      6          6           0      -13.551216   -0.051137    0.830481
      7          6           0       13.404335   -1.709854   -0.288286
      8          6           0      -13.478939    1.443004    0.930125
      9          6           0       10.976836   -0.333241    0.000737
     10          6           0      -11.303101   -0.244283   -0.159355
     11          6           0       13.207509   -0.615610   -1.188323
     12          6           0      -12.895709    1.805181   -0.407464
     13          6           0       11.695393   -0.072320   -1.135872
     14          6           0      -11.685305    0.918007   -0.809073
     15          6           0       11.242214   -0.313478    2.521372
     16          6           0       10.763773   -2.435603    1.238091
     17          6           0      -11.618947   -0.856131    2.142491
     18          6           0      -12.635854   -2.350505    0.468713
     19          6           0        9.675638    0.357400    0.139523
     20          6           0      -10.129184   -1.053582   -0.437838
     21          6           0       11.218594    0.600474   -2.364361
     22          6           0      -10.794504    1.512232   -1.950953
     23          6           0        9.358542    1.669413   -0.028394
     24          6           0       -8.835849   -0.565956   -0.367511
     25          6           0        7.965525    2.219213   -0.017599
     26          6           0       -7.657358   -1.257156   -0.633277
     27          6           0        7.930369    3.686396    0.245119
     28          6           0       -7.636488   -2.740594   -1.098534
     29          6           0        6.853025    1.426508   -0.000705
     30          6           0       -6.448525   -0.666795   -0.450304
     31          6           0        5.492369    1.924481    0.199038
     32          6           0       -5.101596   -1.200296   -0.632047
     33          6           0        4.409909    1.183694   -0.036535
     34          6           0       -4.051565   -0.472505   -0.215372
     35          6           0        3.046172    1.499093    0.158433
     36          6           0       -2.661488   -0.964764   -0.371381
     37          6           0        2.704355    2.916647    0.601391
     38          6           0       -2.311373   -2.404581   -0.806383
     39          6           0        2.095036    0.675361   -0.096789
     40          6           0       -1.725354   -0.033052   -0.165891
     41          6           0        0.644936    0.717636    0.003095
     42          6           0       -0.231702   -0.149977   -0.411645
     43          1           0       13.477943   -0.519225    1.318658
     44          1           0       13.075956   -2.166152    2.060474
     45          1           0      -14.120157   -0.397742    1.774038
     46          1           0      -14.252365   -0.310189    0.057111
     47          1           0       12.971075   -2.660152   -0.580287
     48          1           0      -12.683152    1.710678    1.583099
     49          1           0       13.913354    0.181110   -1.002884
     50          1           0       13.433481   -0.778581   -2.269366
     51          1           0      -13.449499    1.962709   -1.428939
     52          1           0      -12.372514    2.913551   -0.252218
     53          1           0       11.415327   -1.001721    3.410825
     54          1           0       10.136135   -0.057826    2.676434
     55          1           0       11.904387    0.625901    2.664178
     56          1           0       10.851057   -2.866903    0.274330
     57          1           0       11.061678   -3.051522    2.227279
     58          1           0        9.696215   -2.239962    1.303081
     59          1           0      -11.599531    0.327397    2.523647
     60          1           0      -10.646012   -1.210578    2.055675
     61          1           0      -11.851740   -1.582409    3.108818
     62          1           0      -13.530434   -2.775258    0.816513
     63          1           0      -11.796820   -2.888457    0.689876
     64          1           0      -12.615338   -2.321573   -0.657590
     65          1           0        8.879698   -0.293257    0.654945
     66          1           0      -10.297930   -2.121766   -0.358706
     67          1           0       10.293255    1.071982   -2.230531
     68          1           0       12.003352    1.215548   -2.678348
     69          1           0       11.263592   -0.150502   -3.171673
     70          1           0      -11.430849    2.115254   -2.658559
     71          1           0      -10.339737    0.520462   -2.463150
     72          1           0      -10.022555    2.109328   -1.417410
     73          1           0       15.199231   -2.664414    0.217027
     74          1           0      -15.057586    2.363839    1.746780
     75          1           0        9.959179    2.302013   -0.457797
     76          1           0       -8.718530    0.531516   -0.138309
     77          1           0        8.466919    4.229472   -0.487895
     78          1           0        6.899019    4.031130   -0.010104
     79          1           0        8.340706    3.861227    1.319656
     80          1           0       -8.202530   -3.381710   -0.178335
     81          1           0       -8.366624   -2.972372   -1.863651
     82          1           0       -6.745996   -3.395478   -1.082473
     83          1           0        7.091660    0.413884   -0.089381
     84          1           0       -6.379533    0.339008   -0.283740
     85          1           0        5.387401    3.019388    0.566644
     86          1           0       -5.053335   -2.189452   -1.045122
     87          1           0        4.746766    0.170495   -0.535753
     88          1           0       -4.188494    0.587709    0.052211
     89          1           0        2.962448    3.308854    1.533753
     90          1           0        1.734559    3.207945    0.832397
     91          1           0        3.093033    3.700849   -0.172580
     92          1           0       -2.754316   -3.139731   -0.107623
     93          1           0       -2.795348   -2.665973   -1.781792
     94          1           0       -1.320186   -2.629994   -0.872564
     95          1           0        2.652772   -0.274317   -0.467867
     96          1           0       -2.007371    0.956117    0.328386
     97          1           0        0.244982    1.757574    0.498451
     98          1           0        0.198880   -1.082493   -0.730619
 ---------------------------------------------------------------------

 SCF Done:  E(RCAM-B3LYP) =  -1707.02065709     A.U. after   13 cycles

 Excitation energies and oscillator strengths:

 Excited State   1:      Singlet-A      3.1014 eV  399.77 nm  f=3.7483  <S**2>=0.000
     155 ->158         0.24459
     156 ->157         0.64414
 This state for optimization and/or second-order correction.
 Total Energy, E(TD-HF/TD-DFT) =  -1706.90668205
 Copying the excited state density for this state as the 1-particle RhoCI density.

 The electronic state is 1-A.
 Alpha  occ. eigenvalues --  -19.22635 -19.19633 -10.30017 -10.29768 -10.27615
 Alpha  occ. eigenvalues --  -10.27411 -10.27192 -10.27065 -10.27047 -10.26986
 Alpha  occ. eigenvalues --  -10.26861 -10.26833 -10.26707 -10.26630 -10.26599
 Alpha  occ. eigenvalues --  -10.26582 -10.26484 -10.26447 -10.26301 -10.26291
 Alpha  occ. eigenvalues --  -10.26176 -10.26105 -10.26030 -10.25888 -10.25807
 Alpha  occ. eigenvalues --  -10.25805 -10.25794 -10.25778 -10.25642 -10.25511
 Alpha  occ. eigenvalues --  -10.25460 -10.25281 -10.25216 -10.25122 -10.25091
 Alpha  occ. eigenvalues --  -10.25022 -10.25012 -10.24909 -10.24631 -10.24416
 Alpha  occ. eigenvalues --  -10.23479 -10.23423  -1.10712  -1.07591  -0.94095
 Alpha  occ. eigenvalues --   -0.93344  -0.92392  -0.91592  -0.90440  -0.89914
 Alpha  occ. eigenvalues --   -0.87421  -0.87093  -0.86132  -0.85709  -0.84927
 Alpha  occ. eigenvalues --   -0.83381  -0.82378  -0.80728  -0.79257  -0.78137
 Alpha  occ. eigenvalues --   -0.77082  -0.76941  -0.76492  -0.76029  -0.75726
 Alpha  occ. eigenvalues --   -0.75380  -0.75157  -0.74189  -0.73718  -0.70205
 Alpha  occ. eigenvalues --   -0.69006  -0.67686  -0.65674  -0.65246  -0.64058
 Alpha  occ. eigenvalues --   -0.63262  -0.62121  -0.61636  -0.61048  -0.60422
 Alpha  occ. eigenvalues --   -0.60044  -0.59259  -0.58782  -0.57677  -0.56286
 Alpha  occ. eigenvalues --   -0.56087  -0.54950  -0.54700  -0.54356  -0.53756
 Alpha  occ. eigenvalues --   -0.52849  -0.52239  -0.51838  -0.51657  -0.50684
 Alpha  occ. eigenvalues --   -0.50416  -0.49998  -0.49695  -0.49362  -0.49278
 Alpha  occ. eigenvalues --   -0.49010  -0.48677  -0.48467  -0.48225  -0.47926
 Alpha  occ. eigenvalues --   -0.47745  -0.47594  -0.47054  -0.46793  -0.46656
 Alpha  occ. eigenvalues --   -0.45907  -0.45749  -0.45287  -0.44917  -0.44629
 Alpha  occ. eigenvalues --   -0.44076  -0.43870  -0.43689  -0.43528  -0.43364
 Alpha  occ. eigenvalues --   -0.42833  -0.42287  -0.41984  -0.41948  -0.41689
 Alpha  occ. eigenvalues --   -0.41440  -0.41123  -0.40886  -0.40784  -0.40663
 Alpha  occ. eigenvalues --   -0.40567  -0.40159  -0.39726  -0.39619  -0.39074
 Alpha  occ. eigenvalues --   -0.38895  -0.38576  -0.38369  -0.38057  -0.37733
 Alpha  occ. eigenvalues --   -0.37524  -0.37072  -0.36794  -0.36191  -0.35589
 Alpha  occ. eigenvalues --   -0.35517  -0.34566  -0.33699  -0.32225  -0.31313
 Alpha  occ. eigenvalues --   -0.31121  -0.29871  -0.28047  -0.26580  -0.23542
 Alpha  occ. eigenvalues --   -0.21553
 Alpha virt. eigenvalues --   -0.03161  -0.00667   0.02786   0.06082   0.08299
 Alpha virt. eigenvalues --    0.09802   0.10736   0.11411   0.11691   0.12312
 Alpha virt. eigenvalues --    0.12557   0.12965   0.13176   0.13335   0.14273

 Mulliken charges:
               1
     1  O   -0.594732
     2  O   -0.549943
     3  C   -0.028396
     4  C    0.002007
     5  C   -0.174188
     6  C   -0.178905
     7  C    0.191363
     8  C    0.181025
     9  C    0.066001
    10  C    0.050036
    11  C   -0.223186
    12  C   -0.199301
    13  C    0.031908
    14  C    0.016474
    15  C   -0.293792
    16  C   -0.293480
    17  C   -0.273140
    18  C   -0.312136
    19  C   -0.141117
    20  C   -0.156193
    21  C   -0.357644
    22  C   -0.343477
    23  C   -0.059983
    24  C   -0.098710
    25  C    0.034402
    26  C    0.153857
    27  C   -0.358759
    28  C   -0.379699
    29  C   -0.091808
    30  C   -0.141416
    31  C   -0.093561
    32  C   -0.068133
    33  C   -0.135009
    34  C   -0.116385
    35  C    0.175719
    36  C    0.120323
    37  C   -0.385112
    38  C   -0.368765
    39  C   -0.148362
    40  C   -0.149518
    41  C   -0.068760
    42  C   -0.081978
    43  H    0.096654
    44  H    0.078177
    45  H    0.054531
    46  H    0.100937
    47  H    0.082501
    48  H    0.100050
    49  H    0.127859
    50  H    0.105643
    51  H    0.114195
    52  H    0.063117
    53  H    0.088766
    54  H    0.099337
    55  H    0.100164
    56  H    0.114813
    57  H    0.084937
    58  H    0.096668
    59  H    0.064015
    60  H    0.116664
    61  H    0.064558
    62  H    0.116322
    63  H    0.106901
    64  H    0.102792
    65  H    0.078113
    66  H    0.082347
    67  H    0.124546
    68  H    0.120504
    69  H    0.117851
    70  H    0.100244
    71  H    0.109747
    72  H    0.120390
    73  H    0.300822
    74  H    0.306972
    75  H    0.072749
    76  H    0.087023
    77  H    0.116652
    78  H    0.103743
    79  H    0.122814
    80  H    0.069700
    81  H    0.130596
    82  H    0.124442
    83  H    0.075962
    84  H    0.069274
    85  H    0.089118
    86  H    0.080269
    87  H    0.078315
    88  H    0.093727
    89  H    0.118554
    90  H    0.107306
    91  H    0.103252
    92  H    0.121286
    93  H    0.116390
    94  H    0.122954
    95  H    0.062954
    96  H    0.081529
    97  H    0.067850
    98  H    0.084879
 Sum of Mulliken charges =  -0.00000

 Dipole moment (field-independent basis, Debye):
    X=              0.8315    Y=             -0.3718    Z=              1.7724  Tot=              1.9928
 Quadrupole moment (field-independent basis, Debye-Ang):
   XX=           -271.7401   YY=           -240.4938   ZZ=           -258.9314
   XY=             -5.3835   XZ=            -10.0083   YZ=              4.3363

 Normal termination of Gaussian 16 at Sun Jun 30 13:34:57 2019.
