 Gaussian 16, Revision A.03,
 Gaussian 16:  ES64L-G16RevA.03 25-Dec-2016

 -------------------------------------
 # td=(NStates=1) CAM-B3LYP/6-31G(d,p)
 -------------------------------------

 --
 TD
 --
 Symbolic Z-matrix:
 Charge =  0 Multiplicity = 1

                         Standard orientation:
 ---------------------------------------------------------------------
 Center     Atomic      Atomic             Coordinates (Angstroms)
 Number     Number       Type             X           Y           Z
 ---------------------------------------------------------------------
      1          8           0       14.833746   -1.942128   -0.037615
      2          8           0      -14.594817    2.188063    1.047437
      3          6           0       11.400857   -1.018661    1.304630
      4          6           0      -12.278974   -0.881611    0.807599
      5          6           0       12.871538   -1.239335    1.244633
      6          6           0      -13.546024   -0.108752    0.930236
      7          6           0       13.395252   -1.780621   -0.062897
      8          6           0      -13.352921    1.368945    0.848329
      9          6           0       11.002839   -0.303709   -0.008107
     10          6           0      -11.383490   -0.220221   -0.165522
     11          6           0       13.057625   -0.932005   -1.319591
     12          6           0      -12.655517    1.857313   -0.409785
     13          6           0       11.716320   -0.288121   -1.143148
     14          6           0      -11.450601    1.016548   -0.749908
     15          6           0       11.214517   -0.163800    2.548532
     16          6           0       10.643692   -2.393116    1.416517
     17          6           0      -11.545127   -1.150886    2.188914
     18          6           0      -12.783869   -2.189762    0.296783
     19          6           0        9.651961    0.373828    0.132274
     20          6           0      -10.118827   -1.139192   -0.515311
     21          6           0       11.161099    0.202634   -2.420409
     22          6           0      -10.624218    1.670046   -1.714932
     23          6           0        9.392738    1.642292   -0.198958
     24          6           0       -8.844621   -0.655192   -0.345398
     25          6           0        8.020141    2.283166   -0.072732
     26          6           0       -7.632608   -1.374298   -0.533361
     27          6           0        8.058483    3.821172    0.218219
     28          6           0       -7.665580   -2.775993   -1.079587
     29          6           0        6.835276    1.582571   -0.128830
     30          6           0       -6.468668   -0.652587   -0.371966
     31          6           0        5.561069    1.941200    0.091734
     32          6           0       -5.180974   -1.215947   -0.558256
     33          6           0        4.422445    1.178584   -0.113610
     34          6           0       -4.045119   -0.513078   -0.309841
     35          6           0        3.026905    1.572637    0.002384
     36          6           0       -2.700153   -0.891899   -0.566372
     37          6           0        2.742711    2.969030    0.570436
     38          6           0       -2.512673   -2.341496   -0.861136
     39          6           0        2.029083    0.606680   -0.186344
     40          6           0       -1.687754    0.004139   -0.262039
     41          6           0        0.610838    0.841650   -0.189780
     42          6           0       -0.261684   -0.137463   -0.486615
     43          1           0       13.233857    0.051827    1.447519
     44          1           0       13.431297   -1.903740    1.894538
     45          1           0      -14.191439   -0.301768    1.861963
     46          1           0      -14.118038   -0.351869    0.035068
     47          1           0       13.195200   -2.842423   -0.210642
     48          1           0      -12.611882    1.512449    1.797571
     49          1           0       13.960514   -0.322748   -1.149871
     50          1           0       13.138515   -1.485676   -2.333831
     51          1           0      -13.320574    1.931139   -1.069474
     52          1           0      -12.348949    2.889673   -0.174071
     53          1           0       11.583699   -0.701489    3.350595
     54          1           0       10.099192   -0.086316    2.847487
     55          1           0       11.574275    0.892806    2.325536
     56          1           0       10.775341   -2.917619    0.539971
     57          1           0       10.951232   -2.897723    2.249549
     58          1           0        9.585727   -2.264217    1.483252
     59          1           0      -11.235286   -0.204891    2.652397
     60          1           0      -10.716758   -1.758035    2.026922
     61          1           0      -12.417331   -1.660797    2.918351
     62          1           0      -13.541958   -2.437223    1.085014
     63          1           0      -12.022247   -2.941499    0.359101
     64          1           0      -13.135403   -2.059815   -0.774174
     65          1           0        8.875006   -0.280034    0.580786
     66          1           0      -10.303750   -2.145362   -0.790542
     67          1           0       10.105343    0.519240   -2.539449
     68          1           0       11.709645    1.298031   -2.414005
     69          1           0       11.447439   -0.273169   -3.287070
     70          1           0      -11.251004    2.244702   -2.532371
     71          1           0       -9.903887    0.922617   -2.087711
     72          1           0      -10.029008    2.529263   -1.365305
     73          1           0       14.939106   -2.646917    0.458127
     74          1           0      -15.216045    1.807948    1.788762
     75          1           0       10.284239    2.231115   -0.303951
     76          1           0       -8.888600    0.407598   -0.048054
     77          1           0        8.213410    4.276186   -0.754639
     78          1           0        6.992192    4.275579    0.451335
     79          1           0        8.596136    3.815616    1.091020
     80          1           0       -8.380871   -3.363693   -0.373032
     81          1           0       -7.897751   -3.013498   -2.231844
     82          1           0       -6.734602   -3.351477   -0.859886
     83          1           0        7.219558    0.449278   -0.331866
     84          1           0       -6.548666    0.251438    0.058103
     85          1           0        5.299732    2.939668    0.565724
     86          1           0       -4.973517   -2.274007   -1.149766
     87          1           0        4.461950    0.120128   -0.416397
     88          1           0       -4.123218    0.401473    0.218194
     89          1           0        3.134129    2.978021    1.384304
     90          1           0        1.638722    3.209524    0.607862
     91          1           0        3.284490    3.818664    0.016696
     92          1           0       -2.891099   -3.039303   -0.081470
     93          1           0       -2.773357   -2.907686   -1.865663
     94          1           0       -1.526193   -2.502315   -0.641536
     95          1           0        2.581177   -0.081767   -0.741455
     96          1           0       -2.010397    1.007024   -0.003035
     97          1           0        0.169460    1.813486    0.092284
     98          1           0        0.263891   -0.933032   -0.696215
 ---------------------------------------------------------------------

 SCF Done:  E(RCAM-B3LYP) =  -1706.94674304     A.U. after   14 cycles

 Excitation energies and oscillator strengths:

 Excited State   1:      Singlet-A      2.5433 eV  487.49 nm  f=3.7388  <S**2>=0.000
     155 ->158        -0.17114
     156 ->157         0.68181
 This state for optimization and/or second-order correction.
 Total Energy, E(TD-HF/TD-DFT) =  -1706.85327845
 Copying the excited state density for this state as the 1-particle RhoCI density.

 The electronic state is 1-A.
 Alpha  occ. eigenvalues --  -19.20872 -19.19953 -10.30548 -10.30438 -10.28127
 Alpha  occ. eigenvalues --  -10.27836 -10.27525 -10.27309 -10.27170 -10.27136
 Alpha  occ. eigenvalues --  -10.27079 -10.26967 -10.26957 -10.26852 -10.26755
 Alpha  occ. eigenvalues --  -10.26702 -10.26702 -10.26661 -10.26624 -10.26497
 Alpha  occ. eigenvalues --  -10.26412 -10.26264 -10.26237 -10.26209 -10.26024
 Alpha  occ. eigenvalues --  -10.25877 -10.25864 -10.25845 -10.25799 -10.25770
 Alpha  occ. eigenvalues --  -10.25356 -10.25356 -10.25344 -10.25298 -10.25114
 Alpha  occ. eigenvalues --  -10.25105 -10.25016 -10.24680 -10.24659 -10.24444
 Alpha  occ. eigenvalues --  -10.23672 -10.23096  -1.11536  -1.04936  -0.94369
 Alpha  occ. eigenvalues --   -0.94182  -0.92304  -0.91648  -0.90655  -0.89803
 Alpha  occ. eigenvalues --   -0.88363  -0.88105  -0.87533  -0.85602  -0.84655
 Alpha  occ. eigenvalues --   -0.82995  -0.82372  -0.80615  -0.79696  -0.78968
 Alpha  occ. eigenvalues --   -0.77839  -0.77060  -0.76492  -0.76311  -0.76107
 Alpha  occ. eigenvalues --   -0.75729  -0.75714  -0.75515  -0.74322  -0.70523
 Alpha  occ. eigenvalues --   -0.68798  -0.67085  -0.65532  -0.65119  -0.64512
 Alpha  occ. eigenvalues --   -0.63960  -0.63029  -0.62653  -0.60271  -0.59886
 Alpha  occ. eigenvalues --   -0.59326  -0.58896  -0.58119  -0.57408  -0.55926
 Alpha  occ. eigenvalues --   -0.55685  -0.55426  -0.54760  -0.54725  -0.54401
 Alpha  occ. eigenvalues --   -0.53241  -0.52680  -0.52400  -0.52334  -0.51846
 Alpha  occ. eigenvalues --   -0.51565  -0.50974  -0.50458  -0.50079  -0.49862
 Alpha  occ. eigenvalues --   -0.49509  -0.49478  -0.49186  -0.48708  -0.48303
 Alpha  occ. eigenvalues --   -0.47690  -0.47532  -0.47114  -0.46947  -0.46495
 Alpha  occ. eigenvalues --   -0.46355  -0.45756  -0.45549  -0.45099  -0.44403
 Alpha  occ. eigenvalues --   -0.44220  -0.43756  -0.43666  -0.43466  -0.43360
 Alpha  occ. eigenvalues --   -0.42876  -0.42751  -0.42585  -0.42177  -0.41985
 Alpha  occ. eigenvalues --   -0.41879  -0.41184  -0.41117  -0.41024  -0.40680
 Alpha  occ. eigenvalues --   -0.40570  -0.40417  -0.40000  -0.39827  -0.39449
 Alpha  occ. eigenvalues --   -0.39408  -0.39322  -0.38724  -0.38597  -0.38179
 Alpha  occ. eigenvalues --   -0.38044  -0.37288  -0.36352  -0.36250  -0.35390
 Alpha  occ. eigenvalues --   -0.35238  -0.35101  -0.34137  -0.32635  -0.32289
 Alpha  occ. eigenvalues --   -0.30969  -0.29421  -0.28034  -0.26897  -0.23718
 Alpha  occ. eigenvalues --   -0.20417
 Alpha virt. eigenvalues --   -0.04981  -0.00947   0.03106   0.05772   0.07566
 Alpha virt. eigenvalues --    0.08966   0.11032   0.11236   0.11480   0.11963
 Alpha virt. eigenvalues --    0.12416   0.12484   0.12529   0.13116   0.13614

 Mulliken charges:
               1
     1  O   -0.547740
     2  O   -0.593440
     3  C   -0.012290
     4  C   -0.024713
     5  C   -0.126277
     6  C   -0.178766
     7  C    0.119882
     8  C    0.163376
     9  C    0.005835
    10  C    0.036406
    11  C   -0.232548
    12  C   -0.205691
    13  C    0.083825
    14  C    0.086830
    15  C   -0.288856
    16  C   -0.308313
    17  C   -0.280722
    18  C   -0.282167
    19  C   -0.103726
    20  C   -0.173088
    21  C   -0.354818
    22  C   -0.383989
    23  C   -0.104456
    24  C   -0.087528
    25  C    0.026216
    26  C    0.110397
    27  C   -0.354644
    28  C   -0.369779
    29  C   -0.085542
    30  C   -0.097903
    31  C   -0.098734
    32  C   -0.090153
    33  C   -0.111981
    34  C   -0.108496
    35  C    0.082716
    36  C    0.127535
    37  C   -0.359078
    38  C   -0.389698
    39  C   -0.140867
    40  C   -0.150745
    41  C   -0.086904
    42  C   -0.041363
    43  H    0.047895
    44  H    0.072800
    45  H    0.071420
    46  H    0.097905
    47  H    0.082443
    48  H    0.042639
    49  H    0.145158
    50  H    0.102235
    51  H    0.125949
    52  H    0.109474
    53  H    0.112315
    54  H    0.081248
    55  H    0.106406
    56  H    0.114793
    57  H    0.107240
    58  H    0.103749
    59  H    0.110310
    60  H    0.121557
    61  H    0.066176
    62  H    0.099131
    63  H    0.093926
    64  H    0.103908
    65  H    0.095226
    66  H    0.089590
    67  H    0.125836
    68  H    0.089093
    69  H    0.116203
    70  H    0.100087
    71  H    0.121858
    72  H    0.120513
    73  H    0.286731
    74  H    0.305240
    75  H    0.095297
    76  H    0.091280
    77  H    0.137905
    78  H    0.088752
    79  H    0.138213
    80  H    0.101861
    81  H    0.114796
    82  H    0.113207
    83  H    0.063611
    84  H    0.081344
    85  H    0.083553
    86  H    0.079479
    87  H    0.075051
    88  H    0.072140
    89  H    0.141775
    90  H    0.101665
    91  H    0.103240
    92  H    0.121761
    93  H    0.110669
    94  H    0.116830
    95  H    0.089456
    96  H    0.086308
    97  H    0.081959
    98  H    0.072791
 Sum of Mulliken charges =  -0.00000

 Dipole moment (field-independent basis, Debye):
    X=              1.5822    Y=             -2.3154    Z=              1.3908  Tot=              3.1303
 Quadrupole moment (field-independent basis, Debye-Ang):
   XX=           -289.4691   YY=           -245.6832   ZZ=           -258.5459
   XY=              6.1223   XZ=              0.7610   YZ=              0.3630

 Normal termination of Gaussian 16 at Mon Jul  1 01:35:37 2019.
