 Gaussian 16, Revision A.03,
 Gaussian 16:  ES64L-G16RevA.03 25-Dec-2016

 -------------------------------------
 # td=(NStates=1) CAM-B3LYP/6-31G(d,p)
 -------------------------------------

 --
 TD
 --
 Symbolic Z-matrix:
 Charge =  0 Multiplicity = 1

                         Standard orientation:
 ---------------------------------------------------------------------
 Center     Atomic      Atomic             Coordinates (Angstroms)
 Number     Number       Type             X           Y           Z
 ---------------------------------------------------------------------
      1          8           0       14.696206   -2.038825   -0.426925
      2          8           0      -14.742614    2.046724    0.779766
      3          6           0       11.392085   -1.069913    1.285483
      4          6           0      -12.199317   -0.887129    0.916363
      5          6           0       12.876877   -1.369128    1.076434
      6          6           0      -13.565848   -0.097103    0.981030
      7          6           0       13.237546   -1.937917   -0.254267
      8          6           0      -13.459623    1.369844    0.832571
      9          6           0       10.920817   -0.259704    0.081110
     10          6           0      -11.375546   -0.205711   -0.104843
     11          6           0       12.982188   -0.798752   -1.294541
     12          6           0      -12.756183    1.770818   -0.418065
     13          6           0       11.651467   -0.231488   -1.059437
     14          6           0      -11.552747    0.911044   -0.769390
     15          6           0       11.305398   -0.251311    2.577723
     16          6           0       10.684886   -2.490520    1.499389
     17          6           0      -11.555053   -0.842150    2.305747
     18          6           0      -12.441269   -2.359805    0.640172
     19          6           0        9.563570    0.333532    0.192895
     20          6           0      -10.095863   -1.095020   -0.330471
     21          6           0       11.075635    0.507241   -2.311001
     22          6           0      -10.684921    1.512607   -1.822406
     23          6           0        9.363269    1.648613    0.072837
     24          6           0       -8.846292   -0.601829   -0.346733
     25          6           0        7.988551    2.282329    0.149298
     26          6           0       -7.674473   -1.335246   -0.623961
     27          6           0        8.089517    3.802776    0.488191
     28          6           0       -7.812782   -2.806626   -1.008033
     29          6           0        6.880007    1.589346   -0.059505
     30          6           0       -6.438114   -0.789246   -0.345890
     31          6           0        5.532572    2.062581   -0.042689
     32          6           0       -5.094024   -1.333987   -0.517665
     33          6           0        4.477401    1.240814   -0.182171
     34          6           0       -4.023387   -0.466319   -0.571853
     35          6           0        3.084301    1.528840    0.037413
     36          6           0       -2.641571   -0.775505   -0.679825
     37          6           0        2.795553    2.913755    0.506247
     38          6           0       -2.406041   -2.251566   -1.004299
     39          6           0        2.134304    0.603847   -0.231095
     40          6           0       -1.652609    0.046567   -0.335412
     41          6           0        0.714079    0.902102   -0.268284
     42          6           0       -0.208211   -0.087895   -0.480284
     43          1           0       13.506964   -0.425771    1.346813
     44          1           0       12.981633   -2.137810    1.933393
     45          1           0      -13.968739   -0.406928    1.933902
     46          1           0      -14.454073   -0.469239    0.229270
     47          1           0       12.928957   -2.946941   -0.311791
     48          1           0      -12.786014    1.687719    1.547627
     49          1           0       13.955055   -0.111187   -1.307499
     50          1           0       12.977222   -1.261273   -2.326300
     51          1           0      -13.444492    1.677201   -1.234372
     52          1           0      -12.399987    2.918435   -0.401994
     53          1           0       11.815346   -0.715786    3.436353
     54          1           0       10.363503    0.059535    3.051083
     55          1           0       11.846724    0.736460    2.498041
     56          1           0       10.659256   -3.172096    0.826327
     57          1           0       10.907615   -2.999464    2.431250
     58          1           0        9.485040   -2.363343    1.471040
     59          1           0      -11.317408    0.170591    2.641188
     60          1           0      -10.516445   -1.335076    2.150450
     61          1           0      -12.217089   -1.161056    3.208430
     62          1           0      -13.026958   -2.619333    1.472700
     63          1           0      -11.316774   -2.896937    0.518371
     64          1           0      -12.862517   -2.354652   -0.351351
     65          1           0        8.617949   -0.275263    0.580613
     66          1           0      -10.362523   -2.212785   -0.458398
     67          1           0        9.935541    0.695955   -2.303031
     68          1           0       11.712589    1.400469   -2.520009
     69          1           0       11.340581   -0.254659   -3.039693
     70          1           0      -11.231019    1.891559   -2.675725
     71          1           0       -9.855265    0.820990   -2.216994
     72          1           0      -10.420390    2.581197   -1.668228
     73          1           0       15.043755   -2.734960    0.366164
     74          1           0      -15.206448    2.035485    1.650240
     75          1           0       10.248393    2.171919   -0.288302
     76          1           0       -8.732155    0.559030    0.109158
     77          1           0        8.655533    4.400687   -0.270170
     78          1           0        7.061630    4.096988    0.861456
     79          1           0        8.862665    3.950726    1.257969
     80          1           0       -8.134163   -3.433395   -0.028350
     81          1           0       -8.482600   -2.729322   -2.038491
     82          1           0       -6.956832   -3.299213   -1.370218
     83          1           0        7.066977    0.509063   -0.660959
     84          1           0       -6.500704    0.527870   -0.263107
     85          1           0        5.622398    3.197154    0.452554
     86          1           0       -5.053032   -2.389261   -0.902011
     87          1           0        4.722691    0.286263   -0.543005
     88          1           0       -4.183280    0.587354   -0.263267
     89          1           0        3.278027    3.072507    1.591465
     90          1           0        1.675239    3.308333    0.409097
     91          1           0        3.114479    3.811594   -0.133869
     92          1           0       -2.893558   -3.029325   -0.410914
     93          1           0       -3.039303   -2.348695   -1.879085
     94          1           0       -1.173632   -2.577878   -1.271056
     95          1           0        2.497220   -0.439139   -0.484436
     96          1           0       -2.017397    1.061458   -0.009206
     97          1           0        0.371990    1.778276   -0.026336
     98          1           0        0.072198   -1.053939   -0.624221
 ---------------------------------------------------------------------

 SCF Done:  E(RCAM-B3LYP) =  -1706.93848997     A.U. after   14 cycles

 Excitation energies and oscillator strengths:

 Excited State   1:      Singlet-A      2.8107 eV  441.11 nm  f=3.6373  <S**2>=0.000
     155 ->158        -0.17710
     156 ->157         0.67934
 This state for optimization and/or second-order correction.
 Total Energy, E(TD-HF/TD-DFT) =  -1706.83519823
 Copying the excited state density for this state as the 1-particle RhoCI density.

 The electronic state is 1-A.
 Alpha  occ. eigenvalues --  -19.21395 -19.21316 -10.30192 -10.29389 -10.28129
 Alpha  occ. eigenvalues --  -10.28105 -10.27774 -10.27713 -10.27565 -10.27499
 Alpha  occ. eigenvalues --  -10.27353 -10.27319 -10.27259 -10.27103 -10.26988
 Alpha  occ. eigenvalues --  -10.26925 -10.26854 -10.26846 -10.26749 -10.26741
 Alpha  occ. eigenvalues --  -10.26661 -10.26653 -10.26476 -10.26442 -10.26267
 Alpha  occ. eigenvalues --  -10.26247 -10.26197 -10.25956 -10.25941 -10.25793
 Alpha  occ. eigenvalues --  -10.25752 -10.25584 -10.25564 -10.25520 -10.25367
 Alpha  occ. eigenvalues --  -10.25331 -10.25280 -10.25258 -10.25206 -10.25174
 Alpha  occ. eigenvalues --  -10.24732 -10.24630  -1.07980  -1.05781  -0.94125
 Alpha  occ. eigenvalues --   -0.93432  -0.92317  -0.91708  -0.90374  -0.89883
 Alpha  occ. eigenvalues --   -0.87570  -0.87348  -0.86693  -0.85243  -0.84521
 Alpha  occ. eigenvalues --   -0.83110  -0.81778  -0.79670  -0.79383  -0.77570
 Alpha  occ. eigenvalues --   -0.77095  -0.76259  -0.75982  -0.75764  -0.75431
 Alpha  occ. eigenvalues --   -0.75210  -0.74942  -0.74506  -0.74211  -0.70940
 Alpha  occ. eigenvalues --   -0.68519  -0.67276  -0.65949  -0.64975  -0.64659
 Alpha  occ. eigenvalues --   -0.64227  -0.62451  -0.61842  -0.60154  -0.59064
 Alpha  occ. eigenvalues --   -0.58817  -0.58305  -0.58190  -0.56997  -0.56125
 Alpha  occ. eigenvalues --   -0.55375  -0.54948  -0.54372  -0.54072  -0.53393
 Alpha  occ. eigenvalues --   -0.52841  -0.51933  -0.51560  -0.51131  -0.50950
 Alpha  occ. eigenvalues --   -0.50316  -0.50149  -0.49573  -0.49357  -0.48870
 Alpha  occ. eigenvalues --   -0.48601  -0.48307  -0.48031  -0.47888  -0.47367
 Alpha  occ. eigenvalues --   -0.47224  -0.46872  -0.46506  -0.46274  -0.46086
 Alpha  occ. eigenvalues --   -0.45549  -0.45223  -0.45209  -0.44985  -0.44542
 Alpha  occ. eigenvalues --   -0.44238  -0.43618  -0.43317  -0.43170  -0.42990
 Alpha  occ. eigenvalues --   -0.42783  -0.42309  -0.42101  -0.41749  -0.41500
 Alpha  occ. eigenvalues --   -0.41341  -0.40980  -0.40814  -0.40442  -0.40217
 Alpha  occ. eigenvalues --   -0.40121  -0.39822  -0.39635  -0.39328  -0.39059
 Alpha  occ. eigenvalues --   -0.38841  -0.38667  -0.38601  -0.38268  -0.37909
 Alpha  occ. eigenvalues --   -0.37374  -0.36889  -0.36247  -0.36115  -0.35688
 Alpha  occ. eigenvalues --   -0.35181  -0.34121  -0.33461  -0.32454  -0.32126
 Alpha  occ. eigenvalues --   -0.32024  -0.29741  -0.28489  -0.27030  -0.24255
 Alpha  occ. eigenvalues --   -0.21324
 Alpha virt. eigenvalues --   -0.04423  -0.00347   0.03102   0.05732   0.07862
 Alpha virt. eigenvalues --    0.09202   0.10118   0.10707   0.11396   0.11608
 Alpha virt. eigenvalues --    0.11846   0.12530   0.12622   0.12777   0.13054

 Mulliken charges:
               1
     1  O   -0.574488
     2  O   -0.570135
     3  C    0.000133
     4  C   -0.045276
     5  C   -0.186764
     6  C   -0.188989
     7  C    0.173063
     8  C    0.176755
     9  C    0.048184
    10  C    0.058932
    11  C   -0.220948
    12  C   -0.226342
    13  C    0.039014
    14  C    0.094615
    15  C   -0.313559
    16  C   -0.316013
    17  C   -0.296828
    18  C   -0.262530
    19  C   -0.122665
    20  C   -0.175060
    21  C   -0.349996
    22  C   -0.377875
    23  C   -0.095699
    24  C   -0.083302
    25  C    0.078456
    26  C    0.099104
    27  C   -0.364717
    28  C   -0.350802
    29  C   -0.115771
    30  C   -0.122771
    31  C   -0.071374
    32  C   -0.092563
    33  C   -0.121510
    34  C   -0.116428
    35  C    0.149698
    36  C    0.149385
    37  C   -0.375168
    38  C   -0.370281
    39  C   -0.140065
    40  C   -0.152872
    41  C   -0.048598
    42  C   -0.064802
    43  H    0.097303
    44  H    0.065116
    45  H    0.077294
    46  H    0.073874
    47  H    0.099366
    48  H    0.092228
    49  H    0.135347
    50  H    0.106749
    51  H    0.124443
    52  H    0.084336
    53  H    0.094264
    54  H    0.109117
    55  H    0.097150
    56  H    0.118739
    57  H    0.108220
    58  H    0.071223
    59  H    0.100115
    60  H    0.106439
    61  H    0.091889
    62  H    0.107559
    63  H    0.073450
    64  H    0.113380
    65  H    0.091137
    66  H    0.097088
    67  H    0.119530
    68  H    0.111700
    69  H    0.102932
    70  H    0.110642
    71  H    0.122468
    72  H    0.108744
    73  H    0.284726
    74  H    0.305385
    75  H    0.092335
    76  H    0.085203
    77  H    0.126462
    78  H    0.105852
    79  H    0.120021
    80  H    0.112207
    81  H    0.104662
    82  H    0.115433
    83  H    0.069447
    84  H    0.051103
    85  H    0.063735
    86  H    0.089967
    87  H    0.081829
    88  H    0.085743
    89  H    0.113865
    90  H    0.091990
    91  H    0.116250
    92  H    0.129065
    93  H    0.119299
    94  H    0.074167
    95  H    0.086885
    96  H    0.067742
    97  H    0.070797
    98  H    0.070840
 Sum of Mulliken charges =  -0.00000

 Dipole moment (field-independent basis, Debye):
    X=              0.2628    Y=             -0.9676    Z=              1.9309  Tot=              2.1757
 Quadrupole moment (field-independent basis, Debye-Ang):
   XX=           -275.5298   YY=           -243.4289   ZZ=           -260.2008
   XY=              1.2613   XZ=             -3.1228   YZ=              1.8816

 Normal termination of Gaussian 16 at Wed Jul 10 12:47:12 2019.
