 Gaussian 16, Revision A.03,
 Gaussian 16:  ES64L-G16RevA.03 25-Dec-2016

 -------------------------------------
 # td=(NStates=1) CAM-B3LYP/6-31G(d,p)
 -------------------------------------

 --
 TD
 --
 Symbolic Z-matrix:
 Charge =  0 Multiplicity = 1

                         Standard orientation:
 ---------------------------------------------------------------------
 Center     Atomic      Atomic             Coordinates (Angstroms)
 Number     Number       Type             X           Y           Z
 ---------------------------------------------------------------------
      1          8           0       14.808455   -2.250008   -0.400559
      2          8           0      -15.014128    1.764401    0.816704
      3          6           0       11.533942   -1.052333    1.285183
      4          6           0      -12.342289   -1.061252    0.723593
      5          6           0       13.039176   -1.282770    1.091430
      6          6           0      -13.787213   -0.433915    0.699904
      7          6           0       13.390145   -2.044117   -0.252680
      8          6           0      -13.685393    1.089931    0.686107
      9          6           0       11.048217   -0.261178   -0.028648
     10          6           0      -11.302923   -0.267364   -0.204014
     11          6           0       12.952939   -1.139815   -1.363439
     12          6           0      -13.039209    1.627928   -0.495604
     13          6           0       11.705984   -0.344838   -1.123373
     14          6           0      -11.682350    0.882525   -0.712497
     15          6           0       11.366986   -0.193276    2.434197
     16          6           0       10.748316   -2.429243    1.536591
     17          6           0      -11.889810   -1.087142    2.172224
     18          6           0      -12.528098   -2.540593    0.366124
     19          6           0        9.671357    0.341898    0.122862
     20          6           0      -10.032045   -0.963346   -0.368843
     21          6           0       11.194781    0.238159   -2.476879
     22          6           0      -10.806678    1.627612   -1.667996
     23          6           0        9.403556    1.658053   -0.259711
     24          6           0       -8.799017   -0.491102   -0.403892
     25          6           0        8.074127    2.219046   -0.065667
     26          6           0       -7.552693   -1.205243   -0.460545
     27          6           0        8.171997    3.657818    0.453373
     28          6           0       -7.482042   -2.638563   -0.755820
     29          6           0        6.891553    1.553378   -0.152961
     30          6           0       -6.411119   -0.490686   -0.337857
     31          6           0        5.540689    2.033885    0.238297
     32          6           0       -5.163329   -1.021592   -0.434287
     33          6           0        4.442368    1.291091   -0.212361
     34          6           0       -4.015986   -0.164883   -0.327196
     35          6           0        3.120205    1.663452    0.167864
     36          6           0       -2.662543   -0.570392   -0.553206
     37          6           0        2.885237    2.971101    0.791514
     38          6           0       -2.333975   -1.955318   -1.134109
     39          6           0        2.123686    0.734370   -0.099613
     40          6           0       -1.689789    0.262654   -0.148457
     41          6           0        0.670338    1.012970    0.116200
     42          6           0       -0.244524    0.110417   -0.282124
     43          1           0       13.568127   -0.444449    1.100254
     44          1           0       13.523453   -1.888359    1.997326
     45          1           0      -14.384684   -0.719676    1.587217
     46          1           0      -14.459392   -0.647782   -0.219920
     47          1           0       12.647604   -2.816658   -0.215267
     48          1           0      -13.113478    1.393737    1.602734
     49          1           0       13.844109   -0.376040   -1.433881
     50          1           0       12.957663   -1.606119   -2.263919
     51          1           0      -13.701262    1.712941   -1.436684
     52          1           0      -12.862114    2.619165   -0.297010
     53          1           0       12.300364   -0.454572    3.264008
     54          1           0       10.406392   -0.268478    3.081940
     55          1           0       11.570549    0.998537    2.151010
     56          1           0       10.854574   -3.124510    0.656909
     57          1           0       10.997521   -2.855244    2.522528
     58          1           0        9.697159   -2.413089    1.493415
     59          1           0      -11.623532   -0.061403    2.436056
     60          1           0      -10.960728   -1.716079    2.382920
     61          1           0      -12.664690   -1.367594    2.847887
     62          1           0      -13.379972   -2.872321    0.969045
     63          1           0      -11.627470   -3.097689    0.374184
     64          1           0      -12.861250   -2.469466   -0.712267
     65          1           0        8.858677   -0.263935    0.684894
     66          1           0      -10.245848   -1.969971   -0.733654
     67          1           0        9.995001    0.603935   -2.441889
     68          1           0       11.476116    1.311778   -2.767880
     69          1           0       11.344977   -0.342063   -3.207214
     70          1           0      -11.306705    2.108489   -2.474372
     71          1           0       -9.954389    1.001846   -2.118498
     72          1           0      -10.239954    2.382121   -1.227351
     73          1           0       15.334095   -2.522369    0.629262
     74          1           0      -15.454080    1.633421    1.630002
     75          1           0       10.364324    2.240558   -0.460118
     76          1           0       -8.535577    0.605227   -0.180579
     77          1           0        8.507888    4.492359   -0.408609
     78          1           0        7.241164    4.135145    0.687003
     79          1           0        9.003518    3.759972    1.391570
     80          1           0       -7.962445   -3.437322   -0.144400
     81          1           0       -7.910005   -2.801418   -1.714661
     82          1           0       -6.454084   -3.038533   -0.623094
     83          1           0        6.974142    0.516774   -0.529709
     84          1           0       -6.820507    0.749254   -0.333499
     85          1           0        5.431122    2.888671    0.744949
     86          1           0       -5.091732   -2.080509   -0.824647
     87          1           0        4.466542    0.406662   -0.773618
     88          1           0       -4.073465    1.006675    0.227371
     89          1           0        3.191156    2.924440    1.823354
     90          1           0        1.795767    3.163661    0.872838
     91          1           0        3.256496    3.905329    0.264531
     92          1           0       -2.605597   -2.971011   -0.432814
     93          1           0       -2.895847   -2.155136   -2.040810
     94          1           0       -1.216758   -1.965587   -1.365563
     95          1           0        2.654799   -0.229569   -0.393888
     96          1           0       -1.946345    1.213204   -0.194474
     97          1           0        0.532016    1.884744    0.636934
     98          1           0        0.054551   -0.820804   -0.801123
 ---------------------------------------------------------------------

 SCF Done:  E(RCAM-B3LYP) =  -1706.94153903     A.U. after   14 cycles

 Excitation energies and oscillator strengths:

 Excited State   1:      Singlet-A      2.6500 eV  467.86 nm  f=3.7292  <S**2>=0.000
     155 ->158         0.18104
     156 ->157         0.67919
 This state for optimization and/or second-order correction.
 Total Energy, E(TD-HF/TD-DFT) =  -1706.84415238
 Copying the excited state density for this state as the 1-particle RhoCI density.

 The electronic state is 1-A.
 Alpha  occ. eigenvalues --  -19.23160 -19.19466 -10.30065 -10.29977 -10.28969
 Alpha  occ. eigenvalues --  -10.27996 -10.27882 -10.27802 -10.27589 -10.27433
 Alpha  occ. eigenvalues --  -10.27400 -10.27348 -10.27326 -10.27291 -10.27017
 Alpha  occ. eigenvalues --  -10.26927 -10.26850 -10.26786 -10.26706 -10.26695
 Alpha  occ. eigenvalues --  -10.26563 -10.26513 -10.26408 -10.26379 -10.26349
 Alpha  occ. eigenvalues --  -10.26205 -10.26020 -10.25884 -10.25842 -10.25787
 Alpha  occ. eigenvalues --  -10.25740 -10.25523 -10.25397 -10.25363 -10.25006
 Alpha  occ. eigenvalues --  -10.24964 -10.24942 -10.24891 -10.24792 -10.24150
 Alpha  occ. eigenvalues --  -10.23942 -10.23689  -1.06708  -1.06041  -0.93546
 Alpha  occ. eigenvalues --   -0.93534  -0.92531  -0.92072  -0.91083  -0.89660
 Alpha  occ. eigenvalues --   -0.87336  -0.87169  -0.86920  -0.85950  -0.84390
 Alpha  occ. eigenvalues --   -0.83178  -0.81925  -0.80441  -0.79037  -0.78022
 Alpha  occ. eigenvalues --   -0.77086  -0.76717  -0.76355  -0.75863  -0.75668
 Alpha  occ. eigenvalues --   -0.75503  -0.75463  -0.74664  -0.73885  -0.71406
 Alpha  occ. eigenvalues --   -0.68765  -0.67167  -0.65683  -0.64785  -0.64070
 Alpha  occ. eigenvalues --   -0.63393  -0.62921  -0.61965  -0.60661  -0.59371
 Alpha  occ. eigenvalues --   -0.58772  -0.58066  -0.57734  -0.57446  -0.56669
 Alpha  occ. eigenvalues --   -0.55612  -0.55151  -0.54773  -0.54312  -0.53819
 Alpha  occ. eigenvalues --   -0.53034  -0.52797  -0.51839  -0.51477  -0.51006
 Alpha  occ. eigenvalues --   -0.50554  -0.50141  -0.49702  -0.49575  -0.48944
 Alpha  occ. eigenvalues --   -0.48858  -0.48565  -0.48369  -0.48180  -0.47992
 Alpha  occ. eigenvalues --   -0.47447  -0.46951  -0.46762  -0.46510  -0.46305
 Alpha  occ. eigenvalues --   -0.45876  -0.45684  -0.45478  -0.45218  -0.45008
 Alpha  occ. eigenvalues --   -0.44470  -0.44294  -0.43973  -0.43458  -0.43356
 Alpha  occ. eigenvalues --   -0.42602  -0.42283  -0.42032  -0.41798  -0.41774
 Alpha  occ. eigenvalues --   -0.41560  -0.40962  -0.40924  -0.40715  -0.40464
 Alpha  occ. eigenvalues --   -0.40298  -0.40141  -0.40025  -0.39311  -0.39253
 Alpha  occ. eigenvalues --   -0.39039  -0.38948  -0.38901  -0.38395  -0.37972
 Alpha  occ. eigenvalues --   -0.37167  -0.36683  -0.36245  -0.35964  -0.35877
 Alpha  occ. eigenvalues --   -0.35232  -0.34863  -0.33321  -0.32161  -0.31699
 Alpha  occ. eigenvalues --   -0.31449  -0.30483  -0.29069  -0.27433  -0.23749
 Alpha  occ. eigenvalues --   -0.20773
 Alpha virt. eigenvalues --   -0.04741  -0.00887   0.03117   0.05678   0.06922
 Alpha virt. eigenvalues --    0.08437   0.09698   0.09840   0.10743   0.11835
 Alpha virt. eigenvalues --    0.12472   0.12664   0.12819   0.13111   0.13541

 Mulliken charges:
               1
     1  O   -0.576368
     2  O   -0.593396
     3  C    0.025513
     4  C   -0.032810
     5  C   -0.195497
     6  C   -0.185599
     7  C    0.195962
     8  C    0.156663
     9  C    0.013339
    10  C    0.064017
    11  C   -0.222944
    12  C   -0.195469
    13  C    0.080760
    14  C    0.038281
    15  C   -0.286442
    16  C   -0.321523
    17  C   -0.293926
    18  C   -0.292453
    19  C   -0.106423
    20  C   -0.141460
    21  C   -0.353082
    22  C   -0.381944
    23  C   -0.125089
    24  C   -0.095976
    25  C    0.097356
    26  C    0.145688
    27  C   -0.350123
    28  C   -0.388565
    29  C   -0.125747
    30  C   -0.077018
    31  C   -0.089283
    32  C   -0.149556
    33  C   -0.100882
    34  C   -0.118654
    35  C    0.127420
    36  C    0.134050
    37  C   -0.389059
    38  C   -0.356422
    39  C   -0.146056
    40  C   -0.131056
    41  C   -0.078584
    42  C   -0.092607
    43  H    0.111607
    44  H    0.049221
    45  H    0.082020
    46  H    0.093535
    47  H    0.086334
    48  H    0.080274
    49  H    0.111440
    50  H    0.116208
    51  H    0.113776
    52  H    0.126180
    53  H    0.058299
    54  H    0.101096
    55  H    0.086648
    56  H    0.099829
    57  H    0.110176
    58  H    0.110183
    59  H    0.098290
    60  H    0.098513
    61  H    0.101005
    62  H    0.103605
    63  H    0.103959
    64  H    0.090996
    65  H    0.099813
    66  H    0.095019
    67  H    0.089967
    68  H    0.107898
    69  H    0.114119
    70  H    0.107486
    71  H    0.104603
    72  H    0.121159
    73  H    0.301166
    74  H    0.296620
    75  H    0.105851
    76  H    0.074972
    77  H    0.085493
    78  H    0.113651
    79  H    0.095225
    80  H    0.112310
    81  H    0.131666
    82  H    0.102520
    83  H    0.081236
    84  H    0.062267
    85  H    0.088606
    86  H    0.108368
    87  H    0.083391
    88  H    0.075776
    89  H    0.134811
    90  H    0.100724
    91  H    0.118849
    92  H    0.088702
    93  H    0.128830
    94  H    0.105249
    95  H    0.080279
    96  H    0.091257
    97  H    0.090407
    98  H    0.083481
 Sum of Mulliken charges =  -0.00000

 Dipole moment (field-independent basis, Debye):
    X=              0.7708    Y=             -0.8506    Z=              1.8650  Tot=              2.1900
 Quadrupole moment (field-independent basis, Debye-Ang):
   XX=           -292.4784   YY=           -248.4838   ZZ=           -258.9390
   XY=             12.9515   XZ=              6.5266   YZ=              1.4829

 Normal termination of Gaussian 16 at Mon Jul  8 19:48:39 2019.
