 Gaussian 16, Revision A.03,
 Gaussian 16:  ES64L-G16RevA.03 25-Dec-2016

 -------------------------------------
 # td=(NStates=1) CAM-B3LYP/6-31G(d,p)
 -------------------------------------

 --
 TD
 --
 Symbolic Z-matrix:
 Charge =  0 Multiplicity = 1

                         Standard orientation:
 ---------------------------------------------------------------------
 Center     Atomic      Atomic             Coordinates (Angstroms)
 Number     Number       Type             X           Y           Z
 ---------------------------------------------------------------------
      1          8           0       14.797551   -2.102958   -0.463769
      2          8           0      -14.925469    1.780537    0.608135
      3          6           0       11.405050   -1.220781    1.022068
      4          6           0      -12.283799   -0.894163    0.790125
      5          6           0       12.885062   -1.677710    1.025762
      6          6           0      -13.653144   -0.193492    0.747910
      7          6           0       13.319251   -1.917493   -0.443661
      8          6           0      -13.630983    1.310715    0.604360
      9          6           0       10.889946   -0.284020   -0.074310
     10          6           0      -11.310687   -0.408762   -0.281740
     11          6           0       13.020636   -0.849136   -1.326169
     12          6           0      -12.939686    1.565553   -0.752163
     13          6           0       11.765110   -0.206083   -1.210072
     14          6           0      -11.634649    0.817071   -0.795203
     15          6           0       11.034800   -0.644962    2.493065
     16          6           0       10.551970   -2.543869    0.925466
     17          6           0      -11.686960   -0.884459    2.170772
     18          6           0      -12.565379   -2.326637    0.444794
     19          6           0        9.667309    0.299812    0.198821
     20          6           0      -10.012741   -1.079662   -0.457647
     21          6           0       11.291371    0.635783   -2.342277
     22          6           0      -10.746008    1.468077   -1.862203
     23          6           0        9.405242    1.625544   -0.077470
     24          6           0       -8.882339   -0.498503   -0.287581
     25          6           0        8.110202    2.268595    0.213607
     26          6           0       -7.606809   -1.253578   -0.541121
     27          6           0        8.107145    3.753472    0.615913
     28          6           0       -7.733169   -2.631487   -1.168395
     29          6           0        6.953560    1.554797   -0.015704
     30          6           0       -6.460859   -0.632351   -0.174746
     31          6           0        5.548947    2.046786    0.134882
     32          6           0       -5.044399   -1.053233   -0.404455
     33          6           0        4.538502    1.204138   -0.055409
     34          6           0       -4.027912   -0.290065    0.012007
     35          6           0        3.139694    1.610964    0.191910
     36          6           0       -2.622321   -0.688742   -0.144723
     37          6           0        3.111778    3.093180    0.733596
     38          6           0       -2.406296   -2.027370   -0.645915
     39          6           0        2.126447    0.875246   -0.136961
     40          6           0       -1.654112    0.246168    0.053964
     41          6           0        0.789442    1.041427    0.107409
     42          6           0       -0.259740    0.077840   -0.175127
     43          1           0       13.569348   -0.848295    1.361328
     44          1           0       13.014428   -2.498713    1.783520
     45          1           0      -14.367297   -0.549416    1.513682
     46          1           0      -14.310806   -0.561437   -0.111288
     47          1           0       12.759701   -2.946050   -0.931137
     48          1           0      -12.965479    1.705279    1.333521
     49          1           0       13.757347   -0.029313   -1.012104
     50          1           0       13.450105   -1.048512   -2.377199
     51          1           0      -13.566073    1.431201   -1.590157
     52          1           0      -12.787286    2.534840   -0.940058
     53          1           0       11.391713   -1.299456    3.350623
     54          1           0       10.128703   -0.298973    2.701495
     55          1           0       11.713721    0.258681    2.616382
     56          1           0       10.742573   -2.972124   -0.088933
     57          1           0       10.801383   -3.084015    1.772459
     58          1           0        9.524506   -2.328711    1.383338
     59          1           0      -11.681590    0.066230    2.426863
     60          1           0      -10.723861   -1.287612    2.220317
     61          1           0      -12.412430   -1.624322    2.855025
     62          1           0      -13.357850   -2.654628    1.048576
     63          1           0      -11.754969   -3.005650    0.685082
     64          1           0      -12.685479   -2.608059   -0.613921
     65          1           0        8.904520   -0.087415    0.894736
     66          1           0      -10.103045   -2.144022   -0.630301
     67          1           0       10.340232    0.928057   -2.373670
     68          1           0       12.059842    1.536520   -2.558910
     69          1           0       11.538770    0.138871   -3.312096
     70          1           0      -11.456869    1.783243   -2.684595
     71          1           0      -10.082337    0.871116   -2.290919
     72          1           0      -10.282813    2.329839   -1.376351
     73          1           0       14.988090   -2.685533    0.288983
     74          1           0      -15.507406    1.446711    1.191836
     75          1           0       10.196429    2.076594   -0.663373
     76          1           0       -8.955640    0.509879    0.075941
     77          1           0        8.955998    4.376857    0.155898
     78          1           0        7.167184    4.284556    0.357057
     79          1           0        8.158631    4.045898    1.692772
     80          1           0       -8.337731   -3.344737   -0.637417
     81          1           0       -8.025162   -2.741557   -2.217072
     82          1           0       -6.751382   -3.133730   -0.923108
     83          1           0        7.015827    0.366283   -0.374063
     84          1           0       -6.677984    0.453689    0.482704
     85          1           0        5.553662    3.078032    0.669993
     86          1           0       -5.109960   -2.172867   -0.566283
     87          1           0        4.824381    0.191558   -0.578412
     88          1           0       -4.044778    0.837424    0.341763
     89          1           0        3.561412    2.992655    1.627671
     90          1           0        1.999796    3.624117    0.551608
     91          1           0        3.707512    3.672511   -0.070206
     92          1           0       -2.842516   -2.841640    0.011563
     93          1           0       -2.844749   -2.093786   -1.638540
     94          1           0       -1.269511   -2.359670   -0.549806
     95          1           0        2.748414   -0.012192   -0.483825
     96          1           0       -1.889849    1.255954    0.416376
     97          1           0        0.224486    2.013807    0.562006
     98          1           0        0.022671   -0.700236   -0.614581
 ---------------------------------------------------------------------

 SCF Done:  E(RCAM-B3LYP) =  -1706.93750288     A.U. after   14 cycles

 Excitation energies and oscillator strengths:

 Excited State   1:      Singlet-A      2.7967 eV  443.32 nm  f=3.4858  <S**2>=0.000
     155 ->158        -0.17676
     156 ->157         0.67401
 This state for optimization and/or second-order correction.
 Total Energy, E(TD-HF/TD-DFT) =  -1706.83472644
 Copying the excited state density for this state as the 1-particle RhoCI density.

 The electronic state is 1-A.
 Alpha  occ. eigenvalues --  -19.21314 -19.20110 -10.32344 -10.29664 -10.28327
 Alpha  occ. eigenvalues --  -10.28176 -10.27799 -10.27787 -10.27622 -10.27600
 Alpha  occ. eigenvalues --  -10.27488 -10.27310 -10.27306 -10.27292 -10.27158
 Alpha  occ. eigenvalues --  -10.27094 -10.26985 -10.26858 -10.26651 -10.26455
 Alpha  occ. eigenvalues --  -10.26405 -10.26380 -10.26301 -10.26125 -10.25992
 Alpha  occ. eigenvalues --  -10.25973 -10.25953 -10.25744 -10.25717 -10.25596
 Alpha  occ. eigenvalues --  -10.25500 -10.25167 -10.25078 -10.24958 -10.24643
 Alpha  occ. eigenvalues --  -10.24613 -10.24270 -10.24261 -10.23722 -10.23441
 Alpha  occ. eigenvalues --  -10.23204 -10.22915  -1.11455  -1.07942  -0.94056
 Alpha  occ. eigenvalues --   -0.93815  -0.92605  -0.91971  -0.90428  -0.89923
 Alpha  occ. eigenvalues --   -0.87665  -0.87330  -0.87156  -0.86140  -0.85127
 Alpha  occ. eigenvalues --   -0.83596  -0.81845  -0.80625  -0.80252  -0.78305
 Alpha  occ. eigenvalues --   -0.76769  -0.76604  -0.76552  -0.75921  -0.75864
 Alpha  occ. eigenvalues --   -0.75614  -0.75489  -0.75096  -0.74002  -0.70973
 Alpha  occ. eigenvalues --   -0.69467  -0.68759  -0.66376  -0.65011  -0.63768
 Alpha  occ. eigenvalues --   -0.63498  -0.62562  -0.62164  -0.60503  -0.59991
 Alpha  occ. eigenvalues --   -0.58749  -0.58667  -0.58398  -0.57382  -0.56267
 Alpha  occ. eigenvalues --   -0.55743  -0.55333  -0.54991  -0.54798  -0.53965
 Alpha  occ. eigenvalues --   -0.53337  -0.52809  -0.52084  -0.51647  -0.51410
 Alpha  occ. eigenvalues --   -0.51011  -0.50919  -0.50325  -0.50172  -0.49906
 Alpha  occ. eigenvalues --   -0.49443  -0.49073  -0.48683  -0.48372  -0.48171
 Alpha  occ. eigenvalues --   -0.47663  -0.47461  -0.46833  -0.46582  -0.46008
 Alpha  occ. eigenvalues --   -0.45629  -0.45542  -0.45444  -0.45185  -0.45086
 Alpha  occ. eigenvalues --   -0.44728  -0.44360  -0.43880  -0.43544  -0.43199
 Alpha  occ. eigenvalues --   -0.43057  -0.42722  -0.42511  -0.42390  -0.42135
 Alpha  occ. eigenvalues --   -0.41858  -0.41664  -0.41343  -0.40786  -0.40401
 Alpha  occ. eigenvalues --   -0.40283  -0.40169  -0.39760  -0.39262  -0.39185
 Alpha  occ. eigenvalues --   -0.38892  -0.38691  -0.38444  -0.37929  -0.37393
 Alpha  occ. eigenvalues --   -0.37303  -0.36721  -0.36571  -0.36392  -0.36249
 Alpha  occ. eigenvalues --   -0.35658  -0.34269  -0.33358  -0.32615  -0.32203
 Alpha  occ. eigenvalues --   -0.32191  -0.29528  -0.28121  -0.25786  -0.23624
 Alpha  occ. eigenvalues --   -0.21228
 Alpha virt. eigenvalues --   -0.04463  -0.00186   0.02486   0.05446   0.07718
 Alpha virt. eigenvalues --    0.09806   0.10848   0.11458   0.11786   0.12070
 Alpha virt. eigenvalues --    0.12550   0.12976   0.13247   0.13291   0.13742

 Mulliken charges:
               1
     1  O   -0.570008
     2  O   -0.555935
     3  C   -0.058787
     4  C   -0.011356
     5  C   -0.199122
     6  C   -0.215569
     7  C    0.166767
     8  C    0.202026
     9  C    0.091148
    10  C    0.060018
    11  C   -0.229090
    12  C   -0.204233
    13  C    0.089693
    14  C   -0.010210
    15  C   -0.324801
    16  C   -0.282122
    17  C   -0.263408
    18  C   -0.311468
    19  C   -0.117622
    20  C   -0.119664
    21  C   -0.371465
    22  C   -0.350516
    23  C   -0.125527
    24  C   -0.064726
    25  C    0.066518
    26  C    0.095601
    27  C   -0.382745
    28  C   -0.378277
    29  C   -0.120713
    30  C   -0.129455
    31  C   -0.082755
    32  C   -0.120019
    33  C   -0.119022
    34  C   -0.084391
    35  C    0.079307
    36  C    0.129992
    37  C   -0.352732
    38  C   -0.384184
    39  C   -0.092745
    40  C   -0.127769
    41  C   -0.123116
    42  C   -0.044430
    43  H    0.103909
    44  H    0.096143
    45  H    0.070594
    46  H    0.094062
    47  H    0.050433
    48  H    0.078221
    49  H    0.127663
    50  H    0.124974
    51  H    0.121228
    52  H    0.107038
    53  H    0.084979
    54  H    0.117407
    55  H    0.092060
    56  H    0.106380
    57  H    0.099686
    58  H    0.088290
    59  H    0.103492
    60  H    0.114425
    61  H    0.062569
    62  H    0.094783
    63  H    0.088891
    64  H    0.097952
    65  H    0.099134
    66  H    0.083166
    67  H    0.132866
    68  H    0.086308
    69  H    0.099342
    70  H    0.089355
    71  H    0.120294
    72  H    0.111073
    73  H    0.308066
    74  H    0.292977
    75  H    0.101817
    76  H    0.089871
    77  H    0.111830
    78  H    0.111713
    79  H    0.122141
    80  H    0.128044
    81  H    0.134022
    82  H    0.093505
    83  H    0.076968
    84  H    0.059998
    85  H    0.099533
    86  H    0.100691
    87  H    0.091965
    88  H    0.090123
    89  H    0.138707
    90  H    0.087039
    91  H    0.120857
    92  H    0.117557
    93  H    0.136287
    94  H    0.096687
    95  H    0.080044
    96  H    0.075096
    97  H    0.080007
    98  H    0.054655
 Sum of Mulliken charges =  -0.00000

 Dipole moment (field-independent basis, Debye):
    X=             -0.0068    Y=             -1.3321    Z=              1.6991  Tot=              2.1591
 Quadrupole moment (field-independent basis, Debye-Ang):
   XX=           -275.2680   YY=           -247.6366   ZZ=           -259.6725
   XY=             16.3974   XZ=              5.4758   YZ=              1.2172

 Normal termination of Gaussian 16 at Mon Jul  1 03:03:14 2019.
