 Gaussian 16, Revision A.03,
 Gaussian 16:  ES64L-G16RevA.03 25-Dec-2016

 -------------------------------------
 # td=(NStates=1) CAM-B3LYP/6-31G(d,p)
 -------------------------------------

 --
 TD
 --
 Symbolic Z-matrix:
 Charge =  0 Multiplicity = 1

                         Standard orientation:
 ---------------------------------------------------------------------
 Center     Atomic      Atomic             Coordinates (Angstroms)
 Number     Number       Type             X           Y           Z
 ---------------------------------------------------------------------
      1          8           0       14.753452   -2.349712   -0.491309
      2          8           0      -14.893693    1.990480    0.795960
      3          6           0       11.523137   -1.076410    1.244958
      4          6           0      -12.273079   -0.975849    0.949624
      5          6           0       13.045190   -1.494913    1.004253
      6          6           0      -13.660277   -0.259677    0.884854
      7          6           0       13.273698   -1.921235   -0.386496
      8          6           0      -13.661692    1.299992    0.838717
      9          6           0       11.058724   -0.345910    0.077894
     10          6           0      -11.354435   -0.262560   -0.112702
     11          6           0       13.024380   -0.809666   -1.411177
     12          6           0      -12.827046    1.731648   -0.397412
     13          6           0       11.771889   -0.209122   -1.093046
     14          6           0      -11.622115    0.860087   -0.773684
     15          6           0       11.448664   -0.193625    2.473098
     16          6           0       10.779126   -2.293966    1.641428
     17          6           0      -11.765052   -0.872643    2.351771
     18          6           0      -12.522750   -2.490307    0.599395
     19          6           0        9.666282    0.293838    0.301903
     20          6           0      -10.085665   -0.953691   -0.390671
     21          6           0       11.235320    0.582491   -2.241776
     22          6           0      -10.874915    1.534466   -1.979662
     23          6           0        9.420754    1.608516    0.173763
     24          6           0       -8.849480   -0.501375   -0.365431
     25          6           0        8.046649    2.229374    0.178602
     26          6           0       -7.620671   -1.244705   -0.536852
     27          6           0        8.068357    3.729118    0.619838
     28          6           0       -7.702190   -2.791051   -0.937651
     29          6           0        6.903642    1.531540   -0.022778
     30          6           0       -6.421731   -0.633632   -0.560977
     31          6           0        5.569409    1.965591    0.173949
     32          6           0       -5.083619   -1.086146   -0.649887
     33          6           0        4.450988    1.222017   -0.111178
     34          6           0       -3.967412   -0.300955   -0.549905
     35          6           0        3.032813    1.614311   -0.022734
     36          6           0       -2.614058   -0.833070   -0.671858
     37          6           0        2.759838    3.166013    0.198199
     38          6           0       -2.280733   -2.197618   -0.904937
     39          6           0        2.030020    0.745880   -0.116436
     40          6           0       -1.638140    0.097456   -0.315948
     41          6           0        0.591194    0.912441   -0.072112
     42          6           0       -0.221060   -0.158075   -0.290256
     43          1           0       13.535630   -0.431693    1.217386
     44          1           0       13.186608   -2.217195    1.694023
     45          1           0      -14.104925   -0.359187    1.887824
     46          1           0      -14.313654   -0.814656    0.022413
     47          1           0       12.560789   -2.799768   -0.661165
     48          1           0      -13.124733    1.759284    1.694135
     49          1           0       13.837983    0.017179   -1.505712
     50          1           0       13.079210   -1.198845   -2.623847
     51          1           0      -13.592449    1.668656   -1.304845
     52          1           0      -12.561623    2.720669   -0.227376
     53          1           0       12.321432   -0.472429    3.192050
     54          1           0       10.397613   -0.396658    3.099867
     55          1           0       11.565551    1.036019    2.225641
     56          1           0       10.603794   -3.032467    0.788821
     57          1           0       11.147889   -2.864259    2.604698
     58          1           0        9.590160   -2.019734    1.586047
     59          1           0      -11.725754    0.079284    2.771607
     60          1           0      -10.819512   -1.327351    2.401885
     61          1           0      -12.429854   -1.405817    2.979044
     62          1           0      -13.467164   -2.962471    1.096285
     63          1           0      -11.591208   -3.033915    0.707280
     64          1           0      -12.552326   -2.389400   -0.476070
     65          1           0        8.994174   -0.264927    0.851662
     66          1           0      -10.303407   -2.110579   -0.539803
     67          1           0       10.297044    0.649832   -2.248208
     68          1           0       11.589298    1.484794   -2.162599
     69          1           0       11.677899    0.111209   -3.221870
     70          1           0      -11.609349    1.530148   -2.868486
     71          1           0      -10.095911    0.671545   -2.350459
     72          1           0      -10.463183    2.415120   -1.607418
     73          1           0       15.064006   -3.033172    0.006381
     74          1           0      -15.270819    1.677452    1.718303
     75          1           0       10.154032    2.469788   -0.190435
     76          1           0       -8.734784    0.481019   -0.283285
     77          1           0        8.786197    4.281019    0.040816
     78          1           0        6.980328    4.205218    0.504810
     79          1           0        8.172418    3.817420    1.671045
     80          1           0       -8.267322   -3.346484   -0.142747
     81          1           0       -8.323381   -2.848986   -1.698321
     82          1           0       -6.760981   -3.406270   -1.071785
     83          1           0        6.971274    0.470518   -0.424755
     84          1           0       -6.382068    0.542770   -0.522835
     85          1           0        5.321762    2.934726    0.548737
     86          1           0       -4.834342   -2.115434   -0.790929
     87          1           0        4.549129    0.271788   -0.474817
     88          1           0       -4.263746    0.719024   -0.337452
     89          1           0        3.079956    3.331206    1.333305
     90          1           0        1.842375    3.518207    0.097826
     91          1           0        3.655408    3.797189   -0.347508
     92          1           0       -3.057634   -2.955429   -0.331816
     93          1           0       -2.613532   -2.447975   -2.003675
     94          1           0       -1.340172   -2.479411   -0.893356
     95          1           0        2.398419   -0.306427   -0.132112
     96          1           0       -2.047210    1.041684    0.033941
     97          1           0        0.275458    2.010559   -0.015473
     98          1           0        0.213404   -1.110006   -0.533967
 ---------------------------------------------------------------------

 SCF Done:  E(RCAM-B3LYP) =  -1706.95778565     A.U. after   13 cycles

 Excitation energies and oscillator strengths:

 Excited State   1:      Singlet-A      2.7824 eV  445.60 nm  f=3.7142  <S**2>=0.000
     155 ->158        -0.17780
     156 ->157         0.67760
 This state for optimization and/or second-order correction.
 Total Energy, E(TD-HF/TD-DFT) =  -1706.85553414
 Copying the excited state density for this state as the 1-particle RhoCI density.

 The electronic state is 1-A.
 Alpha  occ. eigenvalues --  -19.22346 -19.18823 -10.31984 -10.30428 -10.28002
 Alpha  occ. eigenvalues --  -10.27572 -10.27560 -10.27542 -10.27530 -10.27528
 Alpha  occ. eigenvalues --  -10.27449 -10.27444 -10.27401 -10.27161 -10.26916
 Alpha  occ. eigenvalues --  -10.26850 -10.26706 -10.26638 -10.26615 -10.26543
 Alpha  occ. eigenvalues --  -10.26492 -10.26421 -10.26325 -10.26283 -10.26273
 Alpha  occ. eigenvalues --  -10.26269 -10.26255 -10.26231 -10.26209 -10.26129
 Alpha  occ. eigenvalues --  -10.26046 -10.25866 -10.25863 -10.25825 -10.25674
 Alpha  occ. eigenvalues --  -10.25378 -10.25237 -10.25199 -10.24798 -10.24742
 Alpha  occ. eigenvalues --  -10.22805 -10.22334  -1.09116  -1.05986  -0.94929
 Alpha  occ. eigenvalues --   -0.93108  -0.92381  -0.91242  -0.90294  -0.89585
 Alpha  occ. eigenvalues --   -0.88687  -0.87415  -0.86749  -0.85613  -0.84737
 Alpha  occ. eigenvalues --   -0.83038  -0.82203  -0.80615  -0.79516  -0.77981
 Alpha  occ. eigenvalues --   -0.77377  -0.77002  -0.76777  -0.76060  -0.75918
 Alpha  occ. eigenvalues --   -0.75434  -0.74704  -0.74256  -0.73939  -0.70655
 Alpha  occ. eigenvalues --   -0.68894  -0.67376  -0.65882  -0.64612  -0.64069
 Alpha  occ. eigenvalues --   -0.63513  -0.62732  -0.61771  -0.61407  -0.60626
 Alpha  occ. eigenvalues --   -0.59756  -0.57684  -0.57371  -0.57095  -0.56130
 Alpha  occ. eigenvalues --   -0.55488  -0.55171  -0.54874  -0.54372  -0.53822
 Alpha  occ. eigenvalues --   -0.53692  -0.52584  -0.52408  -0.52181  -0.50866
 Alpha  occ. eigenvalues --   -0.50636  -0.50444  -0.50120  -0.49601  -0.49443
 Alpha  occ. eigenvalues --   -0.49164  -0.48975  -0.48504  -0.48396  -0.47972
 Alpha  occ. eigenvalues --   -0.47575  -0.47127  -0.46917  -0.46811  -0.46516
 Alpha  occ. eigenvalues --   -0.46327  -0.45741  -0.45627  -0.45500  -0.45203
 Alpha  occ. eigenvalues --   -0.44823  -0.44748  -0.44343  -0.44138  -0.44011
 Alpha  occ. eigenvalues --   -0.43224  -0.42874  -0.42740  -0.42467  -0.42345
 Alpha  occ. eigenvalues --   -0.42193  -0.41701  -0.41077  -0.40559  -0.40191
 Alpha  occ. eigenvalues --   -0.39825  -0.39622  -0.39526  -0.39279  -0.39152
 Alpha  occ. eigenvalues --   -0.39109  -0.38732  -0.38611  -0.38266  -0.37935
 Alpha  occ. eigenvalues --   -0.37414  -0.37282  -0.36737  -0.36069  -0.35300
 Alpha  occ. eigenvalues --   -0.34707  -0.34035  -0.33666  -0.32472  -0.32189
 Alpha  occ. eigenvalues --   -0.31651  -0.29923  -0.28287  -0.26880  -0.24312
 Alpha  occ. eigenvalues --   -0.20952
 Alpha virt. eigenvalues --   -0.04223  -0.00516   0.02846   0.05718   0.07842
 Alpha virt. eigenvalues --    0.09183   0.10613   0.10899   0.11694   0.12257
 Alpha virt. eigenvalues --    0.12469   0.12801   0.13019   0.13302   0.13768

 Mulliken charges:
               1
     1  O   -0.594554
     2  O   -0.543769
     3  C   -0.007631
     4  C   -0.000995
     5  C   -0.165632
     6  C   -0.185534
     7  C    0.173649
     8  C    0.151418
     9  C    0.052132
    10  C    0.043656
    11  C   -0.225899
    12  C   -0.212811
    13  C    0.060824
    14  C    0.027039
    15  C   -0.284361
    16  C   -0.304610
    17  C   -0.294109
    18  C   -0.322862
    19  C   -0.133356
    20  C   -0.154628
    21  C   -0.329072
    22  C   -0.339774
    23  C   -0.072341
    24  C   -0.049448
    25  C    0.051717
    26  C    0.096350
    27  C   -0.362198
    28  C   -0.369006
    29  C   -0.110346
    30  C   -0.142297
    31  C   -0.067796
    32  C   -0.063680
    33  C   -0.114046
    34  C   -0.114183
    35  C    0.114948
    36  C    0.133770
    37  C   -0.358476
    38  C   -0.369747
    39  C   -0.147858
    40  C   -0.128328
    41  C   -0.068282
    42  C   -0.087370
    43  H    0.098317
    44  H    0.090735
    45  H    0.065971
    46  H    0.086501
    47  H    0.089950
    48  H    0.074613
    49  H    0.124779
    50  H    0.087103
    51  H    0.094538
    52  H    0.109234
    53  H    0.092202
    54  H    0.083804
    55  H    0.086535
    56  H    0.095732
    57  H    0.107237
    58  H    0.076621
    59  H    0.103905
    60  H    0.109049
    61  H    0.100846
    62  H    0.108142
    63  H    0.109936
    64  H    0.115317
    65  H    0.099249
    66  H    0.058723
    67  H    0.123407
    68  H    0.129037
    69  H    0.079593
    70  H    0.117076
    71  H    0.099192
    72  H    0.131507
    73  H    0.290689
    74  H    0.305895
    75  H    0.075549
    76  H    0.073990
    77  H    0.118878
    78  H    0.089013
    79  H    0.137323
    80  H    0.103173
    81  H    0.137121
    82  H    0.109175
    83  H    0.082095
    84  H    0.060452
    85  H    0.074252
    86  H    0.059635
    87  H    0.072369
    88  H    0.082706
    89  H    0.104924
    90  H    0.114209
    91  H    0.098763
    92  H    0.107600
    93  H    0.108625
    94  H    0.118724
    95  H    0.069067
    96  H    0.089260
    97  H    0.088522
    98  H    0.098636
 Sum of Mulliken charges =  -0.00000

 Dipole moment (field-independent basis, Debye):
    X=             -0.4176    Y=             -1.4683    Z=              2.0079  Tot=              2.5223
 Quadrupole moment (field-independent basis, Debye-Ang):
   XX=           -292.8638   YY=           -244.7418   ZZ=           -260.8104
   XY=             12.4568   XZ=             -4.9926   YZ=              0.9854

 Normal termination of Gaussian 16 at Sat Jul  6 06:47:26 2019.
