 Gaussian 16, Revision A.03,
 Gaussian 16:  ES64L-G16RevA.03 25-Dec-2016

 -------------------------------------
 # td=(NStates=1) CAM-B3LYP/6-31G(d,p)
 -------------------------------------

 --
 TD
 --
 Symbolic Z-matrix:
 Charge =  0 Multiplicity = 1

                         Standard orientation:
 ---------------------------------------------------------------------
 Center     Atomic      Atomic             Coordinates (Angstroms)
 Number     Number       Type             X           Y           Z
 ---------------------------------------------------------------------
      1          8           0       14.766407   -2.192575   -0.423127
      2          8           0      -14.669340    2.158144    0.863219
      3          6           0       11.394425   -1.158765    1.154889
      4          6           0      -12.417943   -0.897687    0.753209
      5          6           0       12.957574   -1.473360    1.014769
      6          6           0      -13.686772   -0.099548    0.745962
      7          6           0       13.332992   -1.903209   -0.359312
      8          6           0      -13.492466    1.471316    0.736122
      9          6           0       10.931474   -0.247658    0.024655
     10          6           0      -11.328916   -0.282333   -0.140826
     11          6           0       13.109740   -0.741557   -1.269860
     12          6           0      -12.825761    1.792863   -0.534591
     13          6           0       11.728052   -0.116190   -1.094860
     14          6           0      -11.595837    0.893836   -0.755392
     15          6           0       11.127049   -0.586577    2.567023
     16          6           0       10.565206   -2.365720    1.162526
     17          6           0      -11.835550   -1.022392    2.180949
     18          6           0      -12.633349   -2.309700    0.204414
     19          6           0        9.630358    0.390149    0.276804
     20          6           0      -10.128334   -1.043483   -0.376483
     21          6           0       11.356791    0.821282   -2.319481
     22          6           0      -10.621527    1.492367   -1.693872
     23          6           0        9.406731    1.698481    0.046864
     24          6           0       -8.885018   -0.615377   -0.252335
     25          6           0        8.058390    2.296362    0.182550
     26          6           0       -7.599929   -1.389210   -0.529426
     27          6           0        7.959685    3.766954    0.683952
     28          6           0       -7.610437   -2.881187   -0.882405
     29          6           0        6.938968    1.574749   -0.070355
     30          6           0       -6.361610   -0.662823   -0.330024
     31          6           0        5.560902    1.954945    0.206084
     32          6           0       -5.093490   -1.096938   -0.498236
     33          6           0        4.439405    1.152983   -0.135983
     34          6           0       -4.010783   -0.355825   -0.335328
     35          6           0        3.091885    1.653450    0.061855
     36          6           0       -2.560541   -0.870322   -0.464456
     37          6           0        2.754092    3.097405    0.357160
     38          6           0       -2.224231   -2.376832   -0.737426
     39          6           0        2.074717    0.689861   -0.140566
     40          6           0       -1.616377    0.070076   -0.246139
     41          6           0        0.650648    0.815131   -0.114913
     42          6           0       -0.221839   -0.203004   -0.294433
     43          1           0       13.370769   -0.595484    1.156018
     44          1           0       13.205906   -2.339339    1.762214
     45          1           0      -14.363662   -0.411135    1.513697
     46          1           0      -14.060044   -0.431543   -0.266002
     47          1           0       12.685690   -2.601178   -0.596411
     48          1           0      -12.768668    1.687711    1.524285
     49          1           0       13.835110    0.158928   -1.008220
     50          1           0       13.142675   -0.942382   -2.327782
     51          1           0      -13.489424    1.567082   -1.345036
     52          1           0      -12.386300    2.958269   -0.678162
     53          1           0       11.545813   -1.230480    3.291457
     54          1           0       10.066118   -0.467476    2.726752
     55          1           0       11.539030    0.423242    2.595098
     56          1           0       10.721932   -3.168103    0.359414
     57          1           0       11.006161   -3.085901    1.931690
     58          1           0        9.443822   -2.079177    1.169053
     59          1           0      -11.700153   -0.002775    2.785065
     60          1           0      -10.866738   -1.515899    2.202778
     61          1           0      -12.656079   -1.531987    2.757068
     62          1           0      -13.365131   -2.973800    0.786617
     63          1           0      -11.756310   -2.887371    0.459358
     64          1           0      -12.762629   -2.498986   -0.827694
     65          1           0        9.027454   -0.231234    0.728291
     66          1           0      -10.292613   -2.077319   -0.854840
     67          1           0       10.412218    1.078697   -2.405153
     68          1           0       11.850517    1.822948   -2.222108
     69          1           0       11.685808    0.264883   -3.172255
     70          1           0      -11.168963    1.957404   -2.515253
     71          1           0      -10.211452    0.680760   -2.252704
     72          1           0       -9.898288    2.254361   -1.442209
     73          1           0       14.812305   -3.017827    0.102011
     74          1           0      -15.233377    2.230200    1.721074
     75          1           0       10.209280    2.539348   -0.048413
     76          1           0       -8.668438    0.250907    0.163059
     77          1           0        8.737732    4.272503    0.091852
     78          1           0        6.884404    4.112752    0.468787
     79          1           0        8.246647    3.871367    1.696654
     80          1           0       -8.291476   -3.523698   -0.236801
     81          1           0       -7.896630   -2.816009   -1.807019
     82          1           0       -6.702545   -3.538671   -0.752523
     83          1           0        7.331163    0.492417   -0.495678
     84          1           0       -6.642810    0.520248    0.037561
     85          1           0        5.162855    2.900233    0.339472
     86          1           0       -5.140042   -2.036878   -0.949100
     87          1           0        4.699773    0.178054   -0.400899
     88          1           0       -4.055678    0.610664   -0.096556
     89          1           0        3.187043    3.249256    1.338544
     90          1           0        1.676098    3.236709    0.414501
     91          1           0        3.281480    3.680084   -0.408668
     92          1           0       -2.830886   -2.807360    0.070769
     93          1           0       -2.773752   -2.612370   -1.564477
     94          1           0       -1.136356   -2.567298   -0.760756
     95          1           0        2.401586   -0.274235   -0.291612
     96          1           0       -2.070931    1.205660   -0.193877
     97          1           0        0.065219    1.823991    0.178938
     98          1           0        0.267994   -1.082398   -0.671126
 ---------------------------------------------------------------------

 SCF Done:  E(RCAM-B3LYP) =  -1707.00419696     A.U. after   14 cycles

 Excitation energies and oscillator strengths:

 Excited State   1:      Singlet-A      2.6417 eV  469.34 nm  f=3.6873  <S**2>=0.000
     155 ->158        -0.18108
     156 ->157         0.67807
 This state for optimization and/or second-order correction.
 Total Energy, E(TD-HF/TD-DFT) =  -1706.90711772
 Copying the excited state density for this state as the 1-particle RhoCI density.

 The electronic state is 1-A.
 Alpha  occ. eigenvalues --  -19.21501 -19.20969 -10.30083 -10.28930 -10.28625
 Alpha  occ. eigenvalues --  -10.27861 -10.27506 -10.27371 -10.27176 -10.27051
 Alpha  occ. eigenvalues --  -10.26866 -10.26772 -10.26708 -10.26694 -10.26685
 Alpha  occ. eigenvalues --  -10.26672 -10.26189 -10.26139 -10.25935 -10.25865
 Alpha  occ. eigenvalues --  -10.25842 -10.25820 -10.25805 -10.25802 -10.25795
 Alpha  occ. eigenvalues --  -10.25726 -10.25704 -10.25702 -10.25647 -10.25545
 Alpha  occ. eigenvalues --  -10.25531 -10.25434 -10.25231 -10.25109 -10.25028
 Alpha  occ. eigenvalues --  -10.24848 -10.24596 -10.24190 -10.24134 -10.23948
 Alpha  occ. eigenvalues --  -10.23809 -10.23152  -1.08967  -1.08504  -0.93970
 Alpha  occ. eigenvalues --   -0.93679  -0.91799  -0.91125  -0.90120  -0.89298
 Alpha  occ. eigenvalues --   -0.87610  -0.87134  -0.86748  -0.85837  -0.84979
 Alpha  occ. eigenvalues --   -0.83398  -0.82118  -0.80529  -0.80378  -0.78514
 Alpha  occ. eigenvalues --   -0.76979  -0.76305  -0.76160  -0.75779  -0.75740
 Alpha  occ. eigenvalues --   -0.75669  -0.75258  -0.74747  -0.73626  -0.70621
 Alpha  occ. eigenvalues --   -0.69550  -0.67708  -0.66471  -0.65803  -0.63596
 Alpha  occ. eigenvalues --   -0.63345  -0.62380  -0.61588  -0.60863  -0.60152
 Alpha  occ. eigenvalues --   -0.59999  -0.59324  -0.59166  -0.57345  -0.56205
 Alpha  occ. eigenvalues --   -0.55507  -0.55035  -0.54539  -0.54250  -0.53692
 Alpha  occ. eigenvalues --   -0.52946  -0.52446  -0.52079  -0.51816  -0.51351
 Alpha  occ. eigenvalues --   -0.50864  -0.50410  -0.50024  -0.49773  -0.49404
 Alpha  occ. eigenvalues --   -0.49131  -0.49058  -0.48744  -0.48305  -0.48260
 Alpha  occ. eigenvalues --   -0.48064  -0.48003  -0.47936  -0.47115  -0.46744
 Alpha  occ. eigenvalues --   -0.45958  -0.45898  -0.45633  -0.45521  -0.44958
 Alpha  occ. eigenvalues --   -0.44534  -0.44408  -0.44275  -0.44112  -0.43717
 Alpha  occ. eigenvalues --   -0.43163  -0.42905  -0.42463  -0.42334  -0.41944
 Alpha  occ. eigenvalues --   -0.41312  -0.41168  -0.41019  -0.40611  -0.40451
 Alpha  occ. eigenvalues --   -0.40135  -0.40003  -0.39892  -0.39756  -0.39138
 Alpha  occ. eigenvalues --   -0.38899  -0.38767  -0.38485  -0.38256  -0.38020
 Alpha  occ. eigenvalues --   -0.37754  -0.37361  -0.36819  -0.36519  -0.36188
 Alpha  occ. eigenvalues --   -0.35336  -0.34342  -0.33657  -0.32559  -0.32226
 Alpha  occ. eigenvalues --   -0.31023  -0.29254  -0.27924  -0.26366  -0.23624
 Alpha  occ. eigenvalues --   -0.20304
 Alpha virt. eigenvalues --   -0.04276  -0.00674   0.02747   0.06482   0.08078
 Alpha virt. eigenvalues --    0.09848   0.11194   0.11253   0.11725   0.11805
 Alpha virt. eigenvalues --    0.12627   0.13121   0.13436   0.13589   0.13759

 Mulliken charges:
               1
     1  O   -0.557997
     2  O   -0.586901
     3  C   -0.065918
     4  C   -0.005941
     5  C   -0.165813
     6  C   -0.200134
     7  C    0.170571
     8  C    0.225628
     9  C    0.070394
    10  C    0.075774
    11  C   -0.206509
    12  C   -0.204893
    13  C   -0.011878
    14  C    0.036936
    15  C   -0.282379
    16  C   -0.283672
    17  C   -0.297574
    18  C   -0.322696
    19  C   -0.097423
    20  C   -0.156649
    21  C   -0.340808
    22  C   -0.377449
    23  C   -0.104259
    24  C   -0.042103
    25  C    0.071480
    26  C    0.044696
    27  C   -0.358063
    28  C   -0.370717
    29  C   -0.119324
    30  C   -0.120323
    31  C   -0.107888
    32  C   -0.065789
    33  C   -0.098025
    34  C   -0.088436
    35  C    0.078555
    36  C    0.068542
    37  C   -0.370115
    38  C   -0.355629
    39  C   -0.131644
    40  C   -0.132632
    41  C   -0.077205
    42  C   -0.086247
    43  H    0.109974
    44  H    0.060845
    45  H    0.080940
    46  H    0.090570
    47  H    0.092788
    48  H    0.073935
    49  H    0.112370
    50  H    0.106492
    51  H    0.123724
    52  H    0.080299
    53  H    0.105950
    54  H    0.099995
    55  H    0.099076
    56  H    0.082595
    57  H    0.086657
    58  H    0.098610
    59  H    0.081941
    60  H    0.113334
    61  H    0.089655
    62  H    0.084117
    63  H    0.106367
    64  H    0.113281
    65  H    0.088819
    66  H    0.087089
    67  H    0.126649
    68  H    0.107368
    69  H    0.102428
    70  H    0.095406
    71  H    0.119406
    72  H    0.118855
    73  H    0.301039
    74  H    0.319449
    75  H    0.087796
    76  H    0.073890
    77  H    0.107330
    78  H    0.107953
    79  H    0.131563
    80  H    0.112595
    81  H    0.145102
    82  H    0.111422
    83  H    0.072473
    84  H    0.051233
    85  H    0.077145
    86  H    0.080225
    87  H    0.084698
    88  H    0.074346
    89  H    0.131916
    90  H    0.120527
    91  H    0.128880
    92  H    0.127532
    93  H    0.134202
    94  H    0.117223
    95  H    0.074503
    96  H    0.079296
    97  H    0.067425
    98  H    0.091158
 Sum of Mulliken charges =  -0.00000

 Dipole moment (field-independent basis, Debye):
    X=             -1.0011    Y=             -1.5654    Z=              1.4229  Tot=              2.3404
 Quadrupole moment (field-independent basis, Debye-Ang):
   XX=           -278.2884   YY=           -241.0236   ZZ=           -260.1512
   XY=              2.8774   XZ=             -3.0999   YZ=              4.3903

 Normal termination of Gaussian 16 at Tue Jul  9 10:20:30 2019.
