 Gaussian 16, Revision A.03,
 Gaussian 16:  ES64L-G16RevA.03 25-Dec-2016

 -------------------------------------
 # td=(NStates=1) CAM-B3LYP/6-31G(d,p)
 -------------------------------------

 --
 TD
 --
 Symbolic Z-matrix:
 Charge =  0 Multiplicity = 1

                         Standard orientation:
 ---------------------------------------------------------------------
 Center     Atomic      Atomic             Coordinates (Angstroms)
 Number     Number       Type             X           Y           Z
 ---------------------------------------------------------------------
      1          8           0       14.746078   -2.191602   -0.325063
      2          8           0      -14.780337    1.944250    0.805009
      3          6           0       11.398098   -1.096297    1.219886
      4          6           0      -12.309705   -0.894418    0.765679
      5          6           0       12.947689   -1.334680    1.021990
      6          6           0      -13.678270   -0.211163    0.798432
      7          6           0       13.392618   -1.839671   -0.233952
      8          6           0      -13.530285    1.228130    0.672598
      9          6           0       10.997503   -0.147972   -0.033970
     10          6           0      -11.361243   -0.304993   -0.301954
     11          6           0       13.097406   -0.819488   -1.299720
     12          6           0      -12.891763    1.663345   -0.605671
     13          6           0       11.722914   -0.181904   -1.170962
     14          6           0      -11.599986    0.957066   -0.859754
     15          6           0       11.236904   -0.268933    2.458255
     16          6           0       10.697353   -2.419542    1.246248
     17          6           0      -11.761117   -0.965789    2.128518
     18          6           0      -12.645790   -2.348220    0.301129
     19          6           0        9.685282    0.478534    0.159796
     20          6           0      -10.101608   -0.990762   -0.462110
     21          6           0       11.272315    0.538967   -2.452809
     22          6           0      -10.641304    1.687579   -1.905188
     23          6           0        9.396378    1.814884   -0.140858
     24          6           0       -8.967761   -0.437998   -0.295143
     25          6           0        7.992798    2.256517    0.039318
     26          6           0       -7.690931   -1.178581   -0.432352
     27          6           0        8.000842    3.695472    0.651922
     28          6           0       -7.752799   -2.615395   -0.842796
     29          6           0        6.916884    1.446463   -0.167681
     30          6           0       -6.451541   -0.510979   -0.199310
     31          6           0        5.587017    1.923825    0.054345
     32          6           0       -5.105038   -1.093282   -0.299065
     33          6           0        4.462067    1.170135   -0.190458
     34          6           0       -3.978397   -0.423630   -0.211427
     35          6           0        3.098958    1.373628    0.159889
     36          6           0       -2.547291   -0.802691   -0.410465
     37          6           0        2.762934    2.704037    0.868206
     38          6           0       -2.348150   -2.254540   -0.962769
     39          6           0        2.098830    0.521545   -0.104723
     40          6           0       -1.558049    0.104177   -0.229809
     41          6           0        0.756012    0.807617    0.046262
     42          6           0       -0.191878   -0.148763   -0.364837
     43          1           0       13.522317   -0.428878    1.206690
     44          1           0       13.024445   -2.173581    1.835831
     45          1           0      -14.257361   -0.343387    1.793464
     46          1           0      -14.406587   -0.549434    0.017944
     47          1           0       12.930949   -2.660757   -0.565170
     48          1           0      -12.944099    1.678353    1.491044
     49          1           0       13.927594    0.016070   -1.606426
     50          1           0       12.880433   -1.256026   -2.292395
     51          1           0      -13.603895    1.747092   -1.299340
     52          1           0      -12.780958    2.764640   -0.474302
     53          1           0       11.600075   -1.015580    3.331661
     54          1           0       10.309256    0.310148    2.479822
     55          1           0       11.822847    0.723294    2.406002
     56          1           0       10.827357   -2.946979    0.246114
     57          1           0       10.930680   -2.975360    2.144580
     58          1           0        9.575519   -2.368410    1.340258
     59          1           0      -11.923438    0.024930    2.806880
     60          1           0      -10.766588   -1.148991    2.194892
     61          1           0      -12.054720   -1.899185    2.991165
     62          1           0      -13.365139   -2.431371    1.088007
     63          1           0      -11.698440   -3.014256    0.257034
     64          1           0      -13.094735   -2.564292   -0.656768
     65          1           0        9.064390   -0.189095    0.692694
     66          1           0      -10.109538   -2.079020   -0.638562
     67          1           0       10.197344    0.952862   -2.254066
     68          1           0       11.732941    1.442908   -2.593907
     69          1           0       11.426314   -0.067944   -3.273040
     70          1           0      -11.264490    1.984451   -2.778881
     71          1           0       -9.729927    0.974338   -2.218036
     72          1           0      -10.353271    2.770152   -1.437665
     73          1           0       14.936738   -2.842084    0.436872
     74          1           0      -15.083175    1.639991    1.659693
     75          1           0       10.039349    2.515016   -0.518402
     76          1           0       -8.821149    0.593476   -0.011089
     77          1           0        9.168698    4.233755    0.284845
     78          1           0        7.102979    4.480310    0.424041
     79          1           0        8.092181    3.634793    1.976132
     80          1           0       -8.131088   -3.165155   -0.014233
     81          1           0       -8.318999   -2.797608   -1.619696
     82          1           0       -6.912877   -3.097602   -1.037782
     83          1           0        7.085407    0.538046   -0.730779
     84          1           0       -6.360578    0.535402    0.043562
     85          1           0        5.648428    2.997324    0.391442
     86          1           0       -5.079717   -2.176295   -0.627282
     87          1           0        4.907037    0.093058   -0.467478
     88          1           0       -4.090775    0.646371   -0.037591
     89          1           0        3.129568    2.761937    1.912115
     90          1           0        1.753434    3.073549    0.718878
     91          1           0        3.417817    3.439197    0.183257
     92          1           0       -2.728180   -3.081350   -0.051733
     93          1           0       -2.979924   -2.414826   -1.894062
     94          1           0       -1.356495   -2.472349   -1.157096
     95          1           0        2.512772   -0.550798   -0.523498
     96          1           0       -1.943258    1.101265    0.071569
     97          1           0        0.361743    1.692330    0.565679
     98          1           0        0.057483   -1.169011   -0.540596
 ---------------------------------------------------------------------

 SCF Done:  E(RCAM-B3LYP) =  -1706.95144699     A.U. after   14 cycles

 Excitation energies and oscillator strengths:

 Excited State   1:      Singlet-A      2.6043 eV  476.07 nm  f=3.6712  <S**2>=0.000
     155 ->158         0.15741
     156 ->157         0.68443
 This state for optimization and/or second-order correction.
 Total Energy, E(TD-HF/TD-DFT) =  -1706.85574072
 Copying the excited state density for this state as the 1-particle RhoCI density.

 The electronic state is 1-A.
 Alpha  occ. eigenvalues --  -19.20986 -19.20382 -10.31413 -10.29121 -10.28408
 Alpha  occ. eigenvalues --  -10.28058 -10.28035 -10.28033 -10.27746 -10.27671
 Alpha  occ. eigenvalues --  -10.27665 -10.27622 -10.27361 -10.27161 -10.27054
 Alpha  occ. eigenvalues --  -10.26830 -10.26797 -10.26772 -10.26692 -10.26673
 Alpha  occ. eigenvalues --  -10.26583 -10.26571 -10.26564 -10.26531 -10.26340
 Alpha  occ. eigenvalues --  -10.26275 -10.26109 -10.26080 -10.25938 -10.25924
 Alpha  occ. eigenvalues --  -10.25879 -10.25858 -10.25744 -10.25579 -10.25508
 Alpha  occ. eigenvalues --  -10.25296 -10.25066 -10.25039 -10.24804 -10.24073
 Alpha  occ. eigenvalues --  -10.23844 -10.23090  -1.09170  -1.09026  -0.94344
 Alpha  occ. eigenvalues --   -0.93576  -0.92172  -0.91300  -0.90787  -0.89952
 Alpha  occ. eigenvalues --   -0.87580  -0.87265  -0.87027  -0.86143  -0.85067
 Alpha  occ. eigenvalues --   -0.83662  -0.82029  -0.80623  -0.79703  -0.77857
 Alpha  occ. eigenvalues --   -0.76892  -0.76726  -0.76186  -0.75902  -0.75787
 Alpha  occ. eigenvalues --   -0.75247  -0.75011  -0.74458  -0.73613  -0.70324
 Alpha  occ. eigenvalues --   -0.69204  -0.67589  -0.65501  -0.65160  -0.64159
 Alpha  occ. eigenvalues --   -0.63458  -0.62727  -0.61836  -0.60743  -0.60135
 Alpha  occ. eigenvalues --   -0.59494  -0.59290  -0.59201  -0.57718  -0.56690
 Alpha  occ. eigenvalues --   -0.56225  -0.55774  -0.55031  -0.54224  -0.53724
 Alpha  occ. eigenvalues --   -0.53167  -0.52623  -0.51713  -0.51490  -0.51331
 Alpha  occ. eigenvalues --   -0.50460  -0.50270  -0.50007  -0.49862  -0.49677
 Alpha  occ. eigenvalues --   -0.49173  -0.49038  -0.48978  -0.48849  -0.47753
 Alpha  occ. eigenvalues --   -0.47516  -0.47369  -0.46800  -0.46490  -0.46335
 Alpha  occ. eigenvalues --   -0.45967  -0.45767  -0.45225  -0.44838  -0.44592
 Alpha  occ. eigenvalues --   -0.44187  -0.43983  -0.43795  -0.43321  -0.43184
 Alpha  occ. eigenvalues --   -0.42611  -0.42451  -0.42302  -0.42154  -0.41935
 Alpha  occ. eigenvalues --   -0.41775  -0.41685  -0.41339  -0.41034  -0.40944
 Alpha  occ. eigenvalues --   -0.40658  -0.40190  -0.40130  -0.39714  -0.39633
 Alpha  occ. eigenvalues --   -0.39086  -0.38924  -0.38647  -0.37987  -0.37876
 Alpha  occ. eigenvalues --   -0.37546  -0.37451  -0.36884  -0.36446  -0.36203
 Alpha  occ. eigenvalues --   -0.35182  -0.34464  -0.33414  -0.32469  -0.32150
 Alpha  occ. eigenvalues --   -0.31951  -0.29559  -0.28234  -0.26438  -0.24318
 Alpha  occ. eigenvalues --   -0.20462
 Alpha virt. eigenvalues --   -0.04734  -0.00440   0.02263   0.05658   0.07130
 Alpha virt. eigenvalues --    0.09811   0.10433   0.11050   0.11582   0.11735
 Alpha virt. eigenvalues --    0.12045   0.12429   0.12651   0.13029   0.13261

 Mulliken charges:
               1
     1  O   -0.574942
     2  O   -0.572124
     3  C   -0.014106
     4  C   -0.006029
     5  C   -0.181356
     6  C   -0.188034
     7  C    0.223190
     8  C    0.144661
     9  C    0.033161
    10  C    0.052202
    11  C   -0.228162
    12  C   -0.222642
    13  C    0.032119
    14  C    0.052605
    15  C   -0.292184
    16  C   -0.308394
    17  C   -0.291996
    18  C   -0.293455
    19  C   -0.116193
    20  C   -0.154013
    21  C   -0.363430
    22  C   -0.350296
    23  C   -0.116507
    24  C   -0.047081
    25  C    0.075001
    26  C    0.069958
    27  C   -0.324599
    28  C   -0.369629
    29  C   -0.102324
    30  C   -0.143995
    31  C   -0.070138
    32  C   -0.073891
    33  C   -0.138253
    34  C   -0.116247
    35  C    0.105199
    36  C    0.099030
    37  C   -0.363320
    38  C   -0.349997
    39  C   -0.101519
    40  C   -0.114354
    41  C   -0.099600
    42  C   -0.085360
    43  H    0.109009
    44  H    0.052625
    45  H    0.071416
    46  H    0.108039
    47  H    0.081035
    48  H    0.081421
    49  H    0.104948
    50  H    0.101573
    51  H    0.128258
    52  H    0.101619
    53  H    0.080026
    54  H    0.111842
    55  H    0.097082
    56  H    0.110267
    57  H    0.108508
    58  H    0.099919
    59  H    0.085099
    60  H    0.128603
    61  H    0.064134
    62  H    0.109713
    63  H    0.082101
    64  H    0.108960
    65  H    0.106344
    66  H    0.087918
    67  H    0.104333
    68  H    0.126235
    69  H    0.112895
    70  H    0.114337
    71  H    0.115021
    72  H    0.097113
    73  H    0.300851
    74  H    0.298371
    75  H    0.101628
    76  H    0.095417
    77  H    0.069560
    78  H    0.109567
    79  H    0.089702
    80  H    0.123525
    81  H    0.129947
    82  H    0.112599
    83  H    0.094427
    84  H    0.078429
    85  H    0.078962
    86  H    0.072316
    87  H    0.070131
    88  H    0.068175
    89  H    0.129363
    90  H    0.114557
    91  H    0.093329
    92  H    0.082354
    93  H    0.122883
    94  H    0.115137
    95  H    0.073819
    96  H    0.079096
    97  H    0.102108
    98  H    0.090399
 Sum of Mulliken charges =  -0.00000

 Dipole moment (field-independent basis, Debye):
    X=              0.4388    Y=             -1.5408    Z=              1.5947  Tot=              2.2604
 Quadrupole moment (field-independent basis, Debye-Ang):
   XX=           -295.4675   YY=           -247.0538   ZZ=           -259.6364
   XY=             11.6703   XZ=              2.1089   YZ=              1.5402

 Normal termination of Gaussian 16 at Tue Jul  9 22:06:09 2019.
