 Gaussian 16, Revision A.03,
 Gaussian 16:  ES64L-G16RevA.03 25-Dec-2016

 -------------------------------------
 # td=(NStates=1) CAM-B3LYP/6-31G(d,p)
 -------------------------------------

 --
 TD
 --
 Symbolic Z-matrix:
 Charge =  0 Multiplicity = 1

                         Standard orientation:
 ---------------------------------------------------------------------
 Center     Atomic      Atomic             Coordinates (Angstroms)
 Number     Number       Type             X           Y           Z
 ---------------------------------------------------------------------
      1          8           0       14.892352   -1.997703   -0.421011
      2          8           0      -14.771537    2.056243    0.746818
      3          6           0       11.472649   -1.133352    1.203813
      4          6           0      -12.394521   -0.898824    0.753149
      5          6           0       12.990459   -1.363102    1.096755
      6          6           0      -13.699327   -0.115855    0.846165
      7          6           0       13.463330   -1.788239   -0.364775
      8          6           0      -13.551118    1.334815    0.811943
      9          6           0       11.059648   -0.227315   -0.044157
     10          6           0      -11.336340   -0.253598   -0.215769
     11          6           0       13.264643   -0.616142   -1.273831
     12          6           0      -12.731331    1.767130   -0.491300
     13          6           0       11.765485   -0.051771   -1.161151
     14          6           0      -11.473021    0.966446   -0.768666
     15          6           0       11.094428   -0.471598    2.498669
     16          6           0       10.641123   -2.500446    1.172237
     17          6           0      -11.712938   -1.002408    2.107087
     18          6           0      -12.783636   -2.303626    0.148305
     19          6           0        9.648123    0.348642    0.206290
     20          6           0      -10.070761   -0.983476   -0.468667
     21          6           0       11.347611    0.665373   -2.374306
     22          6           0      -10.575084    1.560296   -1.720378
     23          6           0        9.396380    1.619393   -0.030824
     24          6           0       -8.847032   -0.564536   -0.328626
     25          6           0        7.961892    2.212513    0.100101
     26          6           0       -7.636050   -1.264609   -0.487822
     27          6           0        8.040481    3.749135    0.478073
     28          6           0       -7.698075   -2.699210   -0.845112
     29          6           0        6.851119    1.462965   -0.002001
     30          6           0       -6.410785   -0.586155   -0.313916
     31          6           0        5.503087    1.902296    0.210342
     32          6           0       -5.114300   -1.172299   -0.525192
     33          6           0        4.442248    1.117669   -0.116327
     34          6           0       -4.059770   -0.341128   -0.346247
     35          6           0        3.013466    1.429599    0.120393
     36          6           0       -2.652171   -0.762081   -0.469551
     37          6           0        2.805426    2.831022    0.588911
     38          6           0       -2.470336   -2.204576   -0.827705
     39          6           0        2.096607    0.595536   -0.062490
     40          6           0       -1.612145    0.069983   -0.154896
     41          6           0        0.641908    0.719504    0.130555
     42          6           0       -0.267815   -0.269178   -0.141153
     43          1           0       13.383309   -0.305968    1.362730
     44          1           0       13.173170   -2.165348    2.086206
     45          1           0      -14.163714   -0.474864    1.899099
     46          1           0      -14.325290   -0.404549    0.003842
     47          1           0       12.855350   -2.618865   -0.888548
     48          1           0      -12.942253    1.844483    1.551781
     49          1           0       13.922812    0.149645   -1.168261
     50          1           0       13.426449   -0.963153   -2.203270
     51          1           0      -13.637422    1.773565   -1.311848
     52          1           0      -12.519991    2.936534   -0.496555
     53          1           0       11.281670   -1.140355    3.281859
     54          1           0       10.042512   -0.253281    2.599766
     55          1           0       11.473451    0.484636    2.591675
     56          1           0       10.740767   -3.087911    0.263365
     57          1           0       11.067445   -2.903881    2.134585
     58          1           0        9.577834   -2.249375    1.224806
     59          1           0      -11.644644    0.127584    2.319659
     60          1           0      -10.693963   -1.558279    1.919784
     61          1           0      -12.186821   -1.718290    2.935764
     62          1           0      -13.424494   -2.805556    0.817178
     63          1           0      -11.784388   -2.988090    0.027014
     64          1           0      -13.036017   -2.346270   -0.840191
     65          1           0        8.833212   -0.586998    0.596922
     66          1           0      -10.172447   -2.011541   -0.899453
     67          1           0       10.346809    1.055680   -2.331478
     68          1           0       11.934888    1.522164   -2.479439
     69          1           0       11.423536    0.068326   -3.335794
     70          1           0      -11.285251    2.190963   -2.305687
     71          1           0       -9.943503    0.868969   -2.326322
     72          1           0       -9.747225    2.013321   -1.139503
     73          1           0       14.854975   -2.731019    0.071414
     74          1           0      -15.145990    1.690004    1.377305
     75          1           0       10.209885    2.454187   -0.344409
     76          1           0       -8.761182    0.546656   -0.095482
     77          1           0        8.922489    4.215770   -0.107306
     78          1           0        7.121548    4.245153    0.130145
     79          1           0        8.113807    3.939445    1.642898
     80          1           0       -8.578629   -3.219345   -0.324835
     81          1           0       -7.925928   -2.529043   -1.855612
     82          1           0       -6.683482   -3.052610   -0.582034
     83          1           0        7.034206    0.393739   -0.525218
     84          1           0       -6.655059    0.370363   -0.291358
     85          1           0        5.324385    2.683246    0.705961
     86          1           0       -4.792671   -2.318929   -0.805835
     87          1           0        4.740970    0.195761   -0.320125
     88          1           0       -4.273809    0.611011    0.090372
     89          1           0        3.144658    3.025960    1.612810
     90          1           0        1.669572    3.086332    0.580799
     91          1           0        3.130838    3.477440   -0.015809
     92          1           0       -2.547474   -3.012944    0.092827
     93          1           0       -3.361100   -2.400745   -1.571527
     94          1           0       -1.419896   -2.377567   -1.415574
     95          1           0        2.322634   -0.328765   -0.328603
     96          1           0       -1.750592    1.222083    0.079443
     97          1           0        0.049477    1.399051    0.728123
     98          1           0       -0.107283   -1.179624   -0.652068
 ---------------------------------------------------------------------

 SCF Done:  E(RCAM-B3LYP) =  -1706.89470215     A.U. after   14 cycles

 Excitation energies and oscillator strengths:

 Excited State   1:      Singlet-A      2.9009 eV  427.40 nm  f=3.5562  <S**2>=0.000
     155 ->158        -0.17096
     156 ->157         0.67981
 This state for optimization and/or second-order correction.
 Total Energy, E(TD-HF/TD-DFT) =  -1706.78809506
 Copying the excited state density for this state as the 1-particle RhoCI density.

 The electronic state is 1-A.
 Alpha  occ. eigenvalues --  -19.20884 -19.20141 -10.31703 -10.30313 -10.28725
 Alpha  occ. eigenvalues --  -10.28066 -10.27943 -10.27906 -10.27804 -10.27537
 Alpha  occ. eigenvalues --  -10.27515 -10.27446 -10.27411 -10.27402 -10.27023
 Alpha  occ. eigenvalues --  -10.26665 -10.26659 -10.26581 -10.26556 -10.26550
 Alpha  occ. eigenvalues --  -10.26415 -10.26363 -10.26165 -10.26089 -10.25969
 Alpha  occ. eigenvalues --  -10.25948 -10.25728 -10.25629 -10.25527 -10.25438
 Alpha  occ. eigenvalues --  -10.25380 -10.25328 -10.25165 -10.25020 -10.24942
 Alpha  occ. eigenvalues --  -10.24785 -10.24774 -10.24392 -10.24151 -10.24150
 Alpha  occ. eigenvalues --  -10.23494 -10.22975  -1.13969  -1.11671  -0.93990
 Alpha  occ. eigenvalues --   -0.92998  -0.92642  -0.92206  -0.91221  -0.89542
 Alpha  occ. eigenvalues --   -0.88186  -0.87515  -0.87267  -0.85766  -0.84849
 Alpha  occ. eigenvalues --   -0.83272  -0.82448  -0.80747  -0.80076  -0.79105
 Alpha  occ. eigenvalues --   -0.76849  -0.76603  -0.76227  -0.75847  -0.75775
 Alpha  occ. eigenvalues --   -0.75538  -0.75022  -0.74423  -0.74153  -0.70443
 Alpha  occ. eigenvalues --   -0.68510  -0.67165  -0.66161  -0.64734  -0.64196
 Alpha  occ. eigenvalues --   -0.63051  -0.62844  -0.62114  -0.61371  -0.59477
 Alpha  occ. eigenvalues --   -0.58958  -0.58885  -0.58279  -0.57745  -0.56713
 Alpha  occ. eigenvalues --   -0.56247  -0.55892  -0.54566  -0.53973  -0.53392
 Alpha  occ. eigenvalues --   -0.53048  -0.52694  -0.52197  -0.52105  -0.51344
 Alpha  occ. eigenvalues --   -0.50866  -0.50717  -0.50597  -0.50279  -0.49765
 Alpha  occ. eigenvalues --   -0.49348  -0.48851  -0.48494  -0.48156  -0.47985
 Alpha  occ. eigenvalues --   -0.47560  -0.47308  -0.47124  -0.47092  -0.46404
 Alpha  occ. eigenvalues --   -0.46318  -0.46104  -0.45989  -0.45694  -0.45292
 Alpha  occ. eigenvalues --   -0.45105  -0.44555  -0.44468  -0.44089  -0.43828
 Alpha  occ. eigenvalues --   -0.43461  -0.42940  -0.42753  -0.42186  -0.42136
 Alpha  occ. eigenvalues --   -0.41544  -0.41295  -0.41147  -0.40834  -0.40758
 Alpha  occ. eigenvalues --   -0.40184  -0.40056  -0.39689  -0.39463  -0.39169
 Alpha  occ. eigenvalues --   -0.38886  -0.38715  -0.38494  -0.38447  -0.38235
 Alpha  occ. eigenvalues --   -0.37983  -0.37751  -0.37185  -0.36865  -0.35995
 Alpha  occ. eigenvalues --   -0.35658  -0.34571  -0.33612  -0.33105  -0.32747
 Alpha  occ. eigenvalues --   -0.32191  -0.29293  -0.28432  -0.27116  -0.24605
 Alpha  occ. eigenvalues --   -0.21270
 Alpha virt. eigenvalues --   -0.03998  -0.00142   0.03071   0.06441   0.07605
 Alpha virt. eigenvalues --    0.09472   0.10299   0.11343   0.11514   0.11917
 Alpha virt. eigenvalues --    0.12076   0.12799   0.13234   0.13966   0.14053

 Mulliken charges:
               1
     1  O   -0.519709
     2  O   -0.502504
     3  C   -0.029682
     4  C   -0.008938
     5  C   -0.174225
     6  C   -0.188803
     7  C    0.120787
     8  C    0.136314
     9  C    0.040233
    10  C    0.039262
    11  C   -0.197610
    12  C   -0.255524
    13  C    0.023796
    14  C    0.095500
    15  C   -0.297156
    16  C   -0.287582
    17  C   -0.281588
    18  C   -0.307860
    19  C   -0.106079
    20  C   -0.170706
    21  C   -0.370188
    22  C   -0.367603
    23  C   -0.108930
    24  C   -0.054143
    25  C    0.061799
    26  C    0.062777
    27  C   -0.358660
    28  C   -0.355454
    29  C   -0.126818
    30  C   -0.106967
    31  C   -0.044328
    32  C   -0.108783
    33  C   -0.108630
    34  C   -0.084652
    35  C    0.144337
    36  C    0.087409
    37  C   -0.376780
    38  C   -0.367160
    39  C   -0.128913
    40  C   -0.122795
    41  C   -0.107039
    42  C   -0.054342
    43  H    0.105057
    44  H    0.041604
    45  H    0.074386
    46  H    0.117157
    47  H    0.085982
    48  H    0.091690
    49  H    0.127680
    50  H    0.111333
    51  H    0.097366
    52  H    0.094643
    53  H    0.098099
    54  H    0.109854
    55  H    0.111307
    56  H    0.105561
    57  H    0.095789
    58  H    0.097413
    59  H    0.100307
    60  H    0.103991
    61  H    0.084501
    62  H    0.107929
    63  H    0.063103
    64  H    0.120861
    65  H    0.085391
    66  H    0.079086
    67  H    0.118970
    68  H    0.119826
    69  H    0.103285
    70  H    0.111692
    71  H    0.121287
    72  H    0.120631
    73  H    0.293754
    74  H    0.272635
    75  H    0.092328
    76  H    0.063655
    77  H    0.105263
    78  H    0.115294
    79  H    0.114836
    80  H    0.107349
    81  H    0.140181
    82  H    0.111746
    83  H    0.078333
    84  H    0.072959
    85  H    0.064794
    86  H    0.097318
    87  H    0.065895
    88  H    0.088448
    89  H    0.121133
    90  H    0.089893
    91  H    0.134810
    92  H    0.112357
    93  H    0.109116
    94  H    0.096328
    95  H    0.075355
    96  H    0.073857
    97  H    0.091680
    98  H    0.072843
 Sum of Mulliken charges =  -0.00000

 Dipole moment (field-independent basis, Debye):
    X=             -0.2366    Y=             -1.3945    Z=              1.0168  Tot=              1.7420
 Quadrupole moment (field-independent basis, Debye-Ang):
   XX=           -298.8835   YY=           -248.6185   ZZ=           -260.1116
   XY=             16.8889   XZ=             -2.9768   YZ=              2.4339

 Normal termination of Gaussian 16 at Thu Jul  4 09:30:33 2019.
