 Gaussian 16, Revision A.03,
 Gaussian 16:  ES64L-G16RevA.03 25-Dec-2016

 -------------------------------------
 # td=(NStates=1) CAM-B3LYP/6-31G(d,p)
 -------------------------------------

 --
 TD
 --
 Symbolic Z-matrix:
 Charge =  0 Multiplicity = 1

                         Standard orientation:
 ---------------------------------------------------------------------
 Center     Atomic      Atomic             Coordinates (Angstroms)
 Number     Number       Type             X           Y           Z
 ---------------------------------------------------------------------
      1          8           0       14.802896   -2.082545   -0.542235
      2          8           0      -14.916929    1.831701    0.584376
      3          6           0       11.542504   -1.123275    1.162873
      4          6           0      -12.318155   -0.931581    0.856287
      5          6           0       13.041109   -1.355545    1.043578
      6          6           0      -13.686708   -0.252635    0.678165
      7          6           0       13.392582   -1.944798   -0.374782
      8          6           0      -13.629337    1.248059    0.632314
      9          6           0       10.938592   -0.340589   -0.055685
     10          6           0      -11.341263   -0.269589   -0.146095
     11          6           0       13.037506   -0.808083   -1.397159
     12          6           0      -12.801498    1.752054   -0.535655
     13          6           0       11.644422   -0.153267   -1.204300
     14          6           0      -11.546526    0.893002   -0.771382
     15          6           0       11.336497   -0.347315    2.443280
     16          6           0       10.761612   -2.364871    1.314604
     17          6           0      -11.690498   -0.894900    2.182274
     18          6           0      -12.573395   -2.424623    0.460697
     19          6           0        9.605756    0.411617    0.174894
     20          6           0      -10.026989   -1.083983   -0.318380
     21          6           0       11.144059    0.435376   -2.451564
     22          6           0      -10.742232    1.554731   -1.895203
     23          6           0        9.336953    1.677845   -0.034346
     24          6           0       -8.834702   -0.579104   -0.298766
     25          6           0        8.044554    2.214350    0.070439
     26          6           0       -7.599393   -1.201456   -0.529243
     27          6           0        8.138043    3.684163    0.346004
     28          6           0       -7.743503   -2.625141   -0.976812
     29          6           0        6.929440    1.448445   -0.007036
     30          6           0       -6.393320   -0.496230   -0.255255
     31          6           0        5.510603    1.982392    0.324809
     32          6           0       -5.049802   -1.036015   -0.402986
     33          6           0        4.480252    1.223743    0.103966
     34          6           0       -3.953685   -0.269937   -0.206943
     35          6           0        3.032764    1.569606    0.315865
     36          6           0       -2.598869   -0.804485   -0.356195
     37          6           0        2.774278    2.966891    0.738401
     38          6           0       -2.421062   -2.317929   -0.788458
     39          6           0        2.110837    0.691046   -0.044590
     40          6           0       -1.648240    0.191877   -0.181025
     41          6           0        0.678559    0.961705   -0.021331
     42          6           0       -0.222307   -0.022241   -0.163365
     43          1           0       13.591795   -0.376197    1.231818
     44          1           0       13.302694   -1.884413    1.906277
     45          1           0      -14.338546   -0.739097    1.193292
     46          1           0      -14.026711   -0.479757   -0.245342
     47          1           0       12.964129   -2.913107   -0.657346
     48          1           0      -13.104908    1.703588    1.497010
     49          1           0       13.885879   -0.175168   -1.321049
     50          1           0       12.912933   -1.362434   -2.271691
     51          1           0      -13.444505    1.686112   -1.469646
     52          1           0      -12.827325    2.893302   -0.729029
     53          1           0       11.742838   -1.009816    3.337197
     54          1           0       10.155974   -0.129527    2.595337
     55          1           0       12.068195    0.528916    2.605911
     56          1           0       10.702039   -2.880312    0.266216
     57          1           0       11.124993   -3.124305    1.978462
     58          1           0        9.688605   -2.250195    1.520800
     59          1           0      -11.497140    0.086288    2.630450
     60          1           0      -10.774937   -1.565711    2.133113
     61          1           0      -12.441012   -1.247056    2.974958
     62          1           0      -13.532089   -2.735680    1.066742
     63          1           0      -11.784725   -3.195044    0.401612
     64          1           0      -12.934111   -2.296920   -0.644066
     65          1           0        8.826092   -0.337296    0.503572
     66          1           0      -10.153597   -2.107308   -0.485013
     67          1           0       10.085608    0.788802   -2.319591
     68          1           0       11.848059    1.239220   -2.832912
     69          1           0       10.973035   -0.371042   -3.297505
     70          1           0      -11.383934    1.845045   -2.944540
     71          1           0       -9.961976    0.699968   -2.039354
     72          1           0      -10.251636    2.397481   -1.603145
     73          1           0       15.147866   -2.604813    0.149955
     74          1           0      -15.294372    1.465543    1.423941
     75          1           0       10.105367    2.250801   -0.298838
     76          1           0       -8.643543    0.521124   -0.264661
     77          1           0        8.691869    4.076251   -0.539646
     78          1           0        7.174150    4.245846    0.406103
     79          1           0        8.798015    3.880154    1.268463
     80          1           0       -8.214438   -3.009753   -0.259529
     81          1           0       -8.234372   -2.801227   -1.933406
     82          1           0       -6.610193   -3.193226   -0.935659
     83          1           0        6.969645    0.402774   -0.263806
     84          1           0       -6.534261    0.648180   -0.009579
     85          1           0        5.397744    2.983812    0.779925
     86          1           0       -5.101469   -2.259215   -0.584859
     87          1           0        4.519028    0.183810   -0.182793
     88          1           0       -3.999567    0.825225    0.254673
     89          1           0        3.259266    3.305812    1.623703
     90          1           0        1.710875    3.104168    0.774626
     91          1           0        3.048703    3.706012    0.011470
     92          1           0       -2.827542   -3.029220   -0.111166
     93          1           0       -3.140122   -2.387727   -1.568541
     94          1           0       -1.383057   -2.506298   -1.206728
     95          1           0        2.548212   -0.282771   -0.152636
     96          1           0       -2.242450    1.277849   -0.109805
     97          1           0        0.353920    2.016963    0.110324
     98          1           0        0.040633   -1.057514   -0.292583
 ---------------------------------------------------------------------

 SCF Done:  E(RCAM-B3LYP) =  -1707.02611404     A.U. after   14 cycles

 Excitation energies and oscillator strengths:

 Excited State   1:      Singlet-A      3.0069 eV  412.33 nm  f=3.5706  <S**2>=0.000
     155 ->158         0.17165
     156 ->157         0.67933
 This state for optimization and/or second-order correction.
 Total Energy, E(TD-HF/TD-DFT) =  -1706.91561099
 Copying the excited state density for this state as the 1-particle RhoCI density.

 The electronic state is 1-A.
 Alpha  occ. eigenvalues --  -19.21130 -19.20309 -10.30686 -10.29868 -10.27920
 Alpha  occ. eigenvalues --  -10.27717 -10.27593 -10.27518 -10.27402 -10.27327
 Alpha  occ. eigenvalues --  -10.27043 -10.26931 -10.26700 -10.26688 -10.26537
 Alpha  occ. eigenvalues --  -10.26499 -10.26430 -10.26365 -10.26358 -10.26346
 Alpha  occ. eigenvalues --  -10.26241 -10.26204 -10.26194 -10.26184 -10.26165
 Alpha  occ. eigenvalues --  -10.26163 -10.25989 -10.25850 -10.25797 -10.25600
 Alpha  occ. eigenvalues --  -10.25489 -10.25322 -10.25272 -10.25225 -10.25152
 Alpha  occ. eigenvalues --  -10.24972 -10.24842 -10.24750 -10.24222 -10.24100
 Alpha  occ. eigenvalues --  -10.23977 -10.22687  -1.09497  -1.09486  -0.93757
 Alpha  occ. eigenvalues --   -0.93403  -0.92061  -0.91666  -0.91257  -0.90281
 Alpha  occ. eigenvalues --   -0.87419  -0.87128  -0.86685  -0.85007  -0.84119
 Alpha  occ. eigenvalues --   -0.83032  -0.82045  -0.80122  -0.79961  -0.78617
 Alpha  occ. eigenvalues --   -0.77171  -0.76833  -0.76417  -0.76295  -0.75636
 Alpha  occ. eigenvalues --   -0.75046  -0.75039  -0.74375  -0.74224  -0.70363
 Alpha  occ. eigenvalues --   -0.68433  -0.67060  -0.65833  -0.65228  -0.63733
 Alpha  occ. eigenvalues --   -0.63091  -0.62671  -0.61007  -0.60037  -0.59249
 Alpha  occ. eigenvalues --   -0.58729  -0.58526  -0.58342  -0.57438  -0.56306
 Alpha  occ. eigenvalues --   -0.55611  -0.55417  -0.54881  -0.54651  -0.54004
 Alpha  occ. eigenvalues --   -0.53002  -0.52595  -0.52281  -0.52160  -0.51166
 Alpha  occ. eigenvalues --   -0.50965  -0.50611  -0.49496  -0.49258  -0.49081
 Alpha  occ. eigenvalues --   -0.49063  -0.48747  -0.48505  -0.48447  -0.48332
 Alpha  occ. eigenvalues --   -0.48142  -0.47939  -0.47426  -0.46683  -0.46519
 Alpha  occ. eigenvalues --   -0.46164  -0.45865  -0.45420  -0.44995  -0.44903
 Alpha  occ. eigenvalues --   -0.44601  -0.44322  -0.44062  -0.43949  -0.43665
 Alpha  occ. eigenvalues --   -0.43220  -0.42888  -0.42632  -0.42176  -0.41834
 Alpha  occ. eigenvalues --   -0.41711  -0.41468  -0.41185  -0.40962  -0.40877
 Alpha  occ. eigenvalues --   -0.40199  -0.39701  -0.39682  -0.39410  -0.38912
 Alpha  occ. eigenvalues --   -0.38546  -0.38474  -0.38350  -0.38136  -0.37921
 Alpha  occ. eigenvalues --   -0.37707  -0.37488  -0.36647  -0.36156  -0.35688
 Alpha  occ. eigenvalues --   -0.35398  -0.34443  -0.33962  -0.32262  -0.32011
 Alpha  occ. eigenvalues --   -0.31722  -0.29490  -0.28476  -0.26848  -0.24422
 Alpha  occ. eigenvalues --   -0.21252
 Alpha virt. eigenvalues --   -0.03441   0.00317   0.03107   0.06756   0.08174
 Alpha virt. eigenvalues --    0.09327   0.09696   0.11881   0.12402   0.12695
 Alpha virt. eigenvalues --    0.12994   0.13087   0.13429   0.13647   0.13963

 Mulliken charges:
               1
     1  O   -0.561702
     2  O   -0.555919
     3  C    0.003990
     4  C   -0.021015
     5  C   -0.198006
     6  C   -0.183161
     7  C    0.147644
     8  C    0.162065
     9  C    0.042850
    10  C    0.047427
    11  C   -0.206794
    12  C   -0.246411
    13  C    0.040894
    14  C    0.066259
    15  C   -0.285006
    16  C   -0.297385
    17  C   -0.274979
    18  C   -0.309172
    19  C   -0.132371
    20  C   -0.171151
    21  C   -0.361781
    22  C   -0.347253
    23  C   -0.059153
    24  C   -0.053903
    25  C    0.101323
    26  C    0.086668
    27  C   -0.368827
    28  C   -0.349549
    29  C   -0.136537
    30  C   -0.132402
    31  C   -0.103007
    32  C   -0.100330
    33  C   -0.085749
    34  C   -0.111738
    35  C    0.116718
    36  C    0.106865
    37  C   -0.384677
    38  C   -0.370422
    39  C   -0.127923
    40  C   -0.135376
    41  C   -0.090138
    42  C   -0.087774
    43  H    0.096616
    44  H    0.085430
    45  H    0.078346
    46  H    0.116638
    47  H    0.088765
    48  H    0.072810
    49  H    0.132858
    50  H    0.112412
    51  H    0.104349
    52  H    0.108467
    53  H    0.074583
    54  H    0.094752
    55  H    0.093142
    56  H    0.083683
    57  H    0.104410
    58  H    0.105241
    59  H    0.105751
    60  H    0.106596
    61  H    0.076342
    62  H    0.091012
    63  H    0.107222
    64  H    0.096090
    65  H    0.080810
    66  H    0.081999
    67  H    0.115545
    68  H    0.109985
    69  H    0.098191
    70  H    0.082972
    71  H    0.102643
    72  H    0.130726
    73  H    0.297651
    74  H    0.305822
    75  H    0.080223
    76  H    0.079073
    77  H    0.119124
    78  H    0.104776
    79  H    0.118315
    80  H    0.142993
    81  H    0.130614
    82  H    0.056985
    83  H    0.084644
    84  H    0.079154
    85  H    0.085369
    86  H    0.076865
    87  H    0.068357
    88  H    0.095107
    89  H    0.123980
    90  H    0.100545
    91  H    0.124998
    92  H    0.132471
    93  H    0.136326
    94  H    0.112752
    95  H    0.078769
    96  H    0.071305
    97  H    0.094600
    98  H    0.087701
 Sum of Mulliken charges =  -0.00000

 Dipole moment (field-independent basis, Debye):
    X=              0.7568    Y=             -1.7282    Z=              1.9119  Tot=              2.6861
 Quadrupole moment (field-independent basis, Debye-Ang):
   XX=           -276.9319   YY=           -243.3623   ZZ=           -263.1325
   XY=             13.3283   XZ=              3.0573   YZ=              0.4326

 Normal termination of Gaussian 16 at Fri Jun 28 19:26:51 2019.
