 Gaussian 16, Revision A.03,
 Gaussian 16:  ES64L-G16RevA.03 25-Dec-2016

 -------------------------------------
 # td=(NStates=1) CAM-B3LYP/6-31G(d,p)
 -------------------------------------

 --
 TD
 --
 Symbolic Z-matrix:
 Charge =  0 Multiplicity = 1

                         Standard orientation:
 ---------------------------------------------------------------------
 Center     Atomic      Atomic             Coordinates (Angstroms)
 Number     Number       Type             X           Y           Z
 ---------------------------------------------------------------------
      1          8           0       14.854652   -2.196306   -0.462361
      2          8           0      -14.865786    1.936810    0.812096
      3          6           0       11.607377   -1.181230    1.206174
      4          6           0      -12.387488   -1.040274    0.679587
      5          6           0       13.013851   -1.439250    1.101639
      6          6           0      -13.753953   -0.287042    0.673659
      7          6           0       13.411033   -1.745358   -0.361607
      8          6           0      -13.587981    1.201129    0.800742
      9          6           0       10.979860   -0.394576    0.034826
     10          6           0      -11.316781   -0.327174   -0.198593
     11          6           0       13.130571   -0.687243   -1.267131
     12          6           0      -12.783142    1.740049   -0.462204
     13          6           0       11.735640   -0.167067   -1.106099
     14          6           0      -11.630812    0.888265   -0.665581
     15          6           0       11.230697   -0.460195    2.544990
     16          6           0       10.791955   -2.476970    1.290586
     17          6           0      -11.832905   -1.120123    2.131245
     18          6           0      -12.652662   -2.502268    0.290056
     19          6           0        9.613289    0.275418    0.233629
     20          6           0      -10.102597   -1.069450   -0.405480
     21          6           0       11.222967    0.411995   -2.418325
     22          6           0      -10.570613    1.618495   -1.653412
     23          6           0        9.337420    1.448274   -0.040382
     24          6           0       -8.873416   -0.617347   -0.332292
     25          6           0        8.001782    2.113097    0.147453
     26          6           0       -7.630683   -1.245033   -0.598972
     27          6           0        8.183275    3.614666    0.341847
     28          6           0       -7.603989   -2.576494   -1.125041
     29          6           0        6.888068    1.497595    0.019345
     30          6           0       -6.441308   -0.561780   -0.131072
     31          6           0        5.510033    2.097867    0.240401
     32          6           0       -5.067049   -1.081247   -0.380697
     33          6           0        4.496429    1.380761    0.010823
     34          6           0       -4.067720   -0.275510   -0.166919
     35          6           0        3.087105    1.770432    0.126968
     36          6           0       -2.646706   -0.718017   -0.457668
     37          6           0        2.760251    3.112420    0.485202
     38          6           0       -2.439300   -2.110309   -0.920603
     39          6           0        2.128054    0.806600   -0.192489
     40          6           0       -1.682111    0.181436   -0.095558
     41          6           0        0.640455    0.955638   -0.029936
     42          6           0       -0.243827    0.049174   -0.418246
     43          1           0       13.855730   -0.722487    1.477067
     44          1           0       13.322176   -2.163709    1.945151
     45          1           0      -14.489618   -0.579693    1.423161
     46          1           0      -14.385779   -0.392037   -0.406454
     47          1           0       12.758823   -2.536219   -0.743632
     48          1           0      -13.186542    1.411608    1.721271
     49          1           0       13.635370    0.310268   -1.017059
     50          1           0       13.341404   -1.202729   -2.257655
     51          1           0      -13.400810    1.874387   -1.383304
     52          1           0      -12.585851    2.724174   -0.140199
     53          1           0       11.428045   -0.862160    3.566695
     54          1           0       10.326176   -0.221309    2.647084
     55          1           0       11.834915    0.373299    2.506722
     56          1           0       10.936662   -2.879091    0.131036
     57          1           0       11.112266   -3.009282    2.112902
     58          1           0        9.723853   -2.313351    1.230247
     59          1           0      -11.661880   -0.159269    2.612952
     60          1           0      -10.904640   -1.580170    2.082113
     61          1           0      -12.506165   -1.642134    2.891216
     62          1           0      -13.575754   -2.811017    0.823688
     63          1           0      -11.603206   -3.004862    0.288177
     64          1           0      -13.147420   -2.638666   -0.676297
     65          1           0        9.051312   -0.475493    0.774573
     66          1           0      -10.185128   -2.192634   -0.681967
     67          1           0       10.157520    1.084487   -2.170147
     68          1           0       11.918194    1.279902   -2.926431
     69          1           0       11.211595   -0.508577   -3.193551
     70          1           0      -11.331432    2.282674   -2.225843
     71          1           0       -9.842624    0.903792   -2.215197
     72          1           0      -10.116608    2.451627   -1.033463
     73          1           0       15.040716   -3.025394    0.041797
     74          1           0      -15.205728    1.484789    1.609664
     75          1           0       10.183845    2.129813   -0.539284
     76          1           0       -8.839234    0.484794   -0.124326
     77          1           0        8.689845    4.236312   -0.456286
     78          1           0        7.194817    4.247229    0.154990
     79          1           0        8.461958    3.813936    1.577808
     80          1           0       -7.894290   -3.273277   -0.375351
     81          1           0       -8.112808   -2.559916   -2.099167
     82          1           0       -6.551828   -3.051369   -1.530370
     83          1           0        7.059518    0.351418    0.068649
     84          1           0       -6.643076    0.505246    0.225836
     85          1           0        5.322511    3.136600    0.435254
     86          1           0       -4.917941   -2.097684   -0.926632
     87          1           0        4.637503    0.346357   -0.222528
     88          1           0       -4.158916    0.827860   -0.064576
     89          1           0        3.413007    3.501614    1.308391
     90          1           0        1.602622    3.424733    0.909925
     91          1           0        2.880271    3.817676   -0.393394
     92          1           0       -2.514246   -2.793586    0.109875
     93          1           0       -3.342223   -2.460770   -1.684485
     94          1           0       -1.493808   -2.327382   -1.122405
     95          1           0        2.572725   -0.234713   -0.255615
     96          1           0       -2.081949    1.173539    0.180534
     97          1           0        0.242378    1.932937    0.503082
     98          1           0        0.122417   -0.792256   -0.877311
 ---------------------------------------------------------------------

 SCF Done:  E(RCAM-B3LYP) =  -1706.89256345     A.U. after   13 cycles

 Excitation energies and oscillator strengths:

 Excited State   1:      Singlet-A      3.2357 eV  383.18 nm  f=3.3112  <S**2>=0.000
     155 ->158         0.19019
     156 ->157         0.67269
 This state for optimization and/or second-order correction.
 Total Energy, E(TD-HF/TD-DFT) =  -1706.77365432
 Copying the excited state density for this state as the 1-particle RhoCI density.

 The electronic state is 1-A.
 Alpha  occ. eigenvalues --  -19.20870 -19.20458 -10.30356 -10.29684 -10.28647
 Alpha  occ. eigenvalues --  -10.28254 -10.27782 -10.27673 -10.27528 -10.27443
 Alpha  occ. eigenvalues --  -10.27417 -10.27397 -10.27337 -10.27329 -10.27211
 Alpha  occ. eigenvalues --  -10.27179 -10.27153 -10.26720 -10.26657 -10.26628
 Alpha  occ. eigenvalues --  -10.26573 -10.26466 -10.26342 -10.26333 -10.26257
 Alpha  occ. eigenvalues --  -10.26175 -10.26158 -10.26077 -10.25998 -10.25990
 Alpha  occ. eigenvalues --  -10.25861 -10.25727 -10.25700 -10.25565 -10.25521
 Alpha  occ. eigenvalues --  -10.25464 -10.25416 -10.25187 -10.25112 -10.24917
 Alpha  occ. eigenvalues --  -10.24119 -10.22218  -1.08162  -1.05640  -0.94693
 Alpha  occ. eigenvalues --   -0.93631  -0.92559  -0.91770  -0.90947  -0.90501
 Alpha  occ. eigenvalues --   -0.88144  -0.87740  -0.86662  -0.86239  -0.85144
 Alpha  occ. eigenvalues --   -0.83592  -0.82438  -0.80610  -0.79907  -0.77699
 Alpha  occ. eigenvalues --   -0.77471  -0.76454  -0.76046  -0.75857  -0.75796
 Alpha  occ. eigenvalues --   -0.75420  -0.74719  -0.74422  -0.74048  -0.69677
 Alpha  occ. eigenvalues --   -0.68162  -0.67049  -0.65584  -0.64661  -0.63768
 Alpha  occ. eigenvalues --   -0.63482  -0.62269  -0.61343  -0.60392  -0.60130
 Alpha  occ. eigenvalues --   -0.59364  -0.58562  -0.58091  -0.57762  -0.56065
 Alpha  occ. eigenvalues --   -0.55830  -0.55109  -0.54864  -0.54407  -0.53604
 Alpha  occ. eigenvalues --   -0.53272  -0.52419  -0.52143  -0.51707  -0.51458
 Alpha  occ. eigenvalues --   -0.51254  -0.50763  -0.49772  -0.49506  -0.49334
 Alpha  occ. eigenvalues --   -0.49064  -0.48967  -0.48823  -0.48759  -0.48352
 Alpha  occ. eigenvalues --   -0.47630  -0.46998  -0.46834  -0.46728  -0.46712
 Alpha  occ. eigenvalues --   -0.46050  -0.45691  -0.45654  -0.45207  -0.45117
 Alpha  occ. eigenvalues --   -0.44863  -0.43728  -0.43563  -0.43408  -0.43107
 Alpha  occ. eigenvalues --   -0.42822  -0.42498  -0.42225  -0.41985  -0.41910
 Alpha  occ. eigenvalues --   -0.41483  -0.41176  -0.40740  -0.40429  -0.39853
 Alpha  occ. eigenvalues --   -0.39819  -0.39634  -0.39426  -0.39140  -0.38761
 Alpha  occ. eigenvalues --   -0.38568  -0.38392  -0.38253  -0.38020  -0.37875
 Alpha  occ. eigenvalues --   -0.37694  -0.37071  -0.37067  -0.36153  -0.35771
 Alpha  occ. eigenvalues --   -0.35599  -0.33939  -0.33532  -0.32302  -0.31970
 Alpha  occ. eigenvalues --   -0.31508  -0.30138  -0.28659  -0.26827  -0.24815
 Alpha  occ. eigenvalues --   -0.22054
 Alpha virt. eigenvalues --   -0.02981   0.00158   0.03287   0.05848   0.07934
 Alpha virt. eigenvalues --    0.09128   0.10098   0.10991   0.11715   0.11988
 Alpha virt. eigenvalues --    0.12049   0.12652   0.12682   0.12968   0.13043

 Mulliken charges:
               1
     1  O   -0.597413
     2  O   -0.561196
     3  C   -0.020067
     4  C   -0.028370
     5  C   -0.198050
     6  C   -0.188477
     7  C    0.165166
     8  C    0.128310
     9  C    0.033657
    10  C    0.101212
    11  C   -0.189541
    12  C   -0.235379
    13  C    0.009929
    14  C    0.040797
    15  C   -0.300567
    16  C   -0.272306
    17  C   -0.297841
    18  C   -0.292406
    19  C   -0.054772
    20  C   -0.163008
    21  C   -0.330863
    22  C   -0.359534
    23  C   -0.116456
    24  C   -0.084217
    25  C    0.092067
    26  C    0.103463
    27  C   -0.358694
    28  C   -0.377799
    29  C   -0.126574
    30  C   -0.136957
    31  C   -0.100330
    32  C   -0.083333
    33  C   -0.062050
    34  C   -0.090995
    35  C    0.147296
    36  C    0.109381
    37  C   -0.392351
    38  C   -0.346738
    39  C   -0.163205
    40  C   -0.141749
    41  C   -0.084390
    42  C   -0.065685
    43  H    0.097681
    44  H    0.078666
    45  H    0.075211
    46  H    0.073303
    47  H    0.088246
    48  H    0.097793
    49  H    0.119815
    50  H    0.115165
    51  H    0.131053
    52  H    0.127280
    53  H    0.084553
    54  H    0.108202
    55  H    0.109552
    56  H    0.067895
    57  H    0.109069
    58  H    0.105330
    59  H    0.096790
    60  H    0.115889
    61  H    0.088206
    62  H    0.101895
    63  H    0.093553
    64  H    0.099935
    65  H    0.084472
    66  H    0.082947
    67  H    0.090192
    68  H    0.092066
    69  H    0.106140
    70  H    0.089678
    71  H    0.123006
    72  H    0.109779
    73  H    0.306785
    74  H    0.297498
    75  H    0.097363
    76  H    0.085862
    77  H    0.120196
    78  H    0.085966
    79  H    0.099066
    80  H    0.138834
    81  H    0.126434
    82  H    0.081428
    83  H    0.080098
    84  H    0.086681
    85  H    0.086849
    86  H    0.084916
    87  H    0.075279
    88  H    0.092562
    89  H    0.118323
    90  H    0.087293
    91  H    0.128493
    92  H    0.103149
    93  H    0.101216
    94  H    0.120551
    95  H    0.083830
    96  H    0.080366
    97  H    0.077208
    98  H    0.080426
 Sum of Mulliken charges =  -0.00000

 Dipole moment (field-independent basis, Debye):
    X=              0.2325    Y=             -1.3747    Z=              1.6901  Tot=              2.1909
 Quadrupole moment (field-independent basis, Debye-Ang):
   XX=           -312.1474   YY=           -246.7804   ZZ=           -259.6890
   XY=             11.7366   XZ=              1.9190   YZ=              1.7311

 Normal termination of Gaussian 16 at Fri Jun 28 08:00:49 2019.
