 Gaussian 16, Revision A.03,
 Gaussian 16:  ES64L-G16RevA.03 25-Dec-2016

 -------------------------------------
 # td=(NStates=1) CAM-B3LYP/6-31G(d,p)
 -------------------------------------

 --
 TD
 --
 Symbolic Z-matrix:
 Charge =  0 Multiplicity = 1

                         Standard orientation:
 ---------------------------------------------------------------------
 Center     Atomic      Atomic             Coordinates (Angstroms)
 Number     Number       Type             X           Y           Z
 ---------------------------------------------------------------------
      1          8           0       14.684625   -2.158356   -0.398507
      2          8           0      -14.619365    2.173284    0.835821
      3          6           0       11.417753   -1.154258    1.187899
      4          6           0      -12.289695   -0.889804    0.605197
      5          6           0       12.951196   -1.376559    1.000068
      6          6           0      -13.602938   -0.117682    0.827673
      7          6           0       13.269949   -1.830331   -0.345418
      8          6           0      -13.439679    1.427677    0.721352
      9          6           0       10.946829   -0.223380   -0.016340
     10          6           0      -11.317049   -0.256656   -0.206392
     11          6           0       13.018970   -0.733193   -1.377859
     12          6           0      -12.722501    1.862098   -0.516411
     13          6           0       11.673433   -0.062055   -1.157042
     14          6           0      -11.468947    0.941764   -0.789487
     15          6           0       11.210064   -0.434395    2.493028
     16          6           0       10.633391   -2.408630    1.066346
     17          6           0      -11.704898   -1.004445    2.116009
     18          6           0      -12.633297   -2.360883    0.256482
     19          6           0        9.689832    0.460808    0.198876
     20          6           0      -10.068176   -1.014118   -0.364618
     21          6           0       11.178809    0.839129   -2.316265
     22          6           0      -10.586222    1.585848   -1.899862
     23          6           0        9.435097    1.670775   -0.056325
     24          6           0       -8.819472   -0.493171   -0.396943
     25          6           0        8.068544    2.358521    0.174436
     26          6           0       -7.608340   -1.243752   -0.454239
     27          6           0        8.083356    3.780085    0.718340
     28          6           0       -7.649083   -2.749718   -0.876573
     29          6           0        6.895186    1.618685   -0.063107
     30          6           0       -6.479904   -0.664420   -0.329127
     31          6           0        5.460272    1.933746    0.182210
     32          6           0       -5.106078   -1.227145   -0.394811
     33          6           0        4.392276    1.087189   -0.005091
     34          6           0       -4.022489   -0.422303   -0.251867
     35          6           0        3.039267    1.502370    0.145790
     36          6           0       -2.630218   -0.887515   -0.372567
     37          6           0        2.686697    2.861812    0.590333
     38          6           0       -2.458414   -2.403077   -0.599049
     39          6           0        2.115844    0.653211   -0.171092
     40          6           0       -1.636727   -0.003641   -0.206447
     41          6           0        0.646969    0.685729   -0.120623
     42          6           0       -0.218781   -0.313034   -0.330480
     43          1           0       13.346091   -0.465130    1.384489
     44          1           0       13.322184   -2.303898    1.666698
     45          1           0      -14.131151   -0.562217    1.684436
     46          1           0      -14.221618   -0.282811   -0.041179
     47          1           0       12.679444   -2.695957   -0.564943
     48          1           0      -12.782027    1.605114    1.457292
     49          1           0       13.703383    0.068842   -1.070703
     50          1           0       12.829682   -1.151482   -2.387989
     51          1           0      -13.554638    1.896907   -1.303747
     52          1           0      -12.387659    2.900601   -0.407098
     53          1           0       11.547444   -1.245911    3.327543
     54          1           0       10.036894   -0.141488    2.443813
     55          1           0       11.610561    0.721606    2.495558
     56          1           0       11.020825   -3.225982    0.377201
     57          1           0       10.850801   -3.033617    2.044769
     58          1           0        9.591969   -2.220060    1.116395
     59          1           0      -11.382159    0.028038    2.414467
     60          1           0      -10.689417   -1.728505    2.064289
     61          1           0      -12.509230   -1.473068    2.675467
     62          1           0      -13.107011   -2.722829    0.862921
     63          1           0      -11.828890   -3.056782    0.453145
     64          1           0      -12.714954   -2.408793   -0.818649
     65          1           0        8.870712   -0.128174    0.332164
     66          1           0      -10.158172   -2.223548   -0.167346
     67          1           0       10.009035    1.074057   -2.318808
     68          1           0       11.700304    1.594689   -2.300108
     69          1           0       11.333102    0.235169   -3.229772
     70          1           0      -10.859322    2.382730   -2.729460
     71          1           0       -9.962800    0.795567   -2.445815
     72          1           0       -9.914553    2.268372   -1.189814
     73          1           0       14.913877   -3.272299   -0.037719
     74          1           0      -15.149222    2.085851    1.715769
     75          1           0       10.348264    2.275814   -0.228725
     76          1           0       -8.530570    0.479174   -0.326215
     77          1           0        8.757964    4.327667   -0.103941
     78          1           0        7.187030    4.567473    0.538665
     79          1           0        8.492579    3.819983    1.795203
     80          1           0       -7.710666   -3.470471    0.323089
     81          1           0       -8.605464   -2.886580   -1.430799
     82          1           0       -6.734993   -3.068126   -1.376769
     83          1           0        6.836447    0.546224   -0.371781
     84          1           0       -6.433130    0.396856   -0.134324
     85          1           0        5.204192    2.975632    0.507935
     86          1           0       -5.046120   -2.419200   -0.582378
     87          1           0        4.502941    0.034426   -0.275093
     88          1           0       -4.348388    0.738813   -0.159139
     89          1           0        3.082838    3.082134    1.528745
     90          1           0        1.663247    3.150300    0.699208
     91          1           0        3.004964    3.561072   -0.350231
     92          1           0       -2.966624   -3.109812    0.019165
     93          1           0       -2.628057   -2.726578   -1.604647
     94          1           0       -1.324716   -2.608157   -0.707373
     95          1           0        2.452356   -0.296917   -0.433643
     96          1           0       -2.073363    0.946585    0.032921
     97          1           0        0.092760    1.571832    0.158274
     98          1           0        0.135987   -1.294255   -0.515950
 ---------------------------------------------------------------------

 SCF Done:  E(RCAM-B3LYP) =  -1706.84423448     A.U. after   14 cycles

 Excitation energies and oscillator strengths:

 Excited State   1:      Singlet-A      3.1110 eV  398.54 nm  f=3.7041  <S**2>=0.000
     155 ->158        -0.20295
     156 ->157         0.66449
 This state for optimization and/or second-order correction.
 Total Energy, E(TD-HF/TD-DFT) =  -1706.72990906
 Copying the excited state density for this state as the 1-particle RhoCI density.

 The electronic state is 1-A.
 Alpha  occ. eigenvalues --  -19.21773 -19.21285 -10.29619 -10.29234 -10.28734
 Alpha  occ. eigenvalues --  -10.28662 -10.27913 -10.27611 -10.27428 -10.27419
 Alpha  occ. eigenvalues --  -10.27352 -10.27327 -10.27196 -10.27027 -10.26851
 Alpha  occ. eigenvalues --  -10.26841 -10.26785 -10.26603 -10.26468 -10.26314
 Alpha  occ. eigenvalues --  -10.26143 -10.26108 -10.25991 -10.25940 -10.25898
 Alpha  occ. eigenvalues --  -10.25718 -10.25692 -10.25550 -10.25503 -10.25491
 Alpha  occ. eigenvalues --  -10.25411 -10.25397 -10.25363 -10.25139 -10.24925
 Alpha  occ. eigenvalues --  -10.24730 -10.24721 -10.24695 -10.24201 -10.24142
 Alpha  occ. eigenvalues --  -10.23671 -10.22250  -1.08267  -1.05209  -0.94153
 Alpha  occ. eigenvalues --   -0.93703  -0.92745  -0.91824  -0.90702  -0.89729
 Alpha  occ. eigenvalues --   -0.87294  -0.87014  -0.86446  -0.85549  -0.84791
 Alpha  occ. eigenvalues --   -0.82754  -0.81767  -0.80562  -0.79425  -0.78343
 Alpha  occ. eigenvalues --   -0.77762  -0.76701  -0.76309  -0.75811  -0.75535
 Alpha  occ. eigenvalues --   -0.75151  -0.74582  -0.74168  -0.74080  -0.69897
 Alpha  occ. eigenvalues --   -0.68240  -0.67020  -0.65588  -0.65524  -0.64315
 Alpha  occ. eigenvalues --   -0.63227  -0.62237  -0.61838  -0.60359  -0.59632
 Alpha  occ. eigenvalues --   -0.59187  -0.59081  -0.58975  -0.57691  -0.56147
 Alpha  occ. eigenvalues --   -0.55431  -0.55156  -0.54703  -0.53861  -0.53650
 Alpha  occ. eigenvalues --   -0.53238  -0.52832  -0.52370  -0.52204  -0.51496
 Alpha  occ. eigenvalues --   -0.50962  -0.50298  -0.49846  -0.49687  -0.49647
 Alpha  occ. eigenvalues --   -0.49278  -0.49183  -0.48884  -0.48135  -0.47321
 Alpha  occ. eigenvalues --   -0.47111  -0.46921  -0.46626  -0.46405  -0.45680
 Alpha  occ. eigenvalues --   -0.45389  -0.45069  -0.44881  -0.44813  -0.44580
 Alpha  occ. eigenvalues --   -0.44217  -0.44127  -0.43993  -0.43594  -0.43061
 Alpha  occ. eigenvalues --   -0.42892  -0.42449  -0.42238  -0.41850  -0.41542
 Alpha  occ. eigenvalues --   -0.41183  -0.41019  -0.40877  -0.40634  -0.40171
 Alpha  occ. eigenvalues --   -0.39830  -0.39704  -0.39505  -0.39160  -0.38950
 Alpha  occ. eigenvalues --   -0.38832  -0.38443  -0.38341  -0.38088  -0.37780
 Alpha  occ. eigenvalues --   -0.37682  -0.37035  -0.36197  -0.35652  -0.35318
 Alpha  occ. eigenvalues --   -0.35119  -0.34555  -0.33748  -0.32453  -0.31354
 Alpha  occ. eigenvalues --   -0.31254  -0.29968  -0.28145  -0.26629  -0.24070
 Alpha  occ. eigenvalues --   -0.21604
 Alpha virt. eigenvalues --   -0.03216   0.00030   0.03419   0.06262   0.06877
 Alpha virt. eigenvalues --    0.08382   0.10335   0.11009   0.11418   0.11654
 Alpha virt. eigenvalues --    0.11847   0.12094   0.12907   0.13530   0.13598

 Mulliken charges:
               1
     1  O   -0.575096
     2  O   -0.580431
     3  C   -0.005479
     4  C   -0.081475
     5  C   -0.148879
     6  C   -0.191322
     7  C    0.178623
     8  C    0.193985
     9  C    0.042009
    10  C    0.151869
    11  C   -0.197920
    12  C   -0.220501
    13  C   -0.016754
    14  C   -0.001834
    15  C   -0.286384
    16  C   -0.294346
    17  C   -0.290743
    18  C   -0.227647
    19  C   -0.075846
    20  C   -0.175865
    21  C   -0.334048
    22  C   -0.353231
    23  C   -0.116206
    24  C   -0.059435
    25  C    0.055108
    26  C    0.140912
    27  C   -0.358600
    28  C   -0.331026
    29  C   -0.114560
    30  C   -0.154272
    31  C   -0.109942
    32  C   -0.072034
    33  C   -0.113646
    34  C   -0.135153
    35  C    0.178741
    36  C    0.106789
    37  C   -0.375679
    38  C   -0.381217
    39  C   -0.160118
    40  C   -0.122975
    41  C   -0.079651
    42  C   -0.072509
    43  H    0.103788
    44  H    0.051004
    45  H    0.078789
    46  H    0.095757
    47  H    0.082133
    48  H    0.077871
    49  H    0.131915
    50  H    0.110159
    51  H    0.110381
    52  H    0.110732
    53  H    0.094613
    54  H    0.087824
    55  H    0.094950
    56  H    0.105250
    57  H    0.068568
    58  H    0.115673
    59  H    0.104785
    60  H    0.076009
    61  H    0.098417
    62  H    0.067395
    63  H    0.083089
    64  H    0.114717
    65  H    0.087848
    66  H    0.083500
    67  H    0.115271
    68  H    0.130339
    69  H    0.093765
    70  H    0.111674
    71  H    0.117711
    72  H    0.098150
    73  H    0.289613
    74  H    0.311839
    75  H    0.080567
    76  H    0.076202
    77  H    0.103812
    78  H    0.109723
    79  H    0.129882
    80  H    0.044842
    81  H    0.118827
    82  H    0.118743
    83  H    0.077785
    84  H    0.067062
    85  H    0.082256
    86  H    0.077726
    87  H    0.085023
    88  H    0.079672
    89  H    0.128781
    90  H    0.116763
    91  H    0.101586
    92  H    0.132641
    93  H    0.127496
    94  H    0.088702
    95  H    0.063244
    96  H    0.087248
    97  H    0.075620
    98  H    0.089059
 Sum of Mulliken charges =  -0.00000

 Dipole moment (field-independent basis, Debye):
    X=              0.0644    Y=             -1.2076    Z=              1.2595  Tot=              1.7461
 Quadrupole moment (field-independent basis, Debye-Ang):
   XX=           -282.3412   YY=           -239.5820   ZZ=           -262.0762
   XY=             -1.4990   XZ=            -12.5647   YZ=              3.3809

 Normal termination of Gaussian 16 at Sun Jun 30 10:51:07 2019.
