 Gaussian 16, Revision A.03,
 Gaussian 16:  ES64L-G16RevA.03 25-Dec-2016

 -------------------------------------
 # td=(NStates=1) CAM-B3LYP/6-31G(d,p)
 -------------------------------------

 --
 TD
 --
 Symbolic Z-matrix:
 Charge =  0 Multiplicity = 1

                         Standard orientation:
 ---------------------------------------------------------------------
 Center     Atomic      Atomic             Coordinates (Angstroms)
 Number     Number       Type             X           Y           Z
 ---------------------------------------------------------------------
      1          8           0       14.674853   -2.234327   -0.468249
      2          8           0      -14.617824    2.105875    0.495544
      3          6           0       11.505312   -1.077740    1.140755
      4          6           0      -12.308522   -0.905408    0.751992
      5          6           0       12.911451   -1.535826    0.936489
      6          6           0      -13.712493   -0.131624    0.771642
      7          6           0       13.274478   -1.996370   -0.424733
      8          6           0      -13.384431    1.432846    0.603260
      9          6           0       10.983753   -0.185682   -0.049137
     10          6           0      -11.377091   -0.319066   -0.357794
     11          6           0       12.989123   -0.941474   -1.466599
     12          6           0      -12.675674    1.763006   -0.762431
     13          6           0       11.626405   -0.216971   -1.164903
     14          6           0      -11.502855    0.836907   -0.950513
     15          6           0       11.412726   -0.239119    2.459603
     16          6           0       10.598118   -2.322859    1.272573
     17          6           0      -11.650663   -0.775610    2.206983
     18          6           0      -12.689315   -2.332060    0.512384
     19          6           0        9.682513    0.366472    0.129815
     20          6           0      -10.071289   -1.178639   -0.488120
     21          6           0       11.127569    0.542707   -2.448286
     22          6           0      -10.519234    1.409753   -1.959468
     23          6           0        9.301180    1.716797   -0.103204
     24          6           0       -8.858344   -0.674352   -0.343034
     25          6           0        7.980552    2.338582    0.080093
     26          6           0       -7.595859   -1.395509   -0.455055
     27          6           0        7.987031    3.781362    0.275130
     28          6           0       -7.693714   -2.885490   -0.829751
     29          6           0        6.815572    1.587689    0.057225
     30          6           0       -6.443030   -0.732194   -0.286809
     31          6           0        5.522237    2.042892    0.209283
     32          6           0       -5.069241   -1.252019   -0.323005
     33          6           0        4.408991    1.235695    0.019376
     34          6           0       -3.989911   -0.477209   -0.126388
     35          6           0        3.107236    1.681756    0.220583
     36          6           0       -2.596799   -0.836449   -0.173391
     37          6           0        2.718326    3.148389    0.730117
     38          6           0       -2.307008   -2.223827   -0.688503
     39          6           0        2.002274    0.800997   -0.047652
     40          6           0       -1.644582    0.068510    0.103122
     41          6           0        0.675612    0.955633    0.078455
     42          6           0       -0.256000   -0.110834   -0.120603
     43          1           0       13.804718   -0.791998    1.474180
     44          1           0       12.917455   -2.394572    1.616799
     45          1           0      -14.038321   -0.428709    1.772709
     46          1           0      -14.520788   -0.469073    0.052822
     47          1           0       12.679989   -3.029591   -0.777631
     48          1           0      -12.810977    2.047451    1.358659
     49          1           0       13.913872   -0.223890   -1.415330
     50          1           0       12.963528   -1.300448   -2.323370
     51          1           0      -13.410689    1.700510   -1.534694
     52          1           0      -12.366812    2.838858   -0.898547
     53          1           0       11.614734   -0.961849    3.461585
     54          1           0       10.204758   -0.102156    2.256427
     55          1           0       11.988928    0.613103    2.332176
     56          1           0       10.626789   -3.064159    0.607484
     57          1           0       10.858964   -2.935781    2.240597
     58          1           0        9.507288   -1.984863    1.216612
     59          1           0      -11.277990    0.305846    2.272540
     60          1           0      -10.904924   -1.488744    2.452361
     61          1           0      -12.523951   -1.175450    3.009494
     62          1           0      -13.360283   -2.938435    1.270672
     63          1           0      -11.886735   -3.086691    0.593315
     64          1           0      -13.079266   -2.222121   -0.557504
     65          1           0        9.047183   -0.443959    0.471847
     66          1           0      -10.031075   -2.196762   -0.646334
     67          1           0        9.999036    0.783581   -2.377704
     68          1           0       11.570294    1.397331   -2.781552
     69          1           0       11.253159   -0.202609   -3.058539
     70          1           0      -11.128546    1.537813   -2.793998
     71          1           0       -9.603322    0.823081   -2.113483
     72          1           0      -10.196560    2.401245   -1.610924
     73          1           0       14.924101   -2.963367    0.223746
     74          1           0      -14.859848    2.253090    1.439602
     75          1           0       10.163604    2.495782   -0.249082
     76          1           0       -8.625928    0.372513    0.313350
     77          1           0        8.339043    4.390965   -0.731785
     78          1           0        6.950184    4.090739    0.588734
     79          1           0        8.804955    4.060067    1.292031
     80          1           0       -8.390444   -3.474472   -0.194339
     81          1           0       -8.087998   -2.919142   -1.934715
     82          1           0       -6.636218   -3.177441   -0.932513
     83          1           0        6.923655    0.537507   -0.092645
     84          1           0       -6.457144    0.308126    0.023729
     85          1           0        5.333686    3.116023    0.498313
     86          1           0       -4.958401   -2.231716   -0.702445
     87          1           0        4.417515    0.273663    0.009334
     88          1           0       -3.960521    0.487898    0.261733
     89          1           0        3.296924    3.402012    1.619389
     90          1           0        1.807545    3.366199    1.120304
     91          1           0        3.049312    4.034218    0.148381
     92          1           0       -2.791567   -3.075321   -0.173453
     93          1           0       -2.833164   -2.414182   -1.565343
     94          1           0       -1.275644   -2.589975   -0.545212
     95          1           0        2.388151   -0.197123   -0.232690
     96          1           0       -1.958973    1.049952    0.497683
     97          1           0        0.422362    2.006088    0.166340
     98          1           0        0.041723   -0.963412   -0.574488
 ---------------------------------------------------------------------

 SCF Done:  E(RCAM-B3LYP) =  -1706.92638120     A.U. after   15 cycles

 Excitation energies and oscillator strengths:

 Excited State   1:      Singlet-A      2.1660 eV  572.40 nm  f=3.5448  <S**2>=0.000
     155 ->158         0.12729
     156 ->157         0.69881
     156 <-157        -0.10435
 This state for optimization and/or second-order correction.
 Total Energy, E(TD-HF/TD-DFT) =  -1706.84678077
 Copying the excited state density for this state as the 1-particle RhoCI density.

 The electronic state is 1-A.
 Alpha  occ. eigenvalues --  -19.21467 -19.20485 -10.31361 -10.31117 -10.28923
 Alpha  occ. eigenvalues --  -10.28264 -10.27938 -10.27708 -10.27509 -10.27371
 Alpha  occ. eigenvalues --  -10.27009 -10.26839 -10.26814 -10.26772 -10.26694
 Alpha  occ. eigenvalues --  -10.26496 -10.26403 -10.26322 -10.26320 -10.26307
 Alpha  occ. eigenvalues --  -10.26227 -10.26158 -10.25986 -10.25967 -10.25824
 Alpha  occ. eigenvalues --  -10.25813 -10.25772 -10.25769 -10.25567 -10.25559
 Alpha  occ. eigenvalues --  -10.25404 -10.25384 -10.25258 -10.25207 -10.25186
 Alpha  occ. eigenvalues --  -10.25074 -10.25031 -10.24987 -10.24893 -10.24540
 Alpha  occ. eigenvalues --  -10.23760 -10.22921  -1.09286  -1.08356  -0.94003
 Alpha  occ. eigenvalues --   -0.92585  -0.92326  -0.91902  -0.90503  -0.89899
 Alpha  occ. eigenvalues --   -0.87456  -0.86938  -0.86702  -0.85522  -0.84726
 Alpha  occ. eigenvalues --   -0.82724  -0.81346  -0.79665  -0.79205  -0.78820
 Alpha  occ. eigenvalues --   -0.77534  -0.76574  -0.76454  -0.76243  -0.75726
 Alpha  occ. eigenvalues --   -0.75640  -0.74844  -0.74456  -0.74017  -0.71101
 Alpha  occ. eigenvalues --   -0.69130  -0.67156  -0.65751  -0.65030  -0.63898
 Alpha  occ. eigenvalues --   -0.63356  -0.62509  -0.62318  -0.61648  -0.60486
 Alpha  occ. eigenvalues --   -0.58858  -0.58159  -0.57854  -0.57041  -0.56380
 Alpha  occ. eigenvalues --   -0.55999  -0.55270  -0.55044  -0.54289  -0.53893
 Alpha  occ. eigenvalues --   -0.53507  -0.53122  -0.52134  -0.51262  -0.51148
 Alpha  occ. eigenvalues --   -0.51001  -0.50510  -0.50001  -0.49275  -0.49000
 Alpha  occ. eigenvalues --   -0.48919  -0.48460  -0.48448  -0.48122  -0.47610
 Alpha  occ. eigenvalues --   -0.47362  -0.46875  -0.46516  -0.46402  -0.46243
 Alpha  occ. eigenvalues --   -0.45663  -0.45500  -0.45411  -0.44869  -0.44766
 Alpha  occ. eigenvalues --   -0.44341  -0.44237  -0.43903  -0.43378  -0.43352
 Alpha  occ. eigenvalues --   -0.43108  -0.42921  -0.42772  -0.42679  -0.42553
 Alpha  occ. eigenvalues --   -0.42218  -0.41563  -0.41136  -0.41018  -0.40779
 Alpha  occ. eigenvalues --   -0.40598  -0.40508  -0.39807  -0.39581  -0.39551
 Alpha  occ. eigenvalues --   -0.39234  -0.39155  -0.38710  -0.37862  -0.37594
 Alpha  occ. eigenvalues --   -0.37292  -0.37045  -0.36639  -0.36314  -0.35403
 Alpha  occ. eigenvalues --   -0.34967  -0.33953  -0.32840  -0.32075  -0.31659
 Alpha  occ. eigenvalues --   -0.30965  -0.30246  -0.29194  -0.26881  -0.24395
 Alpha  occ. eigenvalues --   -0.19130
 Alpha virt. eigenvalues --   -0.06134  -0.00329   0.02742   0.06376   0.08255
 Alpha virt. eigenvalues --    0.09783   0.10391   0.11088   0.11677   0.11835
 Alpha virt. eigenvalues --    0.11878   0.12374   0.12497   0.12919   0.13346

 Mulliken charges:
               1
     1  O   -0.567189
     2  O   -0.553809
     3  C   -0.048912
     4  C   -0.020096
     5  C   -0.175485
     6  C   -0.173111
     7  C    0.182954
     8  C    0.135427
     9  C    0.096778
    10  C    0.048185
    11  C   -0.172813
    12  C   -0.225235
    13  C   -0.010091
    14  C    0.047731
    15  C   -0.249700
    16  C   -0.301861
    17  C   -0.287730
    18  C   -0.295872
    19  C   -0.136928
    20  C   -0.152552
    21  C   -0.350006
    22  C   -0.348909
    23  C   -0.117790
    24  C   -0.070288
    25  C    0.106358
    26  C    0.104055
    27  C   -0.347904
    28  C   -0.369109
    29  C   -0.087060
    30  C   -0.123444
    31  C   -0.093499
    32  C   -0.093283
    33  C   -0.090694
    34  C   -0.098109
    35  C    0.100090
    36  C    0.137500
    37  C   -0.394646
    38  C   -0.398455
    39  C   -0.127179
    40  C   -0.134356
    41  C   -0.077861
    42  C   -0.090137
    43  H    0.072189
    44  H    0.080782
    45  H    0.091362
    46  H    0.110253
    47  H    0.048715
    48  H    0.083482
    49  H    0.115237
    50  H    0.107417
    51  H    0.128503
    52  H    0.100378
    53  H    0.075569
    54  H    0.081501
    55  H    0.117902
    56  H    0.121036
    57  H    0.085357
    58  H    0.086159
    59  H    0.101820
    60  H    0.117891
    61  H    0.064472
    62  H    0.086124
    63  H    0.089385
    64  H    0.100542
    65  H    0.099268
    66  H    0.084135
    67  H    0.102074
    68  H    0.122101
    69  H    0.113632
    70  H    0.117900
    71  H    0.120532
    72  H    0.106176
    73  H    0.305849
    74  H    0.301915
    75  H    0.090115
    76  H    0.061883
    77  H    0.109128
    78  H    0.110822
    79  H    0.078566
    80  H    0.126916
    81  H    0.113564
    82  H    0.106690
    83  H    0.079178
    84  H    0.078161
    85  H    0.084456
    86  H    0.073660
    87  H    0.075247
    88  H    0.070390
    89  H    0.112529
    90  H    0.120424
    91  H    0.115261
    92  H    0.112200
    93  H    0.132486
    94  H    0.109761
    95  H    0.063489
    96  H    0.082209
    97  H    0.088773
    98  H    0.089473
 Sum of Mulliken charges =  -0.00000

 Dipole moment (field-independent basis, Debye):
    X=              0.5679    Y=             -1.2950    Z=              1.9376  Tot=              2.3987
 Quadrupole moment (field-independent basis, Debye-Ang):
   XX=           -284.7797   YY=           -239.6169   ZZ=           -262.3801
   XY=             -2.9619   XZ=             -7.1383   YZ=              2.1181

 Normal termination of Gaussian 16 at Tue Jul  2 02:27:11 2019.
