 Gaussian 16, Revision A.03,
 Gaussian 16:  ES64L-G16RevA.03 25-Dec-2016

 -------------------------------------
 # td=(NStates=1) CAM-B3LYP/6-31G(d,p)
 -------------------------------------

 --
 TD
 --
 Symbolic Z-matrix:
 Charge =  0 Multiplicity = 1

                         Standard orientation:
 ---------------------------------------------------------------------
 Center     Atomic      Atomic             Coordinates (Angstroms)
 Number     Number       Type             X           Y           Z
 ---------------------------------------------------------------------
      1          8           0       14.705161   -2.237651   -0.354929
      2          8           0      -14.755685    1.879691    0.703415
      3          6           0       11.464009   -1.176776    1.150448
      4          6           0      -12.410327   -1.044315    0.762713
      5          6           0       12.910184   -1.484538    1.089873
      6          6           0      -13.722887   -0.245820    0.706771
      7          6           0       13.377309   -2.008056   -0.240402
      8          6           0      -13.555364    1.145240    0.788382
      9          6           0       10.908582   -0.377888    0.001974
     10          6           0      -11.304085   -0.285624   -0.218122
     11          6           0       13.078932   -0.991700   -1.357395
     12          6           0      -12.872726    1.639120   -0.494715
     13          6           0       11.707958   -0.306402   -1.116924
     14          6           0      -11.544810    0.876699   -0.779244
     15          6           0       11.293633   -0.326899    2.487802
     16          6           0       10.636274   -2.524108    1.232017
     17          6           0      -11.688505   -1.113504    2.145135
     18          6           0      -12.568047   -2.472198    0.246881
     19          6           0        9.638236    0.390290    0.125384
     20          6           0      -10.096602   -1.057460   -0.408039
     21          6           0       11.195865    0.486512   -2.416971
     22          6           0      -10.666405    1.489450   -1.812379
     23          6           0        9.330134    1.627617   -0.130326
     24          6           0       -8.807397   -0.559466   -0.232092
     25          6           0        8.075972    2.215528    0.057317
     26          6           0       -7.577901   -1.288198   -0.378559
     27          6           0        8.044671    3.683629    0.639341
     28          6           0       -7.605822   -2.760121   -0.899156
     29          6           0        6.894635    1.612980   -0.132059
     30          6           0       -6.398557   -0.647612   -0.321220
     31          6           0        5.582665    1.991241    0.123680
     32          6           0       -5.039676   -1.128002   -0.393732
     33          6           0        4.431272    1.412622   -0.034702
     34          6           0       -3.984013   -0.281433   -0.214838
     35          6           0        3.059447    1.860452    0.257926
     36          6           0       -2.589361   -0.625195   -0.321501
     37          6           0        2.833654    3.274143    0.624642
     38          6           0       -2.397760   -2.065248   -0.792091
     39          6           0        2.014329    0.969558   -0.222445
     40          6           0       -1.663546    0.287459   -0.068867
     41          6           0        0.648539    1.135949   -0.045542
     42          6           0       -0.171958    0.167191   -0.220251
     43          1           0       13.571351   -0.722933    1.174483
     44          1           0       13.063079   -2.262753    1.991785
     45          1           0      -14.379842   -0.773122    1.639744
     46          1           0      -14.377218   -0.324898   -0.308076
     47          1           0       12.806527   -2.955624   -0.533403
     48          1           0      -13.117050    1.506217    1.661943
     49          1           0       13.853463   -0.253216   -1.459348
     50          1           0       13.216747   -1.745250   -2.148986
     51          1           0      -13.710015    1.646980   -1.153121
     52          1           0      -12.653294    2.682238   -0.553893
     53          1           0       11.703694   -0.934523    3.273806
     54          1           0       10.250011   -0.393025    2.570294
     55          1           0       11.747560    0.512392    2.142903
     56          1           0       10.777925   -3.340027    0.421203
     57          1           0       10.833252   -3.189269    2.230287
     58          1           0        9.559106   -2.385695    1.237635
     59          1           0      -11.562779    0.013150    2.470966
     60          1           0      -10.726983   -1.550473    2.106187
     61          1           0      -12.238979   -1.713395    2.847161
     62          1           0      -13.420605   -2.940180    0.745209
     63          1           0      -11.921627   -3.007610    0.390967
     64          1           0      -12.840459   -2.531414   -0.853559
     65          1           0        8.729559   -0.387991    0.513820
     66          1           0      -10.271896   -2.289128   -0.687700
     67          1           0       10.145689    0.741281   -2.225573
     68          1           0       12.017752    1.235273   -2.905842
     69          1           0       11.339708   -0.356847   -3.238791
     70          1           0      -11.333855    1.982831   -2.588887
     71          1           0       -9.684075    0.985893   -2.193618
     72          1           0      -10.339256    2.470870   -1.373594
     73          1           0       14.903354   -2.828781    0.237458
     74          1           0      -15.286477    1.557203    1.429046
     75          1           0       10.080785    2.165572   -0.695714
     76          1           0       -8.641672    0.522464    0.137063
     77          1           0        8.550822    4.362248   -0.082530
     78          1           0        7.057981    4.285038    0.731733
     79          1           0        8.590493    3.668463    1.589762
     80          1           0       -8.191697   -3.327874   -0.265083
     81          1           0       -7.967987   -2.829207   -1.946658
     82          1           0       -6.583797   -3.298610   -1.009208
     83          1           0        7.129382    0.558990   -0.671773
     84          1           0       -6.579923    0.301284   -0.291156
     85          1           0        5.651740    3.016552    0.421078
     86          1           0       -4.851173   -1.993963   -0.845336
     87          1           0        4.235591    0.381620   -0.347889
     88          1           0       -4.161562    0.792469    0.012834
     89          1           0        3.322575    3.512187    1.550342
     90          1           0        1.925809    3.638918    0.896398
     91          1           0        3.244980    4.096977   -0.104298
     92          1           0       -2.159389   -2.774615    0.206296
     93          1           0       -3.045455   -2.393020   -1.659962
     94          1           0       -1.342585   -2.005539   -1.564721
     95          1           0        2.314918    0.040130   -0.761817
     96          1           0       -2.021488    1.226760    0.334924
     97          1           0        0.334698    2.170271    0.255618
     98          1           0        0.093481   -0.672307   -0.670585
 ---------------------------------------------------------------------

 SCF Done:  E(RCAM-B3LYP) =  -1706.88251842     A.U. after   14 cycles

 Excitation energies and oscillator strengths:

 Excited State   1:      Singlet-A      2.8766 eV  431.01 nm  f=3.6987  <S**2>=0.000
     155 ->158         0.18821
     156 ->157         0.67385
 This state for optimization and/or second-order correction.
 Total Energy, E(TD-HF/TD-DFT) =  -1706.77680623
 Copying the excited state density for this state as the 1-particle RhoCI density.

 The electronic state is 1-A.
 Alpha  occ. eigenvalues --  -19.20789 -19.20680 -10.29829 -10.29453 -10.28862
 Alpha  occ. eigenvalues --  -10.28319 -10.28276 -10.27759 -10.27734 -10.27732
 Alpha  occ. eigenvalues --  -10.27398 -10.27189 -10.27015 -10.27007 -10.26949
 Alpha  occ. eigenvalues --  -10.26895 -10.26855 -10.26554 -10.26525 -10.26387
 Alpha  occ. eigenvalues --  -10.26283 -10.26187 -10.26179 -10.26088 -10.25861
 Alpha  occ. eigenvalues --  -10.25793 -10.25670 -10.25624 -10.25601 -10.25323
 Alpha  occ. eigenvalues --  -10.25187 -10.25176 -10.25140 -10.25112 -10.25090
 Alpha  occ. eigenvalues --  -10.24907 -10.24854 -10.24508 -10.24450 -10.23961
 Alpha  occ. eigenvalues --  -10.23101 -10.22518  -1.14536  -1.10617  -0.93866
 Alpha  occ. eigenvalues --   -0.93124  -0.92484  -0.91905  -0.91082  -0.89899
 Alpha  occ. eigenvalues --   -0.88325  -0.86989  -0.86000  -0.85652  -0.85348
 Alpha  occ. eigenvalues --   -0.83492  -0.82660  -0.80025  -0.79803  -0.78013
 Alpha  occ. eigenvalues --   -0.77327  -0.76493  -0.76391  -0.75989  -0.75735
 Alpha  occ. eigenvalues --   -0.75673  -0.74964  -0.74815  -0.74218  -0.71095
 Alpha  occ. eigenvalues --   -0.69216  -0.67965  -0.66617  -0.65399  -0.64273
 Alpha  occ. eigenvalues --   -0.63390  -0.62933  -0.62576  -0.61134  -0.60268
 Alpha  occ. eigenvalues --   -0.60043  -0.59212  -0.58710  -0.57711  -0.56459
 Alpha  occ. eigenvalues --   -0.56287  -0.55901  -0.55298  -0.54705  -0.53952
 Alpha  occ. eigenvalues --   -0.53407  -0.52741  -0.52523  -0.51633  -0.51240
 Alpha  occ. eigenvalues --   -0.50981  -0.50460  -0.50177  -0.49415  -0.49216
 Alpha  occ. eigenvalues --   -0.48659  -0.48445  -0.48283  -0.47894  -0.47776
 Alpha  occ. eigenvalues --   -0.47481  -0.47223  -0.47189  -0.46697  -0.46437
 Alpha  occ. eigenvalues --   -0.46126  -0.45876  -0.45577  -0.45207  -0.44919
 Alpha  occ. eigenvalues --   -0.44799  -0.44466  -0.43875  -0.43332  -0.43133
 Alpha  occ. eigenvalues --   -0.42834  -0.42797  -0.42337  -0.42129  -0.41890
 Alpha  occ. eigenvalues --   -0.41550  -0.41360  -0.41036  -0.40964  -0.40860
 Alpha  occ. eigenvalues --   -0.40654  -0.40173  -0.39952  -0.39682  -0.39467
 Alpha  occ. eigenvalues --   -0.39001  -0.38834  -0.38366  -0.38073  -0.37738
 Alpha  occ. eigenvalues --   -0.37439  -0.37089  -0.36971  -0.36526  -0.35842
 Alpha  occ. eigenvalues --   -0.35049  -0.34060  -0.33447  -0.32847  -0.31912
 Alpha  occ. eigenvalues --   -0.31524  -0.29921  -0.28406  -0.27024  -0.23905
 Alpha  occ. eigenvalues --   -0.21230
 Alpha virt. eigenvalues --   -0.04019  -0.00285   0.02901   0.05932   0.08021
 Alpha virt. eigenvalues --    0.09583   0.10257   0.11634   0.12000   0.12100
 Alpha virt. eigenvalues --    0.12442   0.13284   0.13480   0.13983   0.14031

 Mulliken charges:
               1
     1  O   -0.504909
     2  O   -0.559557
     3  C   -0.045785
     4  C   -0.004337
     5  C   -0.161824
     6  C   -0.170333
     7  C    0.133713
     8  C    0.166369
     9  C    0.064229
    10  C    0.039138
    11  C   -0.215844
    12  C   -0.232035
    13  C    0.029079
    14  C    0.082731
    15  C   -0.277099
    16  C   -0.313652
    17  C   -0.303691
    18  C   -0.266372
    19  C   -0.109708
    20  C   -0.153245
    21  C   -0.355643
    22  C   -0.375723
    23  C   -0.110095
    24  C   -0.119630
    25  C    0.075090
    26  C    0.108136
    27  C   -0.376560
    28  C   -0.371160
    29  C   -0.093362
    30  C   -0.106814
    31  C   -0.080540
    32  C   -0.069619
    33  C   -0.084085
    34  C   -0.107683
    35  C    0.089827
    36  C    0.140831
    37  C   -0.379565
    38  C   -0.362614
    39  C   -0.149369
    40  C   -0.149657
    41  C   -0.039250
    42  C   -0.067233
    43  H    0.103706
    44  H    0.061080
    45  H    0.049477
    46  H    0.094228
    47  H    0.057162
    48  H    0.087587
    49  H    0.123890
    50  H    0.121923
    51  H    0.128019
    52  H    0.104229
    53  H    0.099603
    54  H    0.109625
    55  H    0.117969
    56  H    0.101165
    57  H    0.069446
    58  H    0.108284
    59  H    0.090188
    60  H    0.125834
    61  H    0.097496
    62  H    0.088063
    63  H    0.094169
    64  H    0.095778
    65  H    0.073974
    66  H    0.080527
    67  H    0.124932
    68  H    0.098133
    69  H    0.095030
    70  H    0.106497
    71  H    0.123327
    72  H    0.104586
    73  H    0.282835
    74  H    0.293793
    75  H    0.108358
    76  H    0.091826
    77  H    0.112335
    78  H    0.109139
    79  H    0.127429
    80  H    0.119271
    81  H    0.121385
    82  H    0.094072
    83  H    0.053236
    84  H    0.056364
    85  H    0.066674
    86  H    0.073796
    87  H    0.073149
    88  H    0.076018
    89  H    0.119190
    90  H    0.115940
    91  H    0.113381
    92  H    0.123791
    93  H    0.135279
    94  H    0.060026
    95  H    0.088634
    96  H    0.078028
    97  H    0.085860
    98  H    0.072111
 Sum of Mulliken charges =  -0.00000

 Dipole moment (field-independent basis, Debye):
    X=              0.0421    Y=             -1.1628    Z=              1.2157  Tot=              1.6828
 Quadrupole moment (field-independent basis, Debye-Ang):
   XX=           -265.1300   YY=           -243.6973   ZZ=           -260.8627
   XY=              8.1711   XZ=             -3.0169   YZ=              0.7703

 Normal termination of Gaussian 16 at Sat Jun 29 20:20:57 2019.
