 Gaussian 16, Revision A.03,
 Gaussian 16:  ES64L-G16RevA.03 25-Dec-2016

 -------------------------------------
 # td=(NStates=1) CAM-B3LYP/6-31G(d,p)
 -------------------------------------

 --
 TD
 --
 Symbolic Z-matrix:
 Charge =  0 Multiplicity = 1

                         Standard orientation:
 ---------------------------------------------------------------------
 Center     Atomic      Atomic             Coordinates (Angstroms)
 Number     Number       Type             X           Y           Z
 ---------------------------------------------------------------------
      1          8           0       14.724565   -2.333952   -0.449907
      2          8           0      -14.878375    1.937581    0.668424
      3          6           0       11.405394   -1.095356    1.222354
      4          6           0      -12.372080   -0.888278    0.810845
      5          6           0       12.869168   -1.530260    1.006164
      6          6           0      -13.679474   -0.179350    0.718413
      7          6           0       13.375474   -1.990972   -0.332056
      8          6           0      -13.611548    1.330985    0.649752
      9          6           0       10.943406   -0.236937   -0.020337
     10          6           0      -11.324175   -0.275794   -0.146368
     11          6           0       13.093479   -0.821751   -1.301480
     12          6           0      -12.843633    1.725496   -0.538645
     13          6           0       11.657949   -0.252292   -1.194342
     14          6           0      -11.686343    0.892349   -0.835596
     15          6           0       11.334923   -0.244426    2.508643
     16          6           0       10.495923   -2.287349    1.425651
     17          6           0      -11.881773   -0.926360    2.284907
     18          6           0      -12.459934   -2.460069    0.422391
     19          6           0        9.619774    0.479319    0.229064
     20          6           0      -10.074456   -1.055967   -0.391426
     21          6           0       11.107550    0.519806   -2.354867
     22          6           0      -10.701003    1.475890   -1.851504
     23          6           0        9.417015    1.679582   -0.119596
     24          6           0       -8.846229   -0.570384   -0.275487
     25          6           0        8.095516    2.249931    0.058813
     26          6           0       -7.550774   -1.269534   -0.431735
     27          6           0        8.073334    3.744572    0.388668
     28          6           0       -7.637460   -2.707407   -1.004518
     29          6           0        6.953934    1.469958   -0.032587
     30          6           0       -6.396521   -0.697067   -0.246049
     31          6           0        5.613340    1.979614    0.239770
     32          6           0       -5.028541   -1.083586   -0.510336
     33          6           0        4.451107    1.297048   -0.041597
     34          6           0       -3.961964   -0.349005   -0.161114
     35          6           0        3.075643    1.685093    0.164809
     36          6           0       -2.564492   -0.706080   -0.383305
     37          6           0        2.839309    3.012583    0.668053
     38          6           0       -2.308687   -2.134084   -0.900532
     39          6           0        2.146996    0.769708   -0.106206
     40          6           0       -1.557572    0.070165   -0.188406
     41          6           0        0.744850    0.879024    0.009780
     42          6           0       -0.167591   -0.180224   -0.359171
     43          1           0       13.509983   -0.759458    1.400438
     44          1           0       13.148831   -2.161830    1.602450
     45          1           0      -14.491301   -0.521845    1.510334
     46          1           0      -14.435524   -0.464281    0.027679
     47          1           0       12.774740   -2.783119   -0.747981
     48          1           0      -12.837904    1.742057    1.500607
     49          1           0       13.578612   -0.054944   -1.087170
     50          1           0       13.414561   -1.223100   -2.359673
     51          1           0      -13.568840    1.610217   -1.262143
     52          1           0      -12.623402    2.743356   -0.416452
     53          1           0       11.386159   -1.309222    3.354597
     54          1           0       10.323500   -0.033489    2.618490
     55          1           0       11.994948    0.617022    2.440106
     56          1           0       10.420248   -2.889964    0.247396
     57          1           0       10.778481   -2.996407    2.319023
     58          1           0        9.401014   -1.879257    1.612001
     59          1           0      -11.737923    0.022839    2.654408
     60          1           0      -10.889616   -1.388154    2.630748
     61          1           0      -12.677587   -1.384475    2.907899
     62          1           0      -13.429900   -2.688802    0.942188
     63          1           0      -11.523710   -3.176916    0.589825
     64          1           0      -12.821993   -2.473371   -0.674839
     65          1           0        8.733282   -0.014308    0.762678
     66          1           0      -10.167767   -2.092336   -0.702573
     67          1           0       10.103535    0.690515   -2.286145
     68          1           0       11.494037    1.397874   -2.717337
     69          1           0       11.115733   -0.152161   -3.272775
     70          1           0      -11.231053    1.713927   -2.808257
     71          1           0      -10.032642    0.770633   -2.289286
     72          1           0      -10.099938    2.429495   -1.736037
     73          1           0       14.843809   -2.932842    0.394816
     74          1           0      -15.208911    1.608377    1.549750
     75          1           0       10.344717    2.276296   -0.429587
     76          1           0       -8.727709    0.482966    0.135027
     77          1           0        8.953448    4.395609   -0.048960
     78          1           0        7.085811    4.061902    0.506049
     79          1           0        8.537990    3.964140    1.311625
     80          1           0       -8.397500   -3.373689   -0.451892
     81          1           0       -8.066784   -2.561727   -1.909151
     82          1           0       -6.545861   -3.167893   -1.062544
     83          1           0        7.134332    0.612725   -0.525275
     84          1           0       -6.245527    0.338336    0.119225
     85          1           0        5.641721    3.105179    0.283584
     86          1           0       -4.944202   -2.148753   -0.973942
     87          1           0        4.632559    0.282586   -0.351934
     88          1           0       -4.096197    0.837906    0.035147
     89          1           0        3.274196    2.969388    1.704868
     90          1           0        1.728174    3.172107    0.689577
     91          1           0        3.220421    3.708211   -0.055523
     92          1           0       -2.830166   -2.834442   -0.259008
     93          1           0       -2.740208   -2.211843   -1.864178
     94          1           0       -1.164864   -2.189758   -0.872070
     95          1           0        2.397575   -0.441635   -0.374255
     96          1           0       -1.696560    1.125268    0.038771
     97          1           0        0.290216    1.931133    0.280529
     98          1           0        0.242431   -1.040608   -0.863910
 ---------------------------------------------------------------------

 SCF Done:  E(RCAM-B3LYP) =  -1706.91659447     A.U. after   14 cycles

 Excitation energies and oscillator strengths:

 Excited State   1:      Singlet-A      2.7984 eV  443.05 nm  f=3.5408  <S**2>=0.000
     155 ->158         0.15635
     156 ->157         0.68456
 This state for optimization and/or second-order correction.
 Total Energy, E(TD-HF/TD-DFT) =  -1706.81375388
 Copying the excited state density for this state as the 1-particle RhoCI density.

 The electronic state is 1-A.
 Alpha  occ. eigenvalues --  -19.22846 -19.22572 -10.31034 -10.29692 -10.28366
 Alpha  occ. eigenvalues --  -10.28271 -10.28037 -10.27688 -10.27535 -10.27528
 Alpha  occ. eigenvalues --  -10.27484 -10.27274 -10.27201 -10.27091 -10.27065
 Alpha  occ. eigenvalues --  -10.27008 -10.26862 -10.26847 -10.26750 -10.26728
 Alpha  occ. eigenvalues --  -10.26534 -10.26424 -10.26311 -10.26201 -10.26134
 Alpha  occ. eigenvalues --  -10.25983 -10.25954 -10.25867 -10.25850 -10.25835
 Alpha  occ. eigenvalues --  -10.25652 -10.25467 -10.25350 -10.25249 -10.25038
 Alpha  occ. eigenvalues --  -10.25028 -10.24392 -10.24341 -10.24159 -10.23427
 Alpha  occ. eigenvalues --  -10.23416 -10.22776  -1.10927  -1.09863  -0.93553
 Alpha  occ. eigenvalues --   -0.93535  -0.92748  -0.92092  -0.91232  -0.90652
 Alpha  occ. eigenvalues --   -0.87380  -0.87107  -0.86941  -0.86083  -0.85008
 Alpha  occ. eigenvalues --   -0.83445  -0.82429  -0.81054  -0.80044  -0.78341
 Alpha  occ. eigenvalues --   -0.77811  -0.77004  -0.76676  -0.76192  -0.75583
 Alpha  occ. eigenvalues --   -0.75438  -0.74647  -0.74336  -0.74058  -0.70846
 Alpha  occ. eigenvalues --   -0.68875  -0.67833  -0.66306  -0.65251  -0.63841
 Alpha  occ. eigenvalues --   -0.63433  -0.62852  -0.61927  -0.60759  -0.59783
 Alpha  occ. eigenvalues --   -0.59375  -0.58977  -0.58166  -0.57251  -0.56395
 Alpha  occ. eigenvalues --   -0.55853  -0.55532  -0.55373  -0.54799  -0.54102
 Alpha  occ. eigenvalues --   -0.53834  -0.52692  -0.52206  -0.52015  -0.51619
 Alpha  occ. eigenvalues --   -0.50979  -0.50719  -0.49881  -0.49822  -0.49386
 Alpha  occ. eigenvalues --   -0.49073  -0.48769  -0.48412  -0.48392  -0.48230
 Alpha  occ. eigenvalues --   -0.47903  -0.47784  -0.47487  -0.46946  -0.46536
 Alpha  occ. eigenvalues --   -0.46127  -0.45561  -0.45438  -0.45263  -0.44562
 Alpha  occ. eigenvalues --   -0.44413  -0.44262  -0.43976  -0.43886  -0.43815
 Alpha  occ. eigenvalues --   -0.43573  -0.43003  -0.42830  -0.42575  -0.42311
 Alpha  occ. eigenvalues --   -0.42260  -0.41764  -0.41713  -0.41409  -0.40624
 Alpha  occ. eigenvalues --   -0.40326  -0.40183  -0.40080  -0.39781  -0.39008
 Alpha  occ. eigenvalues --   -0.38824  -0.38553  -0.38063  -0.37790  -0.37666
 Alpha  occ. eigenvalues --   -0.37285  -0.37007  -0.36594  -0.36310  -0.35818
 Alpha  occ. eigenvalues --   -0.35406  -0.34584  -0.33751  -0.32771  -0.32712
 Alpha  occ. eigenvalues --   -0.32414  -0.29425  -0.28269  -0.26838  -0.24829
 Alpha  occ. eigenvalues --   -0.21123
 Alpha virt. eigenvalues --   -0.04379  -0.00042   0.02730   0.05912   0.07363
 Alpha virt. eigenvalues --    0.09573   0.09908   0.10898   0.11107   0.11171
 Alpha virt. eigenvalues --    0.11321   0.12003   0.13043   0.13202   0.13791

 Mulliken charges:
               1
     1  O   -0.551776
     2  O   -0.547895
     3  C   -0.016021
     4  C   -0.003394
     5  C   -0.161590
     6  C   -0.212864
     7  C    0.169394
     8  C    0.155490
     9  C    0.032485
    10  C    0.045146
    11  C   -0.191019
    12  C   -0.200825
    13  C    0.024485
    14  C    0.058140
    15  C   -0.266089
    16  C   -0.275370
    17  C   -0.294944
    18  C   -0.309262
    19  C   -0.117477
    20  C   -0.135370
    21  C   -0.377178
    22  C   -0.377082
    23  C   -0.098219
    24  C   -0.074730
    25  C    0.080172
    26  C    0.098397
    27  C   -0.375549
    28  C   -0.367651
    29  C   -0.120627
    30  C   -0.117012
    31  C   -0.115000
    32  C   -0.079494
    33  C   -0.105801
    34  C   -0.121045
    35  C    0.109220
    36  C    0.105799
    37  C   -0.361022
    38  C   -0.359671
    39  C   -0.115400
    40  C   -0.114707
    41  C   -0.103414
    42  C   -0.104731
    43  H    0.089938
    44  H    0.058757
    45  H    0.054604
    46  H    0.114869
    47  H    0.078988
    48  H    0.046579
    49  H    0.126808
    50  H    0.090297
    51  H    0.123103
    52  H    0.123627
    53  H    0.042294
    54  H    0.119595
    55  H    0.114700
    56  H    0.066043
    57  H    0.098392
    58  H    0.092657
    59  H    0.108349
    60  H    0.099336
    61  H    0.093346
    62  H    0.095654
    63  H    0.108995
    64  H    0.093458
    65  H    0.099614
    66  H    0.088388
    67  H    0.131804
    68  H    0.121581
    69  H    0.090336
    70  H    0.092619
    71  H    0.121387
    72  H    0.108351
    73  H    0.306996
    74  H    0.316254
    75  H    0.094354
    76  H    0.085043
    77  H    0.108160
    78  H    0.113868
    79  H    0.129477
    80  H    0.106321
    81  H    0.141330
    82  H    0.094844
    83  H    0.091245
    84  H    0.070294
    85  H    0.079911
    86  H    0.072794
    87  H    0.079810
    88  H    0.076061
    89  H    0.134051
    90  H    0.098263
    91  H    0.131886
    92  H    0.120335
    93  H    0.128437
    94  H    0.092472
    95  H    0.066907
    96  H    0.075038
    97  H    0.082540
    98  H    0.102341
 Sum of Mulliken charges =  -0.00000

 Dipole moment (field-independent basis, Debye):
    X=              0.5263    Y=             -0.1749    Z=              1.5989  Tot=              1.6924
 Quadrupole moment (field-independent basis, Debye-Ang):
   XX=           -271.3792   YY=           -248.4948   ZZ=           -261.8348
   XY=             18.8315   XZ=              5.2099   YZ=              0.8403

 Normal termination of Gaussian 16 at Sat Jun 29 22:29:11 2019.
