 Gaussian 16, Revision A.03,
 Gaussian 16:  ES64L-G16RevA.03 25-Dec-2016

 -------------------------------------
 # td=(NStates=1) CAM-B3LYP/6-31G(d,p)
 -------------------------------------

 --
 TD
 --
 Symbolic Z-matrix:
 Charge =  0 Multiplicity = 1

                         Standard orientation:
 ---------------------------------------------------------------------
 Center     Atomic      Atomic             Coordinates (Angstroms)
 Number     Number       Type             X           Y           Z
 ---------------------------------------------------------------------
      1          8           0       14.827005   -2.171457   -0.536009
      2          8           0      -14.694273    2.098935    0.536542
      3          6           0       11.532881   -0.941373    1.240898
      4          6           0      -12.289968   -0.880122    0.736308
      5          6           0       13.082566   -1.361869    0.950515
      6          6           0      -13.677314   -0.108995    0.618976
      7          6           0       13.409421   -1.951006   -0.436251
      8          6           0      -13.409832    1.372655    0.697554
      9          6           0       10.990545   -0.229599    0.010916
     10          6           0      -11.298106   -0.284710   -0.218490
     11          6           0       12.833812   -0.919515   -1.437520
     12          6           0      -12.707919    1.776624   -0.554864
     13          6           0       11.528165   -0.382822   -1.247227
     14          6           0      -11.516423    0.861428   -0.825183
     15          6           0       11.512424    0.098789    2.517552
     16          6           0       10.889629   -2.193770    1.591149
     17          6           0      -11.859845   -1.018844    2.199662
     18          6           0      -12.734388   -2.358504    0.281582
     19          6           0        9.589725    0.311302    0.210097
     20          6           0      -10.127243   -1.011593   -0.477952
     21          6           0       10.894082    0.209175   -2.542416
     22          6           0      -10.545015    1.420788   -1.867482
     23          6           0        9.265379    1.599501   -0.093158
     24          6           0       -8.871624   -0.598466   -0.263739
     25          6           0        8.040573    2.119904   -0.001904
     26          6           0       -7.620735   -1.284284   -0.351133
     27          6           0        8.185934    3.593111    0.373033
     28          6           0       -7.614926   -2.785061   -0.724792
     29          6           0        6.892798    1.449205   -0.052208
     30          6           0       -6.459542   -0.586034   -0.255675
     31          6           0        5.579856    1.982699    0.157988
     32          6           0       -5.143485   -1.142536   -0.337010
     33          6           0        4.376333    1.360122   -0.157226
     34          6           0       -4.009604   -0.450336   -0.089629
     35          6           0        2.962752    1.763033    0.059825
     36          6           0       -2.648963   -0.783695   -0.311850
     37          6           0        2.767023    3.115844    0.605106
     38          6           0       -2.446309   -2.265289   -0.578935
     39          6           0        2.119091    0.746905   -0.162428
     40          6           0       -1.645713    0.060135   -0.188012
     41          6           0        0.694585    0.862721   -0.034272
     42          6           0       -0.178036   -0.174331   -0.177212
     43          1           0       13.786238   -0.545084    1.135873
     44          1           0       13.289026   -1.958456    2.053308
     45          1           0      -14.264085   -0.377087    1.492057
     46          1           0      -14.288031   -0.481743   -0.109651
     47          1           0       12.657545   -2.904156   -0.370444
     48          1           0      -13.002039    1.690495    1.657865
     49          1           0       13.693366   -0.198330   -1.338650
     50          1           0       12.951507   -1.141958   -2.706945
     51          1           0      -13.549779    1.805187   -1.450754
     52          1           0      -12.398376    2.912568   -0.415454
     53          1           0       11.982178   -0.319456    3.393143
     54          1           0       10.315554    0.135814    2.750912
     55          1           0       11.930818    1.096015    2.454621
     56          1           0       10.838475   -3.049991    0.873650
     57          1           0       11.194701   -2.831607    2.570052
     58          1           0        9.818907   -2.294482    1.748333
     59          1           0      -11.895354   -0.037505    2.693922
     60          1           0      -10.818006   -1.554257    2.468775
     61          1           0      -12.471291   -1.787297    2.733833
     62          1           0      -13.764061   -2.559533    0.768078
     63          1           0      -11.978111   -3.012931    0.212622
     64          1           0      -12.946926   -2.357432   -0.841321
     65          1           0        8.864480   -0.439362    0.702385
     66          1           0      -10.260878   -2.179498   -0.382317
     67          1           0        9.820494    0.492705   -2.409847
     68          1           0       11.538246    1.075818   -2.712740
     69          1           0       10.929588   -0.551470   -3.354087
     70          1           0      -11.284864    2.019074   -2.531723
     71          1           0       -9.989567    0.662671   -2.406232
     72          1           0       -9.855868    2.121181   -1.300052
     73          1           0       15.123821   -2.542996    0.314642
     74          1           0      -15.092461    1.991497    1.392863
     75          1           0       10.216454    2.142062   -0.524340
     76          1           0       -8.717295    0.415440    0.037115
     77          1           0        8.552725    4.182743   -0.445358
     78          1           0        7.148242    4.174244    0.273523
     79          1           0        8.810535    3.680149    1.552897
     80          1           0       -8.330621   -3.300433    0.042614
     81          1           0       -8.053890   -2.953978   -1.813295
     82          1           0       -6.660645   -3.171428   -0.542473
     83          1           0        6.919086    0.432406   -0.190803
     84          1           0       -6.490488    0.424752   -0.030377
     85          1           0        5.406839    3.013063    0.458100
     86          1           0       -5.085147   -2.257107   -0.575194
     87          1           0        4.542166    0.453708   -0.718209
     88          1           0       -3.991391    0.616519    0.088026
     89          1           0        3.443433    3.286701    1.647453
     90          1           0        1.584824    3.387688    0.831229
     91          1           0        3.103640    3.989323    0.014904
     92          1           0       -2.827078   -2.812361    0.311838
     93          1           0       -2.980914   -2.799038   -1.519955
     94          1           0       -1.422646   -2.716770   -0.551508
     95          1           0        2.324981   -0.140248   -0.470576
     96          1           0       -1.784238    1.088188    0.116625
     97          1           0        0.148584    1.843787    0.068438
     98          1           0        0.150237   -1.224762   -0.339199
 ---------------------------------------------------------------------

 SCF Done:  E(RCAM-B3LYP) =  -1706.96143327     A.U. after   14 cycles

 Excitation energies and oscillator strengths:

 Excited State   1:      Singlet-A      2.8323 eV  437.75 nm  f=3.7824  <S**2>=0.000
     155 ->158        -0.20890
     156 ->157         0.66718
 This state for optimization and/or second-order correction.
 Total Energy, E(TD-HF/TD-DFT) =  -1706.85734834
 Copying the excited state density for this state as the 1-particle RhoCI density.

 The electronic state is 1-A.
 Alpha  occ. eigenvalues --  -19.22533 -19.20140 -10.32770 -10.30099 -10.29057
 Alpha  occ. eigenvalues --  -10.28823 -10.28100 -10.27918 -10.27750 -10.27426
 Alpha  occ. eigenvalues --  -10.27283 -10.27125 -10.26963 -10.26922 -10.26808
 Alpha  occ. eigenvalues --  -10.26805 -10.26751 -10.26707 -10.26671 -10.26661
 Alpha  occ. eigenvalues --  -10.26509 -10.26365 -10.26133 -10.26081 -10.26006
 Alpha  occ. eigenvalues --  -10.25916 -10.25907 -10.25882 -10.25829 -10.25807
 Alpha  occ. eigenvalues --  -10.25807 -10.25806 -10.25702 -10.25600 -10.25568
 Alpha  occ. eigenvalues --  -10.25469 -10.25424 -10.25173 -10.25080 -10.24919
 Alpha  occ. eigenvalues --  -10.24536 -10.24094  -1.09587  -1.07946  -0.94087
 Alpha  occ. eigenvalues --   -0.93568  -0.92549  -0.92149  -0.91509  -0.90462
 Alpha  occ. eigenvalues --   -0.87307  -0.86995  -0.86486  -0.85574  -0.84623
 Alpha  occ. eigenvalues --   -0.83123  -0.82140  -0.79751  -0.79348  -0.78181
 Alpha  occ. eigenvalues --   -0.76309  -0.76044  -0.75880  -0.75792  -0.75683
 Alpha  occ. eigenvalues --   -0.75466  -0.75039  -0.74550  -0.74122  -0.70791
 Alpha  occ. eigenvalues --   -0.69279  -0.67427  -0.65667  -0.64612  -0.64538
 Alpha  occ. eigenvalues --   -0.64127  -0.63104  -0.62541  -0.60657  -0.60079
 Alpha  occ. eigenvalues --   -0.59486  -0.58828  -0.58521  -0.58243  -0.56654
 Alpha  occ. eigenvalues --   -0.56268  -0.55220  -0.54892  -0.54272  -0.53923
 Alpha  occ. eigenvalues --   -0.53375  -0.52516  -0.51807  -0.51467  -0.50869
 Alpha  occ. eigenvalues --   -0.50397  -0.50020  -0.49616  -0.49558  -0.49192
 Alpha  occ. eigenvalues --   -0.48657  -0.48539  -0.47883  -0.47727  -0.47497
 Alpha  occ. eigenvalues --   -0.47392  -0.47121  -0.46947  -0.46772  -0.45785
 Alpha  occ. eigenvalues --   -0.45359  -0.45154  -0.44866  -0.44605  -0.44444
 Alpha  occ. eigenvalues --   -0.44262  -0.43859  -0.43734  -0.43682  -0.43326
 Alpha  occ. eigenvalues --   -0.43196  -0.42224  -0.42174  -0.41836  -0.41821
 Alpha  occ. eigenvalues --   -0.41449  -0.41159  -0.40845  -0.40727  -0.40523
 Alpha  occ. eigenvalues --   -0.40062  -0.39853  -0.39472  -0.39330  -0.39092
 Alpha  occ. eigenvalues --   -0.38801  -0.38532  -0.38300  -0.38172  -0.38021
 Alpha  occ. eigenvalues --   -0.37720  -0.37691  -0.37067  -0.36443  -0.36116
 Alpha  occ. eigenvalues --   -0.35772  -0.35357  -0.33933  -0.32502  -0.31737
 Alpha  occ. eigenvalues --   -0.31526  -0.29864  -0.28282  -0.26711  -0.23773
 Alpha  occ. eigenvalues --   -0.21310
 Alpha virt. eigenvalues --   -0.04212  -0.00922   0.02542   0.05583   0.07094
 Alpha virt. eigenvalues --    0.09578   0.10268   0.10699   0.11766   0.12033
 Alpha virt. eigenvalues --    0.12311   0.12469   0.12965   0.13337   0.13452

 Mulliken charges:
               1
     1  O   -0.556343
     2  O   -0.564545
     3  C   -0.007488
     4  C   -0.033884
     5  C   -0.215913
     6  C   -0.175907
     7  C    0.184410
     8  C    0.126424
     9  C    0.025194
    10  C    0.140484
    11  C   -0.215008
    12  C   -0.201061
    13  C    0.078962
    14  C    0.020609
    15  C   -0.305656
    16  C   -0.306916
    17  C   -0.295507
    18  C   -0.317753
    19  C   -0.118894
    20  C   -0.172579
    21  C   -0.355239
    22  C   -0.345028
    23  C   -0.108552
    24  C   -0.069361
    25  C    0.110014
    26  C    0.099105
    27  C   -0.343907
    28  C   -0.351518
    29  C   -0.101700
    30  C   -0.100311
    31  C   -0.092377
    32  C   -0.089598
    33  C   -0.136700
    34  C   -0.122407
    35  C    0.155812
    36  C    0.160342
    37  C   -0.379644
    38  C   -0.388588
    39  C   -0.083890
    40  C   -0.161016
    41  C   -0.099021
    42  C   -0.075660
    43  H    0.096648
    44  H    0.051377
    45  H    0.075262
    46  H    0.118264
    47  H    0.064899
    48  H    0.096513
    49  H    0.127518
    50  H    0.068303
    51  H    0.114537
    52  H    0.095118
    53  H    0.102327
    54  H    0.086252
    55  H    0.115143
    56  H    0.109476
    57  H    0.087883
    58  H    0.101114
    59  H    0.097117
    60  H    0.088214
    61  H    0.103250
    62  H    0.100958
    63  H    0.108754
    64  H    0.089970
    65  H    0.092900
    66  H    0.062073
    67  H    0.123034
    68  H    0.126016
    69  H    0.112535
    70  H    0.093650
    71  H    0.124886
    72  H    0.111248
    73  H    0.320359
    74  H    0.292592
    75  H    0.092506
    76  H    0.077052
    77  H    0.128196
    78  H    0.079853
    79  H    0.095724
    80  H    0.101228
    81  H    0.117119
    82  H    0.113665
    83  H    0.076461
    84  H    0.078516
    85  H    0.069677
    86  H    0.084290
    87  H    0.073613
    88  H    0.073025
    89  H    0.107677
    90  H    0.091950
    91  H    0.134636
    92  H    0.120305
    93  H    0.102460
    94  H    0.101230
    95  H    0.077060
    96  H    0.075598
    97  H    0.080199
    98  H    0.080385
 Sum of Mulliken charges =  -0.00000

 Dipole moment (field-independent basis, Debye):
    X=              0.4153    Y=             -0.8899    Z=              2.5606  Tot=              2.7425
 Quadrupole moment (field-independent basis, Debye-Ang):
   XX=           -283.0019   YY=           -249.2776   ZZ=           -261.4002
   XY=             17.0249   XZ=             -3.3586   YZ=             -0.2487

 Normal termination of Gaussian 16 at Sun Jul  7 12:05:20 2019.
