 Gaussian 16, Revision A.03,
 Gaussian 16:  ES64L-G16RevA.03 25-Dec-2016

 -------------------------------------
 # td=(NStates=1) CAM-B3LYP/6-31G(d,p)
 -------------------------------------

 --
 TD
 --
 Symbolic Z-matrix:
 Charge =  0 Multiplicity = 1

                         Standard orientation:
 ---------------------------------------------------------------------
 Center     Atomic      Atomic             Coordinates (Angstroms)
 Number     Number       Type             X           Y           Z
 ---------------------------------------------------------------------
      1          8           0       14.453730   -2.449861   -0.544848
      2          8           0      -14.576447    2.150710    0.690124
      3          6           0       11.433830   -1.081379    1.163512
      4          6           0      -12.340090   -0.832333    0.818977
      5          6           0       12.831065   -1.509814    1.058189
      6          6           0      -13.643144   -0.174248    0.684037
      7          6           0       13.205985   -2.061411   -0.313424
      8          6           0      -13.420104    1.366683    0.708812
      9          6           0       10.855014   -0.250132   -0.056539
     10          6           0      -11.299551   -0.295136   -0.252403
     11          6           0       12.960534   -0.822185   -1.318701
     12          6           0      -12.619159    1.795833   -0.594537
     13          6           0       11.565155   -0.160964   -1.113733
     14          6           0      -11.389138    0.885527   -0.876124
     15          6           0       11.133817   -0.303659    2.536829
     16          6           0       10.540247   -2.390371    1.211955
     17          6           0      -11.738207   -0.725934    2.178798
     18          6           0      -12.501286   -2.376600    0.484027
     19          6           0        9.576927    0.342286    0.196695
     20          6           0      -10.044219   -1.169755   -0.287362
     21          6           0       11.130596    0.537315   -2.320883
     22          6           0      -10.540374    1.463557   -1.932178
     23          6           0        9.392056    1.622930   -0.075228
     24          6           0       -8.777086   -0.691495   -0.201863
     25          6           0        8.108238    2.385978    0.115939
     26          6           0       -7.622524   -1.402269   -0.419369
     27          6           0        8.168799    3.734679    0.576467
     28          6           0       -7.655041   -2.907444   -0.691726
     29          6           0        6.933825    1.658008   -0.055562
     30          6           0       -6.411604   -0.712711   -0.257194
     31          6           0        5.560906    2.061915    0.192886
     32          6           0       -5.091982   -1.182664   -0.607207
     33          6           0        4.435035    1.368723   -0.032512
     34          6           0       -3.988921   -0.480855   -0.276363
     35          6           0        3.090100    1.763474    0.061665
     36          6           0       -2.622351   -0.812984   -0.331568
     37          6           0        2.803419    3.204394    0.364569
     38          6           0       -2.309265   -2.302016   -0.814878
     39          6           0        2.175332    0.826685   -0.101974
     40          6           0       -1.689381    0.157032   -0.199668
     41          6           0        0.711615    0.842083    0.092728
     42          6           0       -0.204002   -0.077842   -0.246511
     43          1           0       13.366946   -0.488390    1.149090
     44          1           0       13.231746   -2.072411    1.961739
     45          1           0      -14.167865   -0.355487    1.662938
     46          1           0      -14.372879   -0.363646   -0.376721
     47          1           0       12.452347   -2.809276   -0.720275
     48          1           0      -12.774346    1.715362    1.498388
     49          1           0       13.854519   -0.219533   -1.191404
     50          1           0       13.059258   -1.397517   -2.227177
     51          1           0      -13.448125    1.567687   -1.413368
     52          1           0      -12.235738    2.879337   -0.568180
     53          1           0       11.595721   -0.808489    3.442726
     54          1           0       10.085935   -0.146494    2.800864
     55          1           0       11.720494    0.626278    2.713993
     56          1           0       10.043010   -3.002312    0.111488
     57          1           0       10.919218   -3.254265    2.025425
     58          1           0        9.563098   -2.023656    1.652642
     59          1           0      -11.263466    0.247520    2.312264
     60          1           0      -10.868290   -1.594047    2.088723
     61          1           0      -12.622945   -0.821096    3.021127
     62          1           0      -13.479872   -2.706223    1.021332
     63          1           0      -11.643717   -3.078059    0.802897
     64          1           0      -12.703731   -2.478216   -0.520834
     65          1           0        8.755301   -0.226627    0.765549
     66          1           0      -10.190071   -2.190504   -0.648852
     67          1           0       10.052874    0.692655   -2.180168
     68          1           0       11.561952    1.518276   -2.412844
     69          1           0       11.613883   -0.060621   -3.258699
     70          1           0      -11.170368    1.836609   -2.645950
     71          1           0       -9.983055    0.674449   -2.612352
     72          1           0       -9.789724    2.171054   -1.613440
     73          1           0       14.626308   -3.013713    0.379144
     74          1           0      -15.277162    1.561342    1.455154
     75          1           0       10.193249    2.241930   -0.404344
     76          1           0       -8.785423    0.408705   -0.176181
     77          1           0        8.752218    4.266392   -0.183758
     78          1           0        7.166803    4.199790    0.530855
     79          1           0        8.612303    3.934466    1.460870
     80          1           0       -8.142550   -3.331458    0.107166
     81          1           0       -8.424770   -3.113815   -1.583292
     82          1           0       -6.780363   -3.431888   -0.974975
     83          1           0        6.932360    0.726230   -0.327916
     84          1           0       -6.479788    0.551191   -0.000406
     85          1           0        5.348264    3.059396    0.367877
     86          1           0       -4.843914   -2.233438   -0.956840
     87          1           0        4.616314    0.241072   -0.073979
     88          1           0       -4.153660    0.499204   -0.034391
     89          1           0        3.268482    3.391806    1.418297
     90          1           0        1.783408    3.481481    0.075322
     91          1           0        3.203078    3.874151   -0.290973
     92          1           0       -2.848847   -3.135237   -0.147951
     93          1           0       -2.579347   -2.572053   -1.718720
     94          1           0       -1.303628   -2.315484   -0.811068
     95          1           0        2.581975   -0.169102   -0.360025
     96          1           0       -2.052012    1.041955    0.169471
     97          1           0        0.084885    1.743458    0.357097
     98          1           0        0.091050   -1.102933   -0.491010
 ---------------------------------------------------------------------

 SCF Done:  E(RCAM-B3LYP) =  -1706.92715734     A.U. after   14 cycles

 Excitation energies and oscillator strengths:

 Excited State   1:      Singlet-A      2.8633 eV  433.01 nm  f=3.7686  <S**2>=0.000
     155 ->158         0.19990
     156 ->157         0.67160
 This state for optimization and/or second-order correction.
 Total Energy, E(TD-HF/TD-DFT) =  -1706.82193179
 Copying the excited state density for this state as the 1-particle RhoCI density.

 The electronic state is 1-A.
 Alpha  occ. eigenvalues --  -19.23119 -19.22719 -10.30044 -10.29915 -10.28602
 Alpha  occ. eigenvalues --  -10.28376 -10.28222 -10.27556 -10.27478 -10.27436
 Alpha  occ. eigenvalues --  -10.27329 -10.27296 -10.27019 -10.26934 -10.26749
 Alpha  occ. eigenvalues --  -10.26665 -10.26605 -10.26485 -10.26429 -10.26420
 Alpha  occ. eigenvalues --  -10.26382 -10.26184 -10.25958 -10.25890 -10.25881
 Alpha  occ. eigenvalues --  -10.25866 -10.25744 -10.25729 -10.25618 -10.25572
 Alpha  occ. eigenvalues --  -10.25324 -10.25210 -10.25115 -10.25096 -10.25077
 Alpha  occ. eigenvalues --  -10.24940 -10.24844 -10.24814 -10.24733 -10.24628
 Alpha  occ. eigenvalues --  -10.24560 -10.24524  -1.11916  -1.07476  -0.94152
 Alpha  occ. eigenvalues --   -0.93291  -0.92642  -0.91947  -0.90830  -0.90504
 Alpha  occ. eigenvalues --   -0.87581  -0.87227  -0.86921  -0.85198  -0.84273
 Alpha  occ. eigenvalues --   -0.83187  -0.81814  -0.80054  -0.79379  -0.78792
 Alpha  occ. eigenvalues --   -0.77670  -0.76991  -0.76558  -0.75796  -0.75423
 Alpha  occ. eigenvalues --   -0.75376  -0.74967  -0.73920  -0.73479  -0.70622
 Alpha  occ. eigenvalues --   -0.68815  -0.66764  -0.65216  -0.64830  -0.63379
 Alpha  occ. eigenvalues --   -0.62950  -0.62295  -0.61760  -0.61364  -0.60501
 Alpha  occ. eigenvalues --   -0.59773  -0.58894  -0.58102  -0.56810  -0.56499
 Alpha  occ. eigenvalues --   -0.56086  -0.55099  -0.54640  -0.54454  -0.53860
 Alpha  occ. eigenvalues --   -0.52918  -0.52554  -0.51950  -0.51825  -0.51227
 Alpha  occ. eigenvalues --   -0.50445  -0.50218  -0.50134  -0.49812  -0.49696
 Alpha  occ. eigenvalues --   -0.49389  -0.49235  -0.48177  -0.48023  -0.47691
 Alpha  occ. eigenvalues --   -0.47615  -0.47373  -0.47165  -0.46605  -0.46405
 Alpha  occ. eigenvalues --   -0.46270  -0.45896  -0.45622  -0.45561  -0.44816
 Alpha  occ. eigenvalues --   -0.44724  -0.44168  -0.44090  -0.43999  -0.43381
 Alpha  occ. eigenvalues --   -0.42954  -0.42808  -0.42459  -0.42365  -0.42288
 Alpha  occ. eigenvalues --   -0.42162  -0.41866  -0.41717  -0.41113  -0.40497
 Alpha  occ. eigenvalues --   -0.40043  -0.40006  -0.39677  -0.39470  -0.39043
 Alpha  occ. eigenvalues --   -0.38749  -0.38549  -0.38444  -0.38194  -0.37968
 Alpha  occ. eigenvalues --   -0.37817  -0.37363  -0.36955  -0.36250  -0.35731
 Alpha  occ. eigenvalues --   -0.34843  -0.34120  -0.33091  -0.32236  -0.31607
 Alpha  occ. eigenvalues --   -0.31117  -0.29921  -0.28717  -0.27501  -0.23927
 Alpha  occ. eigenvalues --   -0.21326
 Alpha virt. eigenvalues --   -0.04208  -0.00784   0.03123   0.06132   0.07256
 Alpha virt. eigenvalues --    0.08272   0.09513   0.09825   0.11358   0.11561
 Alpha virt. eigenvalues --    0.11935   0.12066   0.13132   0.13462   0.13673

 Mulliken charges:
               1
     1  O   -0.531782
     2  O   -0.551138
     3  C    0.001293
     4  C    0.008260
     5  C   -0.210510
     6  C   -0.190540
     7  C    0.186191
     8  C    0.183862
     9  C    0.109564
    10  C    0.031295
    11  C   -0.248260
    12  C   -0.225846
    13  C    0.050572
    14  C    0.055461
    15  C   -0.322800
    16  C   -0.270652
    17  C   -0.268060
    18  C   -0.303058
    19  C   -0.121511
    20  C   -0.166833
    21  C   -0.365431
    22  C   -0.365947
    23  C   -0.103643
    24  C   -0.075410
    25  C    0.071978
    26  C    0.117453
    27  C   -0.374609
    28  C   -0.366704
    29  C   -0.080894
    30  C   -0.134368
    31  C   -0.101237
    32  C   -0.089578
    33  C   -0.119716
    34  C   -0.087970
    35  C    0.164277
    36  C    0.108081
    37  C   -0.374160
    38  C   -0.359439
    39  C   -0.156716
    40  C   -0.137747
    41  C   -0.095070
    42  C   -0.079570
    43  H    0.086683
    44  H    0.073374
    45  H    0.071853
    46  H    0.079180
    47  H    0.068293
    48  H    0.083053
    49  H    0.116842
    50  H    0.111595
    51  H    0.098871
    52  H    0.103530
    53  H    0.089932
    54  H    0.113959
    55  H    0.104771
    56  H    0.065529
    57  H    0.074208
    58  H    0.092704
    59  H    0.115280
    60  H    0.096922
    61  H    0.074646
    62  H    0.081030
    63  H    0.095889
    64  H    0.116736
    65  H    0.101870
    66  H    0.087538
    67  H    0.119036
    68  H    0.117293
    69  H    0.085222
    70  H    0.126089
    71  H    0.100499
    72  H    0.121812
    73  H    0.305912
    74  H    0.284397
    75  H    0.090608
    76  H    0.084827
    77  H    0.114129
    78  H    0.113915
    79  H    0.138716
    80  H    0.137852
    81  H    0.095132
    82  H    0.119663
    83  H    0.060888
    84  H    0.066294
    85  H    0.061590
    86  H    0.078523
    87  H    0.065881
    88  H    0.064077
    89  H    0.118771
    90  H    0.110761
    91  H    0.132903
    92  H    0.098335
    93  H    0.136901
    94  H    0.107252
    95  H    0.083413
    96  H    0.085618
    97  H    0.077703
    98  H    0.082617
 Sum of Mulliken charges =  -0.00000

 Dipole moment (field-independent basis, Debye):
    X=              0.6854    Y=             -0.5741    Z=              1.9183  Tot=              2.1164
 Quadrupole moment (field-independent basis, Debye-Ang):
   XX=           -271.3009   YY=           -248.1668   ZZ=           -262.0830
   XY=             25.9566   XZ=             16.3493   YZ=              0.4763

 Normal termination of Gaussian 16 at Sun Jun 30 22:38:41 2019.
