 Gaussian 16, Revision A.03,
 Gaussian 16:  ES64L-G16RevA.03 25-Dec-2016

 -------------------------------------
 # td=(NStates=1) CAM-B3LYP/6-31G(d,p)
 -------------------------------------

 --
 TD
 --
 Symbolic Z-matrix:
 Charge =  0 Multiplicity = 1

                         Standard orientation:
 ---------------------------------------------------------------------
 Center     Atomic      Atomic             Coordinates (Angstroms)
 Number     Number       Type             X           Y           Z
 ---------------------------------------------------------------------
      1          8           0       14.543530   -2.388344   -0.554071
      2          8           0      -14.610009    2.171447    0.638545
      3          6           0       11.403208   -1.062300    1.207179
      4          6           0      -12.329692   -0.847663    0.642756
      5          6           0       12.858831   -1.471416    1.007057
      6          6           0      -13.671832   -0.095395    0.635954
      7          6           0       13.164207   -2.069128   -0.419627
      8          6           0      -13.487499    1.417892    0.603008
      9          6           0       10.856873   -0.220431   -0.059404
     10          6           0      -11.280019   -0.218902   -0.174888
     11          6           0       13.000123   -0.934055   -1.352552
     12          6           0      -12.675864    1.842047   -0.601243
     13          6           0       11.553769   -0.197230   -1.214897
     14          6           0      -11.390938    0.957118   -0.826733
     15          6           0       11.225377   -0.229639    2.426850
     16          6           0       10.466564   -2.344598    1.412908
     17          6           0      -11.872478   -0.981318    2.043649
     18          6           0      -12.683439   -2.356728    0.154908
     19          6           0        9.579788    0.486012    0.171038
     20          6           0      -10.077791   -1.118565   -0.440523
     21          6           0       11.139246    0.456358   -2.410582
     22          6           0      -10.399431    1.575919   -1.865295
     23          6           0        9.345935    1.684538   -0.198778
     24          6           0       -8.858804   -0.634562   -0.331208
     25          6           0        8.073402    2.397863   -0.021730
     26          6           0       -7.519063   -1.388317   -0.490438
     27          6           0        8.241815    3.796521    0.366918
     28          6           0       -7.628417   -2.803108   -0.880163
     29          6           0        6.899559    1.683732   -0.113259
     30          6           0       -6.410556   -0.724701   -0.130143
     31          6           0        5.515340    2.274563    0.115500
     32          6           0       -5.003875   -1.188928   -0.264996
     33          6           0        4.487023    1.406767    0.050096
     34          6           0       -3.902187   -0.467548   -0.005992
     35          6           0        3.018719    1.637950    0.153085
     36          6           0       -2.497050   -1.043963   -0.069518
     37          6           0        2.671608    2.967479    0.687600
     38          6           0       -2.343082   -2.440533   -0.359632
     39          6           0        2.081563    0.701246   -0.009674
     40          6           0       -1.570305    0.028737   -0.052307
     41          6           0        0.686496    0.757814    0.048694
     42          6           0       -0.159402   -0.234136   -0.241502
     43          1           0       13.587018   -0.727245    0.963144
     44          1           0       13.121132   -2.159480    1.856735
     45          1           0      -14.239855   -0.186400    1.527805
     46          1           0      -14.238436   -0.231769   -0.374936
     47          1           0       12.505061   -2.993534   -0.782738
     48          1           0      -12.957264    1.775929    1.418463
     49          1           0       13.717381   -0.064750   -1.259108
     50          1           0       13.076753   -1.218053   -2.353661
     51          1           0      -13.232175    1.571454   -1.483421
     52          1           0      -12.395749    2.851635   -0.676959
     53          1           0       11.802718   -0.752244    3.260262
     54          1           0       10.306094   -0.010330    2.901195
     55          1           0       11.605602    0.767280    2.211454
     56          1           0       10.573338   -2.886387    0.473506
     57          1           0       10.808212   -2.915847    2.367965
     58          1           0        9.362908   -1.804079    1.399857
     59          1           0      -11.406644    0.056410    2.353713
     60          1           0      -10.964877   -1.661572    2.210278
     61          1           0      -12.688137   -1.184534    2.871164
     62          1           0      -13.565824   -2.625474    0.812005
     63          1           0      -11.825807   -2.898440    0.119272
     64          1           0      -13.103804   -2.239886   -0.870696
     65          1           0        8.759183    0.025903    0.777773
     66          1           0      -10.270685   -2.181485   -0.868309
     67          1           0       10.325252    0.970116   -2.325772
     68          1           0       11.976804    1.291890   -2.952853
     69          1           0       11.060202   -0.369267   -3.084532
     70          1           0      -11.127317    2.001592   -2.711436
     71          1           0       -9.653382    0.844535   -2.238549
     72          1           0       -9.940390    2.429274   -1.382438
     73          1           0       14.850594   -2.868798    0.114513
     74          1           0      -15.174463    1.802131    1.342785
     75          1           0       10.305818    2.358554   -0.577317
     76          1           0       -8.779746    0.315313   -0.109452
     77          1           0        9.254483    4.262861   -0.041110
     78          1           0        7.295103    4.528587    0.253387
     79          1           0        8.482952    4.037450    1.600330
     80          1           0       -8.082857   -3.474828   -0.184283
     81          1           0       -8.504779   -2.932314   -1.755103
     82          1           0       -6.639713   -3.176119   -1.379032
     83          1           0        7.082872    0.665284   -0.499157
     84          1           0       -6.469951    0.184999    0.333474
     85          1           0        5.228192    3.136933    0.405096
     86          1           0       -4.926486   -2.206473   -0.505442
     87          1           0        4.718597    0.291672   -0.064439
     88          1           0       -4.039292    0.597346    0.109856
     89          1           0        3.388120    3.374482    1.603375
     90          1           0        1.682770    2.937162    1.251364
     91          1           0        2.594117    3.907384   -0.196737
     92          1           0       -3.061000   -3.180235    0.345585
     93          1           0       -2.405635   -2.757924   -1.531758
     94          1           0       -1.308341   -2.758809   -0.099511
     95          1           0        2.529792   -0.299527   -0.395426
     96          1           0       -1.956069    1.017426    0.287549
     97          1           0        0.465821    1.764529    0.053244
     98          1           0       -0.022712   -1.263512   -0.349452
 ---------------------------------------------------------------------

 SCF Done:  E(RCAM-B3LYP) =  -1706.96135251     A.U. after   13 cycles

 Excitation energies and oscillator strengths:

 Excited State   1:      Singlet-A      2.9757 eV  416.66 nm  f=3.3012  <S**2>=0.000
     155 ->158        -0.16514
     156 ->157         0.68050
 This state for optimization and/or second-order correction.
 Total Energy, E(TD-HF/TD-DFT) =  -1706.85199869
 Copying the excited state density for this state as the 1-particle RhoCI density.

 The electronic state is 1-A.
 Alpha  occ. eigenvalues --  -19.20940 -19.20312 -10.31548 -10.28832 -10.28592
 Alpha  occ. eigenvalues --  -10.28586 -10.28491 -10.28249 -10.27445 -10.27278
 Alpha  occ. eigenvalues --  -10.27268 -10.27194 -10.27153 -10.27103 -10.27062
 Alpha  occ. eigenvalues --  -10.27038 -10.26712 -10.26636 -10.26589 -10.26468
 Alpha  occ. eigenvalues --  -10.26434 -10.26264 -10.26189 -10.26103 -10.26057
 Alpha  occ. eigenvalues --  -10.26056 -10.25881 -10.25810 -10.25808 -10.25768
 Alpha  occ. eigenvalues --  -10.25415 -10.25407 -10.25347 -10.25291 -10.25252
 Alpha  occ. eigenvalues --  -10.25176 -10.25100 -10.24625 -10.24528 -10.24488
 Alpha  occ. eigenvalues --  -10.24126 -10.23705  -1.11642  -1.11099  -0.93526
 Alpha  occ. eigenvalues --   -0.93208  -0.92582  -0.91300  -0.90622  -0.89910
 Alpha  occ. eigenvalues --   -0.87763  -0.87187  -0.86274  -0.85592  -0.84943
 Alpha  occ. eigenvalues --   -0.83586  -0.82157  -0.81039  -0.79689  -0.78012
 Alpha  occ. eigenvalues --   -0.76379  -0.75843  -0.75759  -0.75717  -0.75533
 Alpha  occ. eigenvalues --   -0.74838  -0.74748  -0.74305  -0.73750  -0.70491
 Alpha  occ. eigenvalues --   -0.68224  -0.67738  -0.65886  -0.64848  -0.63956
 Alpha  occ. eigenvalues --   -0.63480  -0.62546  -0.62205  -0.60989  -0.60247
 Alpha  occ. eigenvalues --   -0.59399  -0.58422  -0.58243  -0.57573  -0.56692
 Alpha  occ. eigenvalues --   -0.56384  -0.56273  -0.55304  -0.54925  -0.54528
 Alpha  occ. eigenvalues --   -0.53407  -0.52750  -0.52034  -0.51306  -0.51096
 Alpha  occ. eigenvalues --   -0.50297  -0.50136  -0.49773  -0.48951  -0.48824
 Alpha  occ. eigenvalues --   -0.48607  -0.48321  -0.48170  -0.47998  -0.47891
 Alpha  occ. eigenvalues --   -0.47520  -0.47091  -0.46941  -0.46871  -0.46562
 Alpha  occ. eigenvalues --   -0.46260  -0.45410  -0.45273  -0.44858  -0.44697
 Alpha  occ. eigenvalues --   -0.44573  -0.44532  -0.44167  -0.43971  -0.43226
 Alpha  occ. eigenvalues --   -0.43095  -0.42698  -0.42470  -0.42312  -0.42101
 Alpha  occ. eigenvalues --   -0.42018  -0.41929  -0.41688  -0.41148  -0.40733
 Alpha  occ. eigenvalues --   -0.40122  -0.40056  -0.39972  -0.39924  -0.39858
 Alpha  occ. eigenvalues --   -0.38745  -0.38089  -0.37957  -0.37455  -0.37384
 Alpha  occ. eigenvalues --   -0.37231  -0.36927  -0.36386  -0.35845  -0.35735
 Alpha  occ. eigenvalues --   -0.35303  -0.34322  -0.33730  -0.32598  -0.32335
 Alpha  occ. eigenvalues --   -0.31295  -0.29461  -0.28108  -0.26668  -0.24731
 Alpha  occ. eigenvalues --   -0.21727
 Alpha virt. eigenvalues --   -0.04008   0.00471   0.02848   0.06118   0.07815
 Alpha virt. eigenvalues --    0.08773   0.11365   0.11642   0.12064   0.12109
 Alpha virt. eigenvalues --    0.12331   0.12413   0.12879   0.13460   0.13510

 Mulliken charges:
               1
     1  O   -0.539928
     2  O   -0.546328
     3  C   -0.009371
     4  C   -0.017788
     5  C   -0.189934
     6  C   -0.197900
     7  C    0.156107
     8  C    0.178105
     9  C    0.036941
    10  C    0.049515
    11  C   -0.193541
    12  C   -0.219800
    13  C    0.023377
    14  C    0.028787
    15  C   -0.295255
    16  C   -0.282155
    17  C   -0.293709
    18  C   -0.289915
    19  C   -0.110240
    20  C   -0.143909
    21  C   -0.331914
    22  C   -0.351863
    23  C   -0.122106
    24  C   -0.069217
    25  C    0.130938
    26  C    0.120695
    27  C   -0.365765
    28  C   -0.378813
    29  C   -0.144382
    30  C   -0.119443
    31  C   -0.046737
    32  C   -0.093327
    33  C   -0.108620
    34  C   -0.107047
    35  C    0.133976
    36  C    0.111380
    37  C   -0.380960
    38  C   -0.381738
    39  C   -0.129241
    40  C   -0.117007
    41  C   -0.073540
    42  C   -0.064796
    43  H    0.115791
    44  H    0.070696
    45  H    0.078642
    46  H    0.092011
    47  H    0.069473
    48  H    0.072122
    49  H    0.119545
    50  H    0.108412
    51  H    0.112432
    52  H    0.108037
    53  H    0.079293
    54  H    0.110578
    55  H    0.103620
    56  H    0.107001
    57  H    0.094681
    58  H    0.082023
    59  H    0.088035
    60  H    0.103963
    61  H    0.084899
    62  H    0.100244
    63  H    0.107944
    64  H    0.096457
    65  H    0.096464
    66  H    0.083781
    67  H    0.122898
    68  H    0.063303
    69  H    0.120097
    70  H    0.093305
    71  H    0.127182
    72  H    0.123832
    73  H    0.287610
    74  H    0.299549
    75  H    0.078697
    76  H    0.073602
    77  H    0.107879
    78  H    0.103881
    79  H    0.086315
    80  H    0.139978
    81  H    0.080715
    82  H    0.107142
    83  H    0.099515
    84  H    0.075751
    85  H    0.067983
    86  H    0.069504
    87  H    0.070121
    88  H    0.079628
    89  H    0.099078
    90  H    0.111351
    91  H    0.086959
    92  H    0.109448
    93  H    0.120968
    94  H    0.114626
    95  H    0.065841
    96  H    0.094762
    97  H    0.092232
    98  H    0.086574
 Sum of Mulliken charges =  -0.00000

 Dipole moment (field-independent basis, Debye):
    X=             -0.3707    Y=             -1.3443    Z=              1.8681  Tot=              2.3311
 Quadrupole moment (field-independent basis, Debye-Ang):
   XX=           -271.7196   YY=           -249.8561   ZZ=           -261.9641
   XY=             12.0184   XZ=              1.7978   YZ=              1.5356

 Normal termination of Gaussian 16 at Sun Jun 30 19:41:11 2019.
