 Gaussian 16, Revision A.03,
 Gaussian 16:  ES64L-G16RevA.03 25-Dec-2016

 -------------------------------------
 # td=(NStates=1) CAM-B3LYP/6-31G(d,p)
 -------------------------------------

 --
 TD
 --
 Symbolic Z-matrix:
 Charge =  0 Multiplicity = 1

                         Standard orientation:
 ---------------------------------------------------------------------
 Center     Atomic      Atomic             Coordinates (Angstroms)
 Number     Number       Type             X           Y           Z
 ---------------------------------------------------------------------
      1          8           0       14.886630   -1.997714   -0.295520
      2          8           0      -14.883101    1.978918    0.910386
      3          6           0       11.629819   -1.046492    1.198578
      4          6           0      -12.481043   -0.832758    0.786623
      5          6           0       12.952493   -1.243623    1.171162
      6          6           0      -13.760856   -0.132764    0.745398
      7          6           0       13.392749   -1.765335   -0.260479
      8          6           0      -13.572317    1.345472    0.808905
      9          6           0       10.981625   -0.202947    0.020111
     10          6           0      -11.424014   -0.207727   -0.135102
     11          6           0       13.066314   -0.706203   -1.366443
     12          6           0      -12.869709    1.865739   -0.429815
     13          6           0       11.710800   -0.132866   -1.180347
     14          6           0      -11.613992    0.948361   -0.788250
     15          6           0       11.299335   -0.285413    2.551981
     16          6           0       10.777000   -2.367058    1.381504
     17          6           0      -11.770711   -0.887084    2.249222
     18          6           0      -12.581595   -2.372517    0.452610
     19          6           0        9.731998    0.295474    0.207320
     20          6           0      -10.107784   -0.938523   -0.423532
     21          6           0       11.267795    0.506909   -2.468616
     22          6           0      -10.726735    1.585059   -1.858001
     23          6           0        9.430135    1.576417    0.018952
     24          6           0       -8.842176   -0.472230   -0.253910
     25          6           0        8.092272    2.204308    0.189637
     26          6           0       -7.641744   -1.314271   -0.419342
     27          6           0        8.017336    3.527652    0.864657
     28          6           0       -7.780714   -2.840714   -0.644651
     29          6           0        7.006092    1.516505   -0.123347
     30          6           0       -6.401667   -0.576013   -0.436693
     31          6           0        5.690715    1.918262    0.056521
     32          6           0       -5.117543   -1.200161   -0.547104
     33          6           0        4.508525    1.209115   -0.259726
     34          6           0       -3.996146   -0.379875   -0.431766
     35          6           0        3.055674    1.493802    0.047919
     36          6           0       -2.635001   -0.866671   -0.511169
     37          6           0        2.751801    2.862740    0.550939
     38          6           0       -2.412373   -2.392501   -0.846726
     39          6           0        2.118996    0.559001   -0.307718
     40          6           0       -1.644410    0.120489   -0.450936
     41          6           0        0.651923    0.813731   -0.353430
     42          6           0       -0.270474   -0.118335   -0.551363
     43          1           0       13.595956   -0.322067    1.206710
     44          1           0       13.283743   -2.050287    1.699508
     45          1           0      -14.420771   -0.451395    1.735268
     46          1           0      -14.230783   -0.245801   -0.380869
     47          1           0       12.861828   -2.760923   -0.463935
     48          1           0      -12.828955    1.744489    1.520668
     49          1           0       13.845901    0.117984   -1.045953
     50          1           0       13.300056   -1.059424   -2.302957
     51          1           0      -13.454257    1.711333   -1.346638
     52          1           0      -12.692708    3.034878   -0.244791
     53          1           0       11.676368   -0.777107    3.412632
     54          1           0       10.288162   -0.210811    2.785755
     55          1           0       11.631966    0.674488    2.693831
     56          1           0       10.974853   -3.143261    0.530085
     57          1           0       10.887044   -3.038957    2.378873
     58          1           0        9.737107   -2.286839    1.253378
     59          1           0      -11.488628    0.098782    2.764072
     60          1           0      -10.855083   -1.476702    2.302424
     61          1           0      -12.399365   -1.358160    2.903280
     62          1           0      -13.647333   -2.715499    0.917375
     63          1           0      -11.901145   -2.989890    0.865368
     64          1           0      -12.962767   -2.570982   -0.598315
     65          1           0        9.109288   -0.585533    0.423911
     66          1           0      -10.209583   -2.013594   -0.723642
     67          1           0       10.237147    1.119455   -2.454837
     68          1           0       11.976887    1.311628   -2.696144
     69          1           0       11.200261   -0.318348   -3.138509
     70          1           0      -11.257348    1.775270   -2.651127
     71          1           0       -9.769542    0.736558   -2.399487
     72          1           0      -10.332910    2.436431   -1.480023
     73          1           0       14.979717   -2.721201    0.331319
     74          1           0      -15.386524    1.465193    1.547717
     75          1           0       10.248697    2.366003   -0.004013
     76          1           0       -8.686177    0.561062   -0.071843
     77          1           0        8.505015    4.414445    0.439051
     78          1           0        7.127545    3.967985    0.890905
     79          1           0        8.335428    3.573564    1.824622
     80          1           0       -8.268863   -3.415686    0.409740
     81          1           0       -8.393912   -2.892451   -1.482968
     82          1           0       -6.741120   -3.279024   -1.017125
     83          1           0        7.046956    0.528153   -0.484774
     84          1           0       -6.451793    0.487292   -0.421554
     85          1           0        5.296033    2.937406    0.515356
     86          1           0       -5.111268   -2.311406   -0.518766
     87          1           0        4.651496    0.015252   -0.874109
     88          1           0       -3.962875    0.633905   -0.104124
     89          1           0        3.201594    3.043125    1.577862
     90          1           0        1.746553    3.169215    0.708087
     91          1           0        3.093877    3.666358   -0.102938
     92          1           0       -3.027803   -3.286448   -0.195499
     93          1           0       -2.784800   -2.479511   -1.857681
     94          1           0       -1.432292   -2.490652   -1.012352
     95          1           0        2.455196   -0.387265   -0.824545
     96          1           0       -2.010712    1.130792   -0.432394
     97          1           0        0.288503    1.866917   -0.011758
     98          1           0        0.203550   -1.200077   -0.734488
 ---------------------------------------------------------------------

 SCF Done:  E(RCAM-B3LYP) =  -1706.91427119     A.U. after   14 cycles

 Excitation energies and oscillator strengths:

 Excited State   1:      Singlet-A      2.6340 eV  470.71 nm  f=3.7456  <S**2>=0.000
     155 ->158        -0.17798
     156 ->157         0.68001
 This state for optimization and/or second-order correction.
 Total Energy, E(TD-HF/TD-DFT) =  -1706.81747380
 Copying the excited state density for this state as the 1-particle RhoCI density.

 The electronic state is 1-A.
 Alpha  occ. eigenvalues --  -19.20946 -19.20762 -10.31066 -10.30182 -10.28978
 Alpha  occ. eigenvalues --  -10.28598 -10.28408 -10.28299 -10.28094 -10.28043
 Alpha  occ. eigenvalues --  -10.27839 -10.27545 -10.27116 -10.27072 -10.26979
 Alpha  occ. eigenvalues --  -10.26881 -10.26854 -10.26747 -10.26724 -10.26697
 Alpha  occ. eigenvalues --  -10.26525 -10.26401 -10.26374 -10.26351 -10.26338
 Alpha  occ. eigenvalues --  -10.26278 -10.26140 -10.26130 -10.26065 -10.25774
 Alpha  occ. eigenvalues --  -10.25736 -10.25696 -10.25629 -10.25580 -10.25355
 Alpha  occ. eigenvalues --  -10.25349 -10.25107 -10.24786 -10.24577 -10.24011
 Alpha  occ. eigenvalues --  -10.23367 -10.22376  -1.08297  -1.07033  -0.94792
 Alpha  occ. eigenvalues --   -0.93427  -0.91754  -0.91437  -0.90037  -0.89149
 Alpha  occ. eigenvalues --   -0.88261  -0.86882  -0.86399  -0.86026  -0.84372
 Alpha  occ. eigenvalues --   -0.82854  -0.82009  -0.80376  -0.79322  -0.78280
 Alpha  occ. eigenvalues --   -0.77497  -0.76488  -0.76434  -0.76199  -0.76110
 Alpha  occ. eigenvalues --   -0.75841  -0.75494  -0.75104  -0.73659  -0.70328
 Alpha  occ. eigenvalues --   -0.69036  -0.66676  -0.65634  -0.64822  -0.64395
 Alpha  occ. eigenvalues --   -0.63471  -0.62258  -0.60797  -0.60483  -0.59876
 Alpha  occ. eigenvalues --   -0.58878  -0.58087  -0.57900  -0.57361  -0.55958
 Alpha  occ. eigenvalues --   -0.55729  -0.55608  -0.54978  -0.54099  -0.53848
 Alpha  occ. eigenvalues --   -0.52781  -0.52459  -0.51943  -0.51775  -0.50871
 Alpha  occ. eigenvalues --   -0.50483  -0.50445  -0.49629  -0.49466  -0.49169
 Alpha  occ. eigenvalues --   -0.49088  -0.48433  -0.48261  -0.48192  -0.48055
 Alpha  occ. eigenvalues --   -0.47583  -0.47500  -0.46848  -0.46689  -0.46510
 Alpha  occ. eigenvalues --   -0.45783  -0.45445  -0.45340  -0.44919  -0.44490
 Alpha  occ. eigenvalues --   -0.44356  -0.43887  -0.43754  -0.43444  -0.43411
 Alpha  occ. eigenvalues --   -0.42990  -0.42908  -0.42802  -0.42370  -0.42336
 Alpha  occ. eigenvalues --   -0.41992  -0.41527  -0.41292  -0.41264  -0.40983
 Alpha  occ. eigenvalues --   -0.40593  -0.40194  -0.40141  -0.39654  -0.39030
 Alpha  occ. eigenvalues --   -0.38963  -0.38567  -0.38448  -0.38338  -0.37772
 Alpha  occ. eigenvalues --   -0.37205  -0.37132  -0.37011  -0.36586  -0.36227
 Alpha  occ. eigenvalues --   -0.35458  -0.34648  -0.33432  -0.32544  -0.32001
 Alpha  occ. eigenvalues --   -0.31217  -0.29240  -0.27789  -0.26410  -0.23485
 Alpha  occ. eigenvalues --   -0.20309
 Alpha virt. eigenvalues --   -0.04401  -0.00629   0.03287   0.05818   0.08038
 Alpha virt. eigenvalues --    0.09256   0.10855   0.10987   0.11452   0.11906
 Alpha virt. eigenvalues --    0.12020   0.12636   0.12716   0.13165   0.13434

 Mulliken charges:
               1
     1  O   -0.566433
     2  O   -0.568855
     3  C    0.031283
     4  C    0.017611
     5  C   -0.169216
     6  C   -0.209156
     7  C    0.095861
     8  C    0.187432
     9  C    0.026838
    10  C    0.070106
    11  C   -0.209242
    12  C   -0.230041
    13  C    0.050002
    14  C    0.013278
    15  C   -0.315471
    16  C   -0.326058
    17  C   -0.323496
    18  C   -0.307542
    19  C   -0.074792
    20  C   -0.168213
    21  C   -0.353166
    22  C   -0.319342
    23  C   -0.141685
    24  C   -0.054176
    25  C    0.092483
    26  C    0.065586
    27  C   -0.382036
    28  C   -0.346930
    29  C   -0.087208
    30  C   -0.111944
    31  C   -0.094741
    32  C   -0.095037
    33  C   -0.125080
    34  C   -0.114496
    35  C    0.130362
    36  C    0.092585
    37  C   -0.390109
    38  C   -0.351024
    39  C   -0.140116
    40  C   -0.141922
    41  C   -0.093151
    42  C   -0.065710
    43  H    0.112242
    44  H    0.088419
    45  H    0.069872
    46  H    0.100427
    47  H    0.079619
    48  H    0.092459
    49  H    0.115777
    50  H    0.117472
    51  H    0.111278
    52  H    0.098952
    53  H    0.094980
    54  H    0.104633
    55  H    0.103932
    56  H    0.081954
    57  H    0.087672
    58  H    0.117683
    59  H    0.094022
    60  H    0.114619
    61  H    0.105407
    62  H    0.070532
    63  H    0.122159
    64  H    0.105239
    65  H    0.101377
    66  H    0.081131
    67  H    0.099065
    68  H    0.120731
    69  H    0.121871
    70  H    0.125156
    71  H    0.061479
    72  H    0.123973
    73  H    0.303327
    74  H    0.301989
    75  H    0.089377
    76  H    0.086212
    77  H    0.104383
    78  H    0.119385
    79  H    0.133242
    80  H    0.095438
    81  H    0.143530
    82  H    0.096489
    83  H    0.085836
    84  H    0.085870
    85  H    0.078899
    86  H    0.092192
    87  H    0.031476
    88  H    0.086482
    89  H    0.116338
    90  H    0.115863
    91  H    0.129071
    92  H    0.098623
    93  H    0.132724
    94  H    0.113282
    95  H    0.088811
    96  H    0.090865
    97  H    0.076299
    98  H    0.082824
 Sum of Mulliken charges =  -0.00000

 Dipole moment (field-independent basis, Debye):
    X=             -0.5305    Y=             -1.5426    Z=              1.5821  Tot=              2.2725
 Quadrupole moment (field-independent basis, Debye-Ang):
   XX=           -294.2327   YY=           -242.2460   ZZ=           -259.9735
   XY=             18.0788   XZ=              4.5272   YZ=              1.8929

 Normal termination of Gaussian 16 at Sun Jul  7 08:26:04 2019.
