 Gaussian 16, Revision A.03,
 Gaussian 16:  ES64L-G16RevA.03 25-Dec-2016

 -------------------------------------
 # td=(NStates=1) CAM-B3LYP/6-31G(d,p)
 -------------------------------------

 --
 TD
 --
 Symbolic Z-matrix:
 Charge =  0 Multiplicity = 1

                         Standard orientation:
 ---------------------------------------------------------------------
 Center     Atomic      Atomic             Coordinates (Angstroms)
 Number     Number       Type             X           Y           Z
 ---------------------------------------------------------------------
      1          8           0       14.535391   -2.471101   -0.523894
      2          8           0      -14.913924    1.702874    0.539983
      3          6           0       11.474388   -1.041305    1.174785
      4          6           0      -12.265683   -0.982061    0.808320
      5          6           0       12.910319   -1.479207    0.986889
      6          6           0      -13.627265   -0.344378    0.694999
      7          6           0       13.197470   -2.083155   -0.348659
      8          6           0      -13.571798    1.221437    0.621439
      9          6           0       10.952726   -0.256232   -0.014908
     10          6           0      -11.295840   -0.285139   -0.213672
     11          6           0       12.807413   -1.065067   -1.329579
     12          6           0      -12.840402    1.628411   -0.582246
     13          6           0       11.515064   -0.269579   -1.315555
     14          6           0      -11.496238    0.900915   -0.820745
     15          6           0       11.467652   -0.130394    2.506958
     16          6           0       10.535158   -2.339873    1.416929
     17          6           0      -11.680843   -0.760967    2.194356
     18          6           0      -12.433534   -2.472028    0.490884
     19          6           0        9.567660    0.383018    0.198961
     20          6           0       -9.962260   -1.077622   -0.240758
     21          6           0       10.869887    0.340861   -2.465079
     22          6           0      -10.680928    1.481325   -1.927632
     23          6           0        9.294896    1.615537   -0.136409
     24          6           0       -8.823140   -0.476347   -0.314365
     25          6           0        8.016412    2.305348    0.107846
     26          6           0       -7.478891   -1.250932   -0.448201
     27          6           0        8.037372    3.771742    0.353042
     28          6           0       -7.674140   -2.717083   -0.803076
     29          6           0        6.905757    1.597275   -0.038351
     30          6           0       -6.297482   -0.565055   -0.385289
     31          6           0        5.632677    2.139908    0.156987
     32          6           0       -4.993115   -1.064090   -0.543288
     33          6           0        4.516309    1.318812    0.136158
     34          6           0       -4.007175   -0.282698   -0.265422
     35          6           0        3.109544    1.742083    0.208656
     36          6           0       -2.556891   -0.660238   -0.401511
     37          6           0        2.828773    3.249851    0.502108
     38          6           0       -2.297733   -2.089641   -0.736550
     39          6           0        2.097330    0.751904    0.018652
     40          6           0       -1.607926    0.224398   -0.064503
     41          6           0        0.773144    1.035287    0.177553
     42          6           0       -0.192166    0.034640   -0.081278
     43          1           0       13.603791   -0.761085    1.147725
     44          1           0       13.029187   -2.295037    1.735029
     45          1           0      -14.270849   -0.560875    1.748858
     46          1           0      -14.378139   -0.750847   -0.116558
     47          1           0       12.639868   -2.925514   -0.621036
     48          1           0      -12.995196    1.656249    1.465780
     49          1           0       13.696214   -0.404194   -1.290199
     50          1           0       12.813482   -1.739401   -2.365392
     51          1           0      -13.515005    1.270455   -1.313296
     52          1           0      -12.759278    2.644670   -0.666118
     53          1           0       11.949721   -0.755926    3.341096
     54          1           0       10.432672    0.173978    2.727797
     55          1           0       12.095105    0.704576    2.273954
     56          1           0       10.660797   -2.957326    0.472389
     57          1           0       10.919017   -2.821312    2.435165
     58          1           0        9.455464   -2.042030    1.386372
     59          1           0      -11.552288    0.304855    2.581595
     60          1           0      -10.688459   -1.106864    2.424809
     61          1           0      -12.412134   -1.329680    2.808323
     62          1           0      -13.182147   -2.761395    1.167327
     63          1           0      -11.601796   -3.098206    0.546175
     64          1           0      -12.719853   -2.870370   -0.431352
     65          1           0        9.074661   -0.432329    0.704633
     66          1           0       -9.772342   -2.139798   -0.441698
     67          1           0        9.850623    0.545861   -2.382908
     68          1           0       11.475022    1.164394   -2.870760
     69          1           0       10.934126   -0.654331   -3.122830
     70          1           0      -11.410580    1.878696   -2.668804
     71          1           0       -9.867073    0.701035   -2.381877
     72          1           0      -10.082212    2.379074   -1.589233
     73          1           0       14.983630   -2.835375    0.289928
     74          1           0      -15.413678    1.390940    1.302481
     75          1           0       10.017215    2.421004   -0.515441
     76          1           0       -8.743939    0.657843   -0.399914
     77          1           0        9.111060    4.062514   -0.228222
     78          1           0        7.074874    4.337355    0.077809
     79          1           0        7.996764    3.943262    1.569394
     80          1           0       -8.293429   -3.377394    0.001026
     81          1           0       -8.106895   -2.746628   -1.796381
     82          1           0       -6.703731   -3.308963   -1.091982
     83          1           0        7.180795    0.777277   -0.574157
     84          1           0       -6.316042    0.478526   -0.178439
     85          1           0        5.661552    2.979241    0.516995
     86          1           0       -4.786682   -1.993029   -0.902887
     87          1           0        4.917018    0.322129   -0.262501
     88          1           0       -4.291637    0.658816    0.334083
     89          1           0        3.355498    3.385473    1.506904
     90          1           0        1.661685    3.287868    0.584162
     91          1           0        3.256801    3.777534   -0.366017
     92          1           0       -2.463426   -2.798698    0.069614
     93          1           0       -3.045353   -2.386469   -1.547355
     94          1           0       -1.343488   -2.307472   -1.138785
     95          1           0        2.469021   -0.234647   -0.259356
     96          1           0       -1.851671    1.209282    0.424477
     97          1           0        0.660132    2.035257    0.510648
     98          1           0        0.260796   -0.905132   -0.430429
 ---------------------------------------------------------------------

 SCF Done:  E(RCAM-B3LYP) =  -1706.98883181     A.U. after   14 cycles

 Excitation energies and oscillator strengths:

 Excited State   1:      Singlet-A      2.6215 eV  472.96 nm  f=3.3659  <S**2>=0.000
     155 ->158        -0.13594
     156 ->157         0.69197
 This state for optimization and/or second-order correction.
 Total Energy, E(TD-HF/TD-DFT) =  -1706.89249496
 Copying the excited state density for this state as the 1-particle RhoCI density.

 The electronic state is 1-A.
 Alpha  occ. eigenvalues --  -19.21096 -19.20843 -10.29954 -10.28986 -10.28711
 Alpha  occ. eigenvalues --  -10.28167 -10.27876 -10.27679 -10.27627 -10.27571
 Alpha  occ. eigenvalues --  -10.27546 -10.27209 -10.27136 -10.27115 -10.26928
 Alpha  occ. eigenvalues --  -10.26754 -10.26641 -10.26401 -10.26322 -10.26313
 Alpha  occ. eigenvalues --  -10.26068 -10.26018 -10.25997 -10.25911 -10.25860
 Alpha  occ. eigenvalues --  -10.25855 -10.25788 -10.25700 -10.25696 -10.25565
 Alpha  occ. eigenvalues --  -10.25536 -10.25530 -10.25320 -10.25260 -10.24757
 Alpha  occ. eigenvalues --  -10.24662 -10.24127 -10.24057 -10.23989 -10.23417
 Alpha  occ. eigenvalues --  -10.23144 -10.22982  -1.09231  -1.08984  -0.93465
 Alpha  occ. eigenvalues --   -0.93082  -0.92367  -0.92166  -0.90744  -0.89344
 Alpha  occ. eigenvalues --   -0.87547  -0.87254  -0.86750  -0.86192  -0.84755
 Alpha  occ. eigenvalues --   -0.83228  -0.82261  -0.80444  -0.79919  -0.78452
 Alpha  occ. eigenvalues --   -0.77277  -0.76657  -0.75938  -0.75521  -0.75410
 Alpha  occ. eigenvalues --   -0.75090  -0.74637  -0.74452  -0.73565  -0.70788
 Alpha  occ. eigenvalues --   -0.68639  -0.66998  -0.65819  -0.64825  -0.64119
 Alpha  occ. eigenvalues --   -0.63437  -0.62932  -0.62423  -0.61362  -0.60234
 Alpha  occ. eigenvalues --   -0.59114  -0.58729  -0.58585  -0.57472  -0.56448
 Alpha  occ. eigenvalues --   -0.56276  -0.55965  -0.55214  -0.53748  -0.53322
 Alpha  occ. eigenvalues --   -0.53003  -0.52341  -0.51642  -0.51308  -0.51135
 Alpha  occ. eigenvalues --   -0.50698  -0.50270  -0.49590  -0.49574  -0.49290
 Alpha  occ. eigenvalues --   -0.49070  -0.48716  -0.48497  -0.48271  -0.47924
 Alpha  occ. eigenvalues --   -0.47809  -0.47469  -0.47129  -0.46740  -0.46297
 Alpha  occ. eigenvalues --   -0.45936  -0.45450  -0.45337  -0.45188  -0.45012
 Alpha  occ. eigenvalues --   -0.44653  -0.44531  -0.44384  -0.43994  -0.43630
 Alpha  occ. eigenvalues --   -0.42976  -0.42690  -0.42565  -0.42114  -0.41801
 Alpha  occ. eigenvalues --   -0.41688  -0.41398  -0.41137  -0.40892  -0.40752
 Alpha  occ. eigenvalues --   -0.40475  -0.40423  -0.40070  -0.39302  -0.39042
 Alpha  occ. eigenvalues --   -0.38985  -0.38959  -0.38791  -0.38409  -0.38229
 Alpha  occ. eigenvalues --   -0.38063  -0.37398  -0.36501  -0.36043  -0.34976
 Alpha  occ. eigenvalues --   -0.34571  -0.34086  -0.33717  -0.32685  -0.32288
 Alpha  occ. eigenvalues --   -0.31956  -0.29050  -0.27688  -0.26058  -0.24463
 Alpha  occ. eigenvalues --   -0.20133
 Alpha virt. eigenvalues --   -0.04459   0.00755   0.03455   0.06388   0.07936
 Alpha virt. eigenvalues --    0.09877   0.10642   0.11455   0.11871   0.12236
 Alpha virt. eigenvalues --    0.12420   0.12560   0.13007   0.13412   0.13999

 Mulliken charges:
               1
     1  O   -0.581898
     2  O   -0.565467
     3  C   -0.037398
     4  C    0.005678
     5  C   -0.189924
     6  C   -0.192499
     7  C    0.199404
     8  C    0.162819
     9  C    0.001460
    10  C    0.033307
    11  C   -0.216932
    12  C   -0.206305
    13  C    0.082469
    14  C    0.053651
    15  C   -0.295519
    16  C   -0.304254
    17  C   -0.292141
    18  C   -0.313057
    19  C   -0.091203
    20  C   -0.120677
    21  C   -0.343573
    22  C   -0.365204
    23  C   -0.121842
    24  C   -0.088364
    25  C    0.079724
    26  C    0.084730
    27  C   -0.355088
    28  C   -0.395343
    29  C   -0.089507
    30  C   -0.139462
    31  C   -0.047282
    32  C   -0.022925
    33  C   -0.116985
    34  C   -0.113724
    35  C    0.026763
    36  C    0.093558
    37  C   -0.346547
    38  C   -0.377748
    39  C   -0.083784
    40  C   -0.116869
    41  C   -0.057629
    42  C   -0.114919
    43  H    0.105536
    44  H    0.070841
    45  H    0.034401
    46  H    0.102339
    47  H    0.082979
    48  H    0.079153
    49  H    0.109973
    50  H    0.061266
    51  H    0.123823
    52  H    0.108576
    53  H    0.087465
    54  H    0.107926
    55  H    0.112473
    56  H    0.108548
    57  H    0.096936
    58  H    0.104739
    59  H    0.100444
    60  H    0.117947
    61  H    0.090670
    62  H    0.101426
    63  H    0.101963
    64  H    0.111788
    65  H    0.091583
    66  H    0.084457
    67  H    0.134734
    68  H    0.122070
    69  H    0.090597
    70  H    0.112235
    71  H    0.109917
    72  H    0.108793
    73  H    0.312902
    74  H    0.306446
    75  H    0.080129
    76  H    0.080929
    77  H    0.088195
    78  H    0.118431
    79  H    0.104710
    80  H    0.114058
    81  H    0.139480
    82  H    0.096053
    83  H    0.075597
    84  H    0.078970
    85  H    0.043042
    86  H    0.070557
    87  H    0.079785
    88  H    0.079268
    89  H    0.128162
    90  H    0.099029
    91  H    0.138420
    92  H    0.133708
    93  H    0.104214
    94  H    0.116342
    95  H    0.083265
    96  H    0.081580
    97  H    0.070889
    98  H    0.080742
 Sum of Mulliken charges =  -0.00000

 Dipole moment (field-independent basis, Debye):
    X=              0.9152    Y=             -1.1858    Z=              1.8553  Tot=              2.3845
 Quadrupole moment (field-independent basis, Debye-Ang):
   XX=           -275.5175   YY=           -247.2528   ZZ=           -262.0204
   XY=             15.9835   XZ=              9.1813   YZ=              0.4486

 Normal termination of Gaussian 16 at Mon Jul  1 20:45:25 2019.
