 Gaussian 16, Revision A.03,
 Gaussian 16:  ES64L-G16RevA.03 25-Dec-2016

 -------------------------------------
 # td=(NStates=1) CAM-B3LYP/6-31G(d,p)
 -------------------------------------

 --
 TD
 --
 Symbolic Z-matrix:
 Charge =  0 Multiplicity = 1

                         Standard orientation:
 ---------------------------------------------------------------------
 Center     Atomic      Atomic             Coordinates (Angstroms)
 Number     Number       Type             X           Y           Z
 ---------------------------------------------------------------------
      1          8           0       14.770879   -2.150206   -0.470805
      2          8           0      -14.864454    1.862502    0.900954
      3          6           0       11.506703   -1.142121    1.209667
      4          6           0      -12.398504   -0.984442    0.788648
      5          6           0       13.072899   -1.493529    1.014355
      6          6           0      -13.715137   -0.262890    0.820571
      7          6           0       13.382445   -1.963496   -0.371408
      8          6           0      -13.648452    1.312008    0.807037
      9          6           0       10.948511   -0.262253    0.037542
     10          6           0      -11.325424   -0.310002   -0.170779
     11          6           0       12.925117   -0.881057   -1.277432
     12          6           0      -12.900563    1.654479   -0.406744
     13          6           0       11.684048   -0.174039   -1.026779
     14          6           0      -11.612149    0.862297   -0.759307
     15          6           0       11.325404   -0.451624    2.616393
     16          6           0       10.813219   -2.542629    1.316342
     17          6           0      -11.757655   -0.946594    2.243041
     18          6           0      -12.696115   -2.427196    0.449679
     19          6           0        9.740910    0.373258    0.296452
     20          6           0      -10.124436   -1.076318   -0.363346
     21          6           0       11.088238    0.577770   -2.231254
     22          6           0      -10.800783    1.485268   -1.815171
     23          6           0        9.331566    1.624705   -0.101974
     24          6           0       -8.904781   -0.436650   -0.347374
     25          6           0        8.047400    2.261614    0.139554
     26          6           0       -7.602612   -1.197060   -0.589505
     27          6           0        8.028053    3.707778    0.464178
     28          6           0       -7.736879   -2.634477   -0.915026
     29          6           0        6.918235    1.490837    0.050776
     30          6           0       -6.438200   -0.534086   -0.433204
     31          6           0        5.554627    2.009142    0.259871
     32          6           0       -5.151243   -1.082167   -0.640126
     33          6           0        4.517950    1.339509   -0.136077
     34          6           0       -3.961350   -0.408001   -0.322334
     35          6           0        3.189412    1.800035    0.060433
     36          6           0       -2.566245   -0.795088   -0.493805
     37          6           0        2.848387    3.124542    0.451560
     38          6           0       -2.236150   -2.169237   -1.093101
     39          6           0        2.204378    0.834849   -0.297104
     40          6           0       -1.604116    0.091138   -0.147987
     41          6           0        0.761886    0.990097   -0.032838
     42          6           0       -0.151981   -0.008617   -0.354834
     43          1           0       13.672721   -0.492454    1.069969
     44          1           0       13.362200   -2.067875    1.918008
     45          1           0      -14.631652   -0.721150    1.498428
     46          1           0      -14.297616   -0.462166   -0.011039
     47          1           0       12.990624   -2.824903   -0.683697
     48          1           0      -13.113543    1.717794    1.608271
     49          1           0       13.915114   -0.007542   -1.322311
     50          1           0       12.993834   -1.346404   -2.374757
     51          1           0      -13.354333    1.865513   -1.245559
     52          1           0      -12.838288    2.586587   -0.195197
     53          1           0       11.723820   -0.797965    3.458610
     54          1           0       10.317409   -0.513091    2.559330
     55          1           0       11.698208    0.652832    2.622608
     56          1           0       10.968357   -3.174317    0.376860
     57          1           0       11.166931   -3.466252    2.106142
     58          1           0        9.632363   -2.516842    1.630297
     59          1           0      -11.863186    0.047861    2.540271
     60          1           0      -10.595656   -1.222243    2.019036
     61          1           0      -12.443542   -1.762332    2.898501
     62          1           0      -13.293464   -2.953708    1.091923
     63          1           0      -11.851022   -3.059788    0.854571
     64          1           0      -12.837894   -2.605638   -0.443659
     65          1           0        9.091596   -0.359000    1.066143
     66          1           0      -10.180919   -2.023073   -0.734285
     67          1           0        9.979693    0.605376   -2.062215
     68          1           0       11.581962    1.577989   -2.428627
     69          1           0       11.036916    0.035298   -3.210077
     70          1           0      -11.484797    1.760941   -2.516412
     71          1           0      -10.018144    0.688130   -2.218337
     72          1           0      -10.212948    2.469848   -1.531759
     73          1           0       15.029355   -2.727373    0.291068
     74          1           0      -15.196065    1.522709    1.716657
     75          1           0       10.004544    2.454847   -0.370695
     76          1           0       -8.793501    0.583045    0.063140
     77          1           0        8.803161    4.325673    0.117299
     78          1           0        7.039461    4.198506    0.222846
     79          1           0        8.182244    3.803716    1.577232
     80          1           0       -8.138259   -3.321232   -0.173374
     81          1           0       -8.256400   -2.681754   -1.974391
     82          1           0       -6.793172   -3.093686   -1.213318
     83          1           0        7.119032    0.421321   -0.199049
     84          1           0       -6.603534    0.569294   -0.144992
     85          1           0        5.339345    2.997735    0.597960
     86          1           0       -4.833994   -2.051990   -1.151326
     87          1           0        4.775113    0.304484   -0.354685
     88          1           0       -4.020328    0.470440    0.065012
     89          1           0        3.180753    3.338554    1.475098
     90          1           0        1.874030    3.461259    0.058392
     91          1           0        3.421886    3.783272   -0.151794
     92          1           0       -2.910721   -2.804142   -0.348026
     93          1           0       -2.554195   -2.117922   -2.001515
     94          1           0       -1.084752   -2.643091   -0.886512
     95          1           0        2.281373   -0.226402   -0.682490
     96          1           0       -1.962485    1.064278    0.293137
     97          1           0        0.306194    1.852545    0.312189
     98          1           0        0.085086   -0.948398   -1.111644
 ---------------------------------------------------------------------

 SCF Done:  E(RCAM-B3LYP) =  -1706.86396675     A.U. after   14 cycles

 Excitation energies and oscillator strengths:

 Excited State   1:      Singlet-A      2.6412 eV  469.43 nm  f=3.6728  <S**2>=0.000
     155 ->158         0.18926
     156 ->157         0.67450
 This state for optimization and/or second-order correction.
 Total Energy, E(TD-HF/TD-DFT) =  -1706.76690614
 Copying the excited state density for this state as the 1-particle RhoCI density.

 The electronic state is 1-A.
 Alpha  occ. eigenvalues --  -19.21063 -19.20644 -10.29105 -10.28806 -10.28625
 Alpha  occ. eigenvalues --  -10.28085 -10.27878 -10.27531 -10.27413 -10.27363
 Alpha  occ. eigenvalues --  -10.27340 -10.27338 -10.27189 -10.27178 -10.26916
 Alpha  occ. eigenvalues --  -10.26907 -10.26789 -10.26709 -10.26568 -10.26530
 Alpha  occ. eigenvalues --  -10.26503 -10.26451 -10.26378 -10.26329 -10.26025
 Alpha  occ. eigenvalues --  -10.25928 -10.25781 -10.25680 -10.25627 -10.25625
 Alpha  occ. eigenvalues --  -10.25477 -10.25391 -10.25354 -10.25236 -10.25147
 Alpha  occ. eigenvalues --  -10.24976 -10.24972 -10.24687 -10.24232 -10.23245
 Alpha  occ. eigenvalues --  -10.22115 -10.21913  -1.13148  -1.09567  -0.94259
 Alpha  occ. eigenvalues --   -0.93335  -0.92711  -0.91560  -0.90332  -0.90000
 Alpha  occ. eigenvalues --   -0.87492  -0.86971  -0.86373  -0.86102  -0.85462
 Alpha  occ. eigenvalues --   -0.83749  -0.82527  -0.80390  -0.79972  -0.78331
 Alpha  occ. eigenvalues --   -0.77554  -0.76862  -0.76667  -0.76119  -0.75561
 Alpha  occ. eigenvalues --   -0.75305  -0.74698  -0.74037  -0.73631  -0.70850
 Alpha  occ. eigenvalues --   -0.69702  -0.68102  -0.66585  -0.65317  -0.64224
 Alpha  occ. eigenvalues --   -0.63505  -0.62486  -0.61257  -0.61161  -0.60017
 Alpha  occ. eigenvalues --   -0.59812  -0.59372  -0.58579  -0.57764  -0.56619
 Alpha  occ. eigenvalues --   -0.55922  -0.55450  -0.55390  -0.54258  -0.53926
 Alpha  occ. eigenvalues --   -0.53610  -0.53142  -0.52974  -0.52277  -0.52076
 Alpha  occ. eigenvalues --   -0.51359  -0.51144  -0.50601  -0.50240  -0.49658
 Alpha  occ. eigenvalues --   -0.49529  -0.49226  -0.48991  -0.48471  -0.48232
 Alpha  occ. eigenvalues --   -0.47934  -0.47358  -0.47277  -0.46687  -0.46280
 Alpha  occ. eigenvalues --   -0.46058  -0.45679  -0.45286  -0.44903  -0.44834
 Alpha  occ. eigenvalues --   -0.44286  -0.43922  -0.43514  -0.43277  -0.43156
 Alpha  occ. eigenvalues --   -0.42406  -0.42341  -0.42245  -0.41781  -0.41673
 Alpha  occ. eigenvalues --   -0.41410  -0.41165  -0.41133  -0.40628  -0.40593
 Alpha  occ. eigenvalues --   -0.40180  -0.40112  -0.39804  -0.39695  -0.39406
 Alpha  occ. eigenvalues --   -0.39295  -0.38677  -0.38224  -0.38103  -0.37764
 Alpha  occ. eigenvalues --   -0.37215  -0.37034  -0.36293  -0.36202  -0.35325
 Alpha  occ. eigenvalues --   -0.34890  -0.34218  -0.33688  -0.32366  -0.31815
 Alpha  occ. eigenvalues --   -0.30959  -0.30342  -0.28252  -0.26201  -0.23690
 Alpha  occ. eigenvalues --   -0.20575
 Alpha virt. eigenvalues --   -0.04422  -0.00867   0.02089   0.05738   0.08247
 Alpha virt. eigenvalues --    0.09985   0.10913   0.11476   0.11536   0.12365
 Alpha virt. eigenvalues --    0.12560   0.12940   0.13231   0.13620   0.13705

 Mulliken charges:
               1
     1  O   -0.568593
     2  O   -0.540935
     3  C   -0.068018
     4  C   -0.002978
     5  C   -0.209306
     6  C   -0.206762
     7  C    0.216517
     8  C    0.168043
     9  C    0.154370
    10  C    0.033668
    11  C   -0.240688
    12  C   -0.204465
    13  C    0.078653
    14  C    0.064721
    15  C   -0.271132
    16  C   -0.292186
    17  C   -0.277224
    18  C   -0.295781
    19  C   -0.139806
    20  C   -0.132264
    21  C   -0.372105
    22  C   -0.360069
    23  C   -0.127980
    24  C   -0.104285
    25  C    0.098500
    26  C    0.120359
    27  C   -0.381533
    28  C   -0.383078
    29  C   -0.132643
    30  C   -0.125115
    31  C   -0.097893
    32  C   -0.106205
    33  C   -0.058824
    34  C   -0.079480
    35  C    0.095189
    36  C    0.088520
    37  C   -0.395557
    38  C   -0.355088
    39  C   -0.131008
    40  C   -0.137306
    41  C   -0.083822
    42  C   -0.098640
    43  H    0.093277
    44  H    0.081775
    45  H    0.037641
    46  H    0.109524
    47  H    0.089031
    48  H    0.071455
    49  H    0.081902
    50  H    0.096911
    51  H    0.107556
    52  H    0.110913
    53  H    0.109428
    54  H    0.100232
    55  H    0.084349
    56  H    0.103639
    57  H    0.072556
    58  H    0.079670
    59  H    0.107315
    60  H    0.092572
    61  H    0.067121
    62  H    0.107538
    63  H    0.078265
    64  H    0.106982
    65  H    0.083618
    66  H    0.103785
    67  H    0.125678
    68  H    0.108911
    69  H    0.096984
    70  H    0.115633
    71  H    0.108028
    72  H    0.095974
    73  H    0.305943
    74  H    0.307450
    75  H    0.092452
    76  H    0.094800
    77  H    0.118218
    78  H    0.111259
    79  H    0.123401
    80  H    0.133058
    81  H    0.106146
    82  H    0.110548
    83  H    0.086528
    84  H    0.087247
    85  H    0.071518
    86  H    0.086260
    87  H    0.082599
    88  H    0.056744
    89  H    0.132394
    90  H    0.124571
    91  H    0.131188
    92  H    0.109733
    93  H    0.142509
    94  H    0.098635
    95  H    0.090664
    96  H    0.074262
    97  H    0.083000
    98  H    0.072837
 Sum of Mulliken charges =  -0.00000

 Dipole moment (field-independent basis, Debye):
    X=              0.0933    Y=             -0.4672    Z=              1.2324  Tot=              1.3213
 Quadrupole moment (field-independent basis, Debye-Ang):
   XX=           -290.4087   YY=           -240.6169   ZZ=           -260.8910
   XY=              8.2681   XZ=             10.9668   YZ=              2.2802

 Normal termination of Gaussian 16 at Wed Jun 26 15:19:06 2019.
