 Gaussian 16, Revision A.03,
 Gaussian 16:  ES64L-G16RevA.03 25-Dec-2016

 -------------------------------------
 # td=(NStates=1) CAM-B3LYP/6-31G(d,p)
 -------------------------------------

 --
 TD
 --
 Symbolic Z-matrix:
 Charge =  0 Multiplicity = 1

                         Standard orientation:
 ---------------------------------------------------------------------
 Center     Atomic      Atomic             Coordinates (Angstroms)
 Number     Number       Type             X           Y           Z
 ---------------------------------------------------------------------
      1          8           0       14.655633   -2.321040   -0.295687
      2          8           0      -14.736848    2.098749    0.725063
      3          6           0       11.351511   -1.243849    1.141751
      4          6           0      -12.390002   -1.007086    0.742407
      5          6           0       12.860402   -1.514944    1.054731
      6          6           0      -13.600578   -0.182841    0.735541
      7          6           0       13.346958   -1.886232   -0.310852
      8          6           0      -13.496281    1.339480    0.775411
      9          6           0       10.955972   -0.191028   -0.043315
     10          6           0      -11.368515   -0.371031   -0.234578
     11          6           0       13.135268   -0.682636   -1.251967
     12          6           0      -12.709187    1.754259   -0.412713
     13          6           0       11.730334   -0.145343   -1.170664
     14          6           0      -11.549838    0.836010   -0.723124
     15          6           0       11.194436   -0.434291    2.476894
     16          6           0       10.493196   -2.571452    1.129066
     17          6           0      -11.807651   -1.020600    2.191192
     18          6           0      -12.668706   -2.438093    0.396703
     19          6           0        9.670403    0.356328    0.145836
     20          6           0      -10.038831   -1.025327   -0.478784
     21          6           0       11.292006    0.754825   -2.391772
     22          6           0      -10.672934    1.350590   -1.705920
     23          6           0        9.410743    1.689749   -0.120136
     24          6           0       -8.853276   -0.455878   -0.231392
     25          6           0        8.150977    2.259076    0.032485
     26          6           0       -7.556946   -1.181067   -0.569523
     27          6           0        8.182234    3.760276    0.496018
     28          6           0       -7.650140   -2.614733   -0.874087
     29          6           0        6.985547    1.574272   -0.022233
     30          6           0       -6.402229   -0.551349   -0.391652
     31          6           0        5.601170    1.921740    0.173422
     32          6           0       -5.092816   -1.011171   -0.636693
     33          6           0        4.491807    1.106068    0.040457
     34          6           0       -4.042141   -0.242789   -0.420830
     35          6           0        3.108279    1.570882    0.218448
     36          6           0       -2.719044   -0.685085   -0.547319
     37          6           0        2.784177    2.877438    0.831707
     38          6           0       -2.435040   -2.106171   -0.848572
     39          6           0        2.006813    0.713368   -0.049958
     40          6           0       -1.657117    0.163911   -0.218769
     41          6           0        0.626773    0.913786   -0.027519
     42          6           0       -0.279588   -0.064786   -0.221362
     43          1           0       13.514406   -0.727247    1.277123
     44          1           0       13.399182   -2.144879    1.800391
     45          1           0      -14.351510   -0.492349    1.441373
     46          1           0      -14.238696   -0.321552   -0.090162
     47          1           0       12.773781   -2.737497   -0.823235
     48          1           0      -13.023446    1.585344    1.799717
     49          1           0       14.103064   -0.075635   -0.956770
     50          1           0       13.212893   -1.025712   -2.293359
     51          1           0      -13.333042    1.914168   -1.396652
     52          1           0      -12.221540    2.819688   -0.386666
     53          1           0       11.714094   -1.038625    3.237203
     54          1           0       10.344076   -0.315384    2.641780
     55          1           0       11.719745    0.530238    2.514546
     56          1           0       10.588126   -3.046396    0.131921
     57          1           0       10.779194   -3.096525    2.025152
     58          1           0        9.489537   -2.267649    1.251204
     59          1           0      -11.620604    0.040198    2.472493
     60          1           0      -10.689938   -1.548957    2.076585
     61          1           0      -12.413887   -1.661162    2.766617
     62          1           0      -13.389847   -2.927524    1.173628
     63          1           0      -11.737232   -3.084210    0.363886
     64          1           0      -13.150444   -2.883706   -0.580103
     65          1           0        8.853389   -0.344675    0.621398
     66          1           0      -10.184260   -2.226080   -0.470112
     67          1           0       10.191980    0.900653   -2.334757
     68          1           0       11.865611    1.674055   -2.277416
     69          1           0       11.573367    0.135867   -3.286938
     70          1           0      -11.303683    2.039244   -2.522882
     71          1           0      -10.196552    0.467900   -2.261333
     72          1           0       -9.954126    2.244252   -1.402702
     73          1           0       14.867628   -2.913010    0.463453
     74          1           0      -15.340232    1.729499    1.354097
     75          1           0       10.379469    2.362559   -0.342028
     76          1           0       -8.739396    0.478135   -0.044915
     77          1           0        8.546531    4.268948   -0.583997
     78          1           0        7.255615    4.070151    1.238875
     79          1           0        9.247782    3.842143    1.112498
     80          1           0       -8.227240   -3.050363   -0.091368
     81          1           0       -8.273378   -2.861395   -1.883348
     82          1           0       -6.678826   -3.132561   -0.868828
     83          1           0        7.040147    0.518008   -0.349124
     84          1           0       -6.476269    0.619378   -0.011503
     85          1           0        5.455390    2.999671    0.550700
     86          1           0       -4.895614   -2.142096   -0.930520
     87          1           0        4.474811    0.109357   -0.463112
     88          1           0       -4.068001    0.779493   -0.221211
     89          1           0        2.985152    3.080346    1.843875
     90          1           0        1.668314    2.885360    0.920800
     91          1           0        3.276478    3.586992    0.210955
     92          1           0       -2.641734   -2.984851   -0.115285
     93          1           0       -3.246700   -2.451757   -1.681282
     94          1           0       -1.378404   -2.261357   -1.259954
     95          1           0        2.385956   -0.337495   -0.360211
     96          1           0       -1.986911    1.313292   -0.011323
     97          1           0        0.238185    2.068579    0.035093
     98          1           0        0.138456   -1.070197   -0.529282
 ---------------------------------------------------------------------

 SCF Done:  E(RCAM-B3LYP) =  -1706.95755923     A.U. after   14 cycles

 Excitation energies and oscillator strengths:

 Excited State   1:      Singlet-A      2.3982 eV  516.98 nm  f=3.6985  <S**2>=0.000
     155 ->158        -0.16120
     156 ->157         0.68459
 This state for optimization and/or second-order correction.
 Total Energy, E(TD-HF/TD-DFT) =  -1706.86942596
 Copying the excited state density for this state as the 1-particle RhoCI density.

 The electronic state is 1-A.
 Alpha  occ. eigenvalues --  -19.21108 -19.20875 -10.31081 -10.30047 -10.29788
 Alpha  occ. eigenvalues --  -10.28060 -10.27960 -10.27805 -10.27727 -10.27621
 Alpha  occ. eigenvalues --  -10.27568 -10.27499 -10.27398 -10.27371 -10.27336
 Alpha  occ. eigenvalues --  -10.27331 -10.27299 -10.27065 -10.26928 -10.26835
 Alpha  occ. eigenvalues --  -10.26730 -10.26716 -10.26564 -10.26555 -10.26450
 Alpha  occ. eigenvalues --  -10.26231 -10.26119 -10.26068 -10.25964 -10.25953
 Alpha  occ. eigenvalues --  -10.25856 -10.25790 -10.25492 -10.25314 -10.25206
 Alpha  occ. eigenvalues --  -10.25079 -10.25038 -10.24966 -10.24456 -10.24223
 Alpha  occ. eigenvalues --  -10.24072 -10.22331  -1.10025  -1.08870  -0.94691
 Alpha  occ. eigenvalues --   -0.93147  -0.92771  -0.91544  -0.90914  -0.90245
 Alpha  occ. eigenvalues --   -0.88479  -0.87744  -0.86489  -0.85671  -0.85106
 Alpha  occ. eigenvalues --   -0.83494  -0.82405  -0.80385  -0.79646  -0.77981
 Alpha  occ. eigenvalues --   -0.77548  -0.76288  -0.76030  -0.75988  -0.75965
 Alpha  occ. eigenvalues --   -0.75229  -0.75100  -0.74894  -0.73369  -0.70566
 Alpha  occ. eigenvalues --   -0.68957  -0.67682  -0.65907  -0.64803  -0.63916
 Alpha  occ. eigenvalues --   -0.63715  -0.63127  -0.61072  -0.59925  -0.59755
 Alpha  occ. eigenvalues --   -0.58934  -0.58363  -0.58089  -0.57463  -0.56454
 Alpha  occ. eigenvalues --   -0.55976  -0.55650  -0.55003  -0.54365  -0.53891
 Alpha  occ. eigenvalues --   -0.53209  -0.52812  -0.51944  -0.51698  -0.51487
 Alpha  occ. eigenvalues --   -0.50973  -0.50295  -0.49723  -0.49295  -0.49077
 Alpha  occ. eigenvalues --   -0.48799  -0.48586  -0.48192  -0.47799  -0.47640
 Alpha  occ. eigenvalues --   -0.47382  -0.47266  -0.46986  -0.46750  -0.46550
 Alpha  occ. eigenvalues --   -0.46438  -0.46342  -0.45704  -0.45243  -0.44849
 Alpha  occ. eigenvalues --   -0.44403  -0.44024  -0.43768  -0.43414  -0.43322
 Alpha  occ. eigenvalues --   -0.43033  -0.42374  -0.42251  -0.42192  -0.42045
 Alpha  occ. eigenvalues --   -0.41664  -0.41337  -0.41083  -0.40836  -0.40757
 Alpha  occ. eigenvalues --   -0.40166  -0.40041  -0.39960  -0.39685  -0.39348
 Alpha  occ. eigenvalues --   -0.39097  -0.38783  -0.38684  -0.38369  -0.38205
 Alpha  occ. eigenvalues --   -0.37964  -0.37501  -0.36631  -0.36518  -0.36153
 Alpha  occ. eigenvalues --   -0.34746  -0.34377  -0.33390  -0.32474  -0.32188
 Alpha  occ. eigenvalues --   -0.31204  -0.30138  -0.28369  -0.26399  -0.24113
 Alpha  occ. eigenvalues --   -0.20141
 Alpha virt. eigenvalues --   -0.05441  -0.01066   0.02139   0.05282   0.07900
 Alpha virt. eigenvalues --    0.09631   0.10424   0.10939   0.11180   0.11747
 Alpha virt. eigenvalues --    0.12102   0.12347   0.12528   0.13040   0.13141

 Mulliken charges:
               1
     1  O   -0.574721
     2  O   -0.563647
     3  C   -0.031028
     4  C    0.003584
     5  C   -0.194872
     6  C   -0.205397
     7  C    0.189628
     8  C    0.170839
     9  C    0.060276
    10  C    0.068767
    11  C   -0.203810
    12  C   -0.214307
    13  C    0.013473
    14  C    0.109273
    15  C   -0.269555
    16  C   -0.302630
    17  C   -0.276571
    18  C   -0.313295
    19  C   -0.112746
    20  C   -0.185858
    21  C   -0.349034
    22  C   -0.382188
    23  C   -0.128389
    24  C   -0.017868
    25  C    0.105842
    26  C    0.111839
    27  C   -0.349295
    28  C   -0.370357
    29  C   -0.120744
    30  C   -0.129155
    31  C   -0.091356
    32  C   -0.098041
    33  C   -0.107714
    34  C   -0.060898
    35  C    0.095995
    36  C    0.129487
    37  C   -0.364773
    38  C   -0.377925
    39  C   -0.140616
    40  C   -0.140123
    41  C   -0.074788
    42  C   -0.078704
    43  H    0.104524
    44  H    0.058982
    45  H    0.072676
    46  H    0.110557
    47  H    0.053131
    48  H    0.071545
    49  H    0.107242
    50  H    0.101359
    51  H    0.118235
    52  H    0.097398
    53  H    0.085286
    54  H    0.092458
    55  H    0.103416
    56  H    0.117275
    57  H    0.111678
    58  H    0.104514
    59  H    0.107723
    60  H    0.078249
    61  H    0.110352
    62  H    0.086193
    63  H    0.097222
    64  H    0.097912
    65  H    0.099685
    66  H    0.068930
    67  H    0.124744
    68  H    0.123110
    69  H    0.100541
    70  H    0.067020
    71  H    0.127476
    72  H    0.100028
    73  H    0.308917
    74  H    0.300193
    75  H    0.097517
    76  H    0.072426
    77  H    0.111779
    78  H    0.119359
    79  H    0.097479
    80  H    0.128752
    81  H    0.100276
    82  H    0.104389
    83  H    0.071492
    84  H    0.064175
    85  H    0.073214
    86  H    0.082228
    87  H    0.085406
    88  H    0.077656
    89  H    0.129518
    90  H    0.097906
    91  H    0.120641
    92  H    0.119221
    93  H    0.089975
    94  H    0.106067
    95  H    0.067194
    96  H    0.065052
    97  H    0.090385
    98  H    0.090725
 Sum of Mulliken charges =  -0.00000

 Dipole moment (field-independent basis, Debye):
    X=              0.5047    Y=             -1.5339    Z=              2.3482  Tot=              2.8499
 Quadrupole moment (field-independent basis, Debye-Ang):
   XX=           -262.5736   YY=           -250.0164   ZZ=           -263.7548
   XY=             20.8831   XZ=              3.7702   YZ=              0.4032

 Normal termination of Gaussian 16 at Sun Jun 30 09:24:11 2019.
