 Gaussian 16, Revision A.03,
 Gaussian 16:  ES64L-G16RevA.03 25-Dec-2016

 -------------------------------------
 # td=(NStates=1) CAM-B3LYP/6-31G(d,p)
 -------------------------------------

 --
 TD
 --
 Symbolic Z-matrix:
 Charge =  0 Multiplicity = 1

                         Standard orientation:
 ---------------------------------------------------------------------
 Center     Atomic      Atomic             Coordinates (Angstroms)
 Number     Number       Type             X           Y           Z
 ---------------------------------------------------------------------
      1          8           0       14.688098   -2.348422   -0.319529
      2          8           0      -14.772861    1.952409    0.856163
      3          6           0       11.440162   -1.002309    1.244111
      4          6           0      -12.367718   -0.902349    0.778218
      5          6           0       12.876415   -1.422729    1.108635
      6          6           0      -13.658899   -0.111899    0.972428
      7          6           0       13.356683   -1.958054   -0.241470
      8          6           0      -13.464972    1.358997    0.748672
      9          6           0       10.914516   -0.318718    0.034195
     10          6           0      -11.323625   -0.197491   -0.146562
     11          6           0       13.067789   -0.867624   -1.249289
     12          6           0      -12.958346    1.768714   -0.571109
     13          6           0       11.691292   -0.211177   -1.059778
     14          6           0      -11.609623    1.012496   -0.819252
     15          6           0       11.360933   -0.121307    2.490162
     16          6           0       10.620587   -2.277313    1.369166
     17          6           0      -11.732772   -0.829124    2.290146
     18          6           0      -12.633340   -2.321638    0.333829
     19          6           0        9.613631    0.482351    0.152731
     20          6           0      -10.120915   -1.094969   -0.362091
     21          6           0       11.100203    0.370141   -2.435251
     22          6           0      -10.745586    1.618987   -1.877982
     23          6           0        9.340725    1.673832   -0.114417
     24          6           0       -8.884886   -0.604263   -0.242602
     25          6           0        8.035966    2.347582    0.192396
     26          6           0       -7.642684   -1.356988   -0.508258
     27          6           0        8.190108    3.788362    0.437671
     28          6           0       -7.774976   -2.851500   -0.755349
     29          6           0        6.947932    1.602066   -0.027067
     30          6           0       -6.393478   -0.757169   -0.367869
     31          6           0        5.607288    2.047226    0.179920
     32          6           0       -5.043447   -1.176742   -0.609401
     33          6           0        4.537510    1.252400   -0.039566
     34          6           0       -3.920638   -0.392366   -0.432474
     35          6           0        3.171453    1.610248    0.133224
     36          6           0       -2.548721   -0.876834   -0.582753
     37          6           0        2.829285    2.994594    0.540455
     38          6           0       -2.367114   -2.409821   -0.739852
     39          6           0        2.115853    0.747595   -0.188025
     40          6           0       -1.585518    0.040015   -0.428060
     41          6           0        0.676683    0.910846   -0.330658
     42          6           0       -0.183639   -0.167713   -0.356967
     43          1           0       13.524948   -0.622196    1.309355
     44          1           0       13.092968   -2.175641    1.723417
     45          1           0      -14.261268   -0.416593    1.918453
     46          1           0      -14.287866   -0.394321   -0.003040
     47          1           0       12.717742   -2.824493   -0.751765
     48          1           0      -12.794906    1.831083    1.601331
     49          1           0       13.795932   -0.130443   -1.290633
     50          1           0       13.293037   -1.269103   -2.329819
     51          1           0      -13.677124    1.600607   -1.324314
     52          1           0      -12.640884    2.791754   -0.686644
     53          1           0       11.835474   -0.818512    3.297454
     54          1           0       10.296773    0.041638    2.906036
     55          1           0       11.965238    0.646381    2.404051
     56          1           0       10.828757   -3.022587    0.571002
     57          1           0       10.688392   -2.895758    2.351231
     58          1           0        9.593855   -2.140537    1.482782
     59          1           0      -11.859747    0.265194    2.772326
     60          1           0      -10.456157   -1.127376    2.499911
     61          1           0      -12.448479   -1.463916    2.825829
     62          1           0      -13.521085   -2.885369    0.743334
     63          1           0      -11.871796   -3.022610    0.426044
     64          1           0      -12.954523   -2.497477   -0.781309
     65          1           0        8.922634   -0.325074    0.525013
     66          1           0      -10.190440   -2.082519   -0.787772
     67          1           0        9.999587    0.585573   -2.375481
     68          1           0       11.684318    1.347497   -2.747129
     69          1           0       11.388108   -0.211425   -3.384349
     70          1           0      -11.375848    1.875902   -2.855138
     71          1           0       -9.845236    1.043652   -2.105415
     72          1           0      -10.294244    2.575754   -1.272494
     73          1           0       14.794228   -2.985236    0.437344
     74          1           0      -14.934403    1.661351    1.662764
     75          1           0       10.047918    2.409811   -0.560952
     76          1           0       -8.733949    0.401778    0.152943
     77          1           0        8.707568    4.263375   -0.409729
     78          1           0        7.253036    4.363977    0.519561
     79          1           0        8.690352    4.032646    1.432241
     80          1           0       -8.271915   -3.371782    0.051735
     81          1           0       -8.237617   -3.016671   -1.589596
     82          1           0       -6.841371   -3.529160   -0.657146
     83          1           0        7.058989    0.669852   -0.174641
     84          1           0       -6.385842    0.307614   -0.299006
     85          1           0        5.274396    3.111268    0.349459
     86          1           0       -4.889302   -2.229544   -0.846107
     87          1           0        4.853780    0.191035   -0.363868
     88          1           0       -4.131862    0.638335   -0.012652
     89          1           0        3.149597    3.373741    1.559997
     90          1           0        1.769094    3.143742    0.544571
     91          1           0        3.113454    3.777167   -0.151443
     92          1           0       -2.913603   -2.967459    0.026374
     93          1           0       -2.544889   -2.814055   -1.672349
     94          1           0       -1.266238   -2.615507   -0.617214
     95          1           0        2.420187   -0.369036   -0.299107
     96          1           0       -2.149633    1.122808   -0.280768
     97          1           0        0.382539    1.911966   -0.167248
     98          1           0        0.110725   -0.971141   -0.709648
 ---------------------------------------------------------------------

 SCF Done:  E(RCAM-B3LYP) =  -1706.99394379     A.U. after   14 cycles

 Excitation energies and oscillator strengths:

 Excited State   1:      Singlet-A      2.6889 eV  461.10 nm  f=3.6015  <S**2>=0.000
     155 ->158         0.15601
     156 ->157         0.68690
 This state for optimization and/or second-order correction.
 Total Energy, E(TD-HF/TD-DFT) =  -1706.89512849
 Copying the excited state density for this state as the 1-particle RhoCI density.

 The electronic state is 1-A.
 Alpha  occ. eigenvalues --  -19.22173 -19.19706 -10.30843 -10.30668 -10.28526
 Alpha  occ. eigenvalues --  -10.27747 -10.27714 -10.27661 -10.27539 -10.27351
 Alpha  occ. eigenvalues --  -10.27148 -10.27031 -10.27022 -10.26999 -10.26932
 Alpha  occ. eigenvalues --  -10.26869 -10.26831 -10.26819 -10.26818 -10.26756
 Alpha  occ. eigenvalues --  -10.26256 -10.26233 -10.26068 -10.25993 -10.25923
 Alpha  occ. eigenvalues --  -10.25903 -10.25804 -10.25734 -10.25724 -10.25623
 Alpha  occ. eigenvalues --  -10.25572 -10.25407 -10.25350 -10.25336 -10.25273
 Alpha  occ. eigenvalues --  -10.25009 -10.24852 -10.24742 -10.24734 -10.24611
 Alpha  occ. eigenvalues --  -10.24171 -10.23745  -1.11621  -1.10626  -0.94388
 Alpha  occ. eigenvalues --   -0.92782  -0.92344  -0.91752  -0.90560  -0.89852
 Alpha  occ. eigenvalues --   -0.87517  -0.86549  -0.86340  -0.85594  -0.84828
 Alpha  occ. eigenvalues --   -0.83316  -0.82255  -0.80491  -0.79985  -0.78332
 Alpha  occ. eigenvalues --   -0.77265  -0.77109  -0.76892  -0.76602  -0.75930
 Alpha  occ. eigenvalues --   -0.75269  -0.74803  -0.74094  -0.73382  -0.70849
 Alpha  occ. eigenvalues --   -0.68287  -0.67283  -0.65653  -0.65191  -0.64580
 Alpha  occ. eigenvalues --   -0.63696  -0.63126  -0.61813  -0.61126  -0.60362
 Alpha  occ. eigenvalues --   -0.59790  -0.58592  -0.58176  -0.57625  -0.56391
 Alpha  occ. eigenvalues --   -0.55998  -0.55539  -0.54920  -0.54472  -0.54251
 Alpha  occ. eigenvalues --   -0.53088  -0.52737  -0.52468  -0.51679  -0.51102
 Alpha  occ. eigenvalues --   -0.50603  -0.50446  -0.50162  -0.49885  -0.49402
 Alpha  occ. eigenvalues --   -0.49311  -0.49167  -0.48765  -0.48349  -0.48246
 Alpha  occ. eigenvalues --   -0.48014  -0.47764  -0.47098  -0.46761  -0.46293
 Alpha  occ. eigenvalues --   -0.46148  -0.45740  -0.45191  -0.44497  -0.44413
 Alpha  occ. eigenvalues --   -0.44343  -0.44001  -0.43871  -0.43698  -0.43118
 Alpha  occ. eigenvalues --   -0.42773  -0.42738  -0.42599  -0.42302  -0.41826
 Alpha  occ. eigenvalues --   -0.41525  -0.41462  -0.41191  -0.41047  -0.40635
 Alpha  occ. eigenvalues --   -0.40387  -0.39981  -0.39838  -0.39737  -0.39423
 Alpha  occ. eigenvalues --   -0.39383  -0.39232  -0.39153  -0.38976  -0.38645
 Alpha  occ. eigenvalues --   -0.38530  -0.37879  -0.36488  -0.36236  -0.35471
 Alpha  occ. eigenvalues --   -0.35159  -0.34530  -0.34216  -0.32365  -0.32074
 Alpha  occ. eigenvalues --   -0.32011  -0.29506  -0.27897  -0.26950  -0.24206
 Alpha  occ. eigenvalues --   -0.20727
 Alpha virt. eigenvalues --   -0.04595   0.00068   0.03628   0.06199   0.07417
 Alpha virt. eigenvalues --    0.09614   0.11156   0.11700   0.11795   0.12362
 Alpha virt. eigenvalues --    0.13330   0.13478   0.13552   0.13918   0.14220

 Mulliken charges:
               1
     1  O   -0.547309
     2  O   -0.526981
     3  C   -0.010966
     4  C    0.019430
     5  C   -0.186168
     6  C   -0.204783
     7  C    0.166120
     8  C    0.143951
     9  C    0.041009
    10  C    0.027446
    11  C   -0.230592
    12  C   -0.194017
    13  C    0.045626
    14  C    0.034133
    15  C   -0.289142
    16  C   -0.317543
    17  C   -0.288221
    18  C   -0.328391
    19  C   -0.088820
    20  C   -0.123737
    21  C   -0.359464
    22  C   -0.348311
    23  C   -0.099551
    24  C   -0.084318
    25  C    0.079356
    26  C    0.087950
    27  C   -0.384942
    28  C   -0.380412
    29  C   -0.065980
    30  C   -0.138987
    31  C   -0.079073
    32  C   -0.081211
    33  C   -0.112816
    34  C   -0.126653
    35  C    0.120049
    36  C    0.116895
    37  C   -0.396038
    38  C   -0.377375
    39  C   -0.145879
    40  C   -0.123172
    41  C   -0.065186
    42  C   -0.066164
    43  H    0.107988
    44  H    0.084980
    45  H    0.090714
    46  H    0.093132
    47  H    0.058183
    48  H    0.068453
    49  H    0.120067
    50  H    0.088934
    51  H    0.127798
    52  H    0.116314
    53  H    0.081323
    54  H    0.101761
    55  H    0.118414
    56  H    0.112592
    57  H    0.077045
    58  H    0.109050
    59  H    0.085350
    60  H    0.075133
    61  H    0.100824
    62  H    0.097352
    63  H    0.119700
    64  H    0.093779
    65  H    0.085095
    66  H    0.099445
    67  H    0.118743
    68  H    0.086506
    69  H    0.103149
    70  H    0.105590
    71  H    0.127075
    72  H    0.092683
    73  H    0.308487
    74  H    0.284484
    75  H    0.094213
    76  H    0.087860
    77  H    0.124765
    78  H    0.112272
    79  H    0.121226
    80  H    0.121419
    81  H    0.133397
    82  H    0.098869
    83  H    0.064070
    84  H    0.069394
    85  H    0.079402
    86  H    0.074958
    87  H    0.071873
    88  H    0.084299
    89  H    0.118124
    90  H    0.108124
    91  H    0.122602
    92  H    0.128369
    93  H    0.136408
    94  H    0.098927
    95  H    0.065705
    96  H    0.070835
    97  H    0.083245
    98  H    0.079736
 Sum of Mulliken charges =  -0.00000

 Dipole moment (field-independent basis, Debye):
    X=              0.7836    Y=             -1.2591    Z=              1.7063  Tot=              2.2607
 Quadrupole moment (field-independent basis, Debye-Ang):
   XX=           -286.9475   YY=           -241.5445   ZZ=           -260.1741
   XY=             20.8594   XZ=             10.8074   YZ=             -0.3964

 Normal termination of Gaussian 16 at Sun Jun 30 04:36:35 2019.
