 Gaussian 16, Revision A.03,
 Gaussian 16:  ES64L-G16RevA.03 25-Dec-2016

 -------------------------------------
 # td=(NStates=1) CAM-B3LYP/6-31G(d,p)
 -------------------------------------

 --
 TD
 --
 Symbolic Z-matrix:
 Charge =  0 Multiplicity = 1

                         Standard orientation:
 ---------------------------------------------------------------------
 Center     Atomic      Atomic             Coordinates (Angstroms)
 Number     Number       Type             X           Y           Z
 ---------------------------------------------------------------------
      1          8           0       14.757479   -2.274664   -0.444196
      2          8           0      -14.786712    2.031109    0.598431
      3          6           0       11.443961   -1.254006    1.081711
      4          6           0      -12.376281   -0.984185    0.616243
      5          6           0       12.974076   -1.548692    0.981473
      6          6           0      -13.798501   -0.216601    0.487236
      7          6           0       13.387615   -1.885177   -0.284725
      8          6           0      -13.549618    1.297228    0.708787
      9          6           0       10.989858   -0.270619   -0.112967
     10          6           0      -11.333318   -0.301042   -0.206791
     11          6           0       13.131841   -0.710221   -1.222591
     12          6           0      -12.660053    1.840472   -0.489596
     13          6           0       11.764441   -0.098457   -1.142767
     14          6           0      -11.520687    0.993912   -0.865733
     15          6           0       11.083149   -0.461217    2.467855
     16          6           0       10.695778   -2.552717    1.104775
     17          6           0      -11.956382   -0.942163    2.065474
     18          6           0      -12.615275   -2.491793    0.229325
     19          6           0        9.656829    0.351581    0.092223
     20          6           0      -10.093316   -1.078945   -0.343111
     21          6           0       11.465022    0.827538   -2.334072
     22          6           0      -10.544295    1.672021   -1.672945
     23          6           0        9.348425    1.592742   -0.226235
     24          6           0       -8.814715   -0.660691   -0.312458
     25          6           0        8.031438    2.175083    0.158965
     26          6           0       -7.614267   -1.428427   -0.421175
     27          6           0        8.153547    3.697734    0.649183
     28          6           0       -7.734095   -2.850293   -0.862007
     29          6           0        6.902996    1.562512   -0.158540
     30          6           0       -6.445902   -0.737239   -0.211245
     31          6           0        5.481472    2.006824    0.234990
     32          6           0       -5.109129   -1.209092   -0.331861
     33          6           0        4.434498    1.294659   -0.017687
     34          6           0       -3.958708   -0.379123   -0.157506
     35          6           0        3.061572    1.731270    0.250058
     36          6           0       -2.616119   -0.822742   -0.357196
     37          6           0        2.827682    3.156939    0.648546
     38          6           0       -2.305931   -2.112355   -0.862783
     39          6           0        2.075003    0.759656   -0.066525
     40          6           0       -1.720316    0.134737    0.061535
     41          6           0        0.611403    0.892138    0.105473
     42          6           0       -0.266770   -0.113378   -0.147516
     43          1           0       13.325254   -0.324944    1.248479
     44          1           0       13.371963   -2.178446    1.660416
     45          1           0      -14.491981   -0.618468    1.341716
     46          1           0      -14.243519   -0.381432   -0.391840
     47          1           0       12.647408   -2.723863   -0.403243
     48          1           0      -13.123218    1.493269    1.805680
     49          1           0       13.986363   -0.314085   -1.014664
     50          1           0       13.366396   -1.001597   -2.233005
     51          1           0      -13.348203    1.958694   -1.344671
     52          1           0      -12.515812    2.908353   -0.385995
     53          1           0       11.598252   -1.159526    3.204100
     54          1           0       10.061501   -0.503943    2.852745
     55          1           0       11.524222    0.483481    2.403448
     56          1           0       10.915018   -3.126908    0.298536
     57          1           0       10.736214   -3.069559    2.079237
     58          1           0        9.494116   -2.453736    0.894980
     59          1           0      -11.747504    0.132716    2.336732
     60          1           0      -11.031293   -1.566938    2.165600
     61          1           0      -12.585755   -1.332549    2.704337
     62          1           0      -13.420723   -2.857632    0.717193
     63          1           0      -11.794810   -3.075626    0.468535
     64          1           0      -12.880425   -2.364644   -0.731458
     65          1           0        8.830178   -0.302643    0.348992
     66          1           0      -10.084505   -2.036437   -0.740501
     67          1           0       10.370436    0.967368   -2.164215
     68          1           0       12.265462    1.631382   -2.448847
     69          1           0       11.551917    0.307229   -3.296572
     70          1           0      -11.008110    2.266459   -2.422464
     71          1           0       -9.919811    0.933766   -2.163471
     72          1           0       -9.970121    2.418539   -1.155365
     73          1           0       14.800582   -3.016125   -0.100767
     74          1           0      -15.310572    1.969525    1.261502
     75          1           0       10.015321    2.346685   -0.531221
     76          1           0       -8.563820    0.213640    0.390898
     77          1           0        8.645786    4.254115   -0.134345
     78          1           0        7.138287    4.176127    0.739436
     79          1           0        8.595734    3.797759    1.657724
     80          1           0       -8.512736   -3.342529   -0.277021
     81          1           0       -8.200300   -2.767340   -1.874490
     82          1           0       -6.785745   -3.368806   -1.023872
     83          1           0        6.977526    0.602578   -0.707191
     84          1           0       -6.525617    0.449709    0.039472
     85          1           0        5.543451    3.059999    0.351173
     86          1           0       -5.088215   -2.341728   -0.263874
     87          1           0        4.641324    0.210934   -0.262332
     88          1           0       -4.076127    0.811674   -0.164796
     89          1           0        3.366875    3.534675    1.625320
     90          1           0        1.647002    3.334047    0.817202
     91          1           0        3.012877    3.931989   -0.247485
     92          1           0       -2.603077   -2.833076   -0.061869
     93          1           0       -2.827957   -2.200572   -1.704264
     94          1           0       -1.404721   -2.139529   -1.215206
     95          1           0        2.606374   -0.094691   -0.216157
     96          1           0       -1.989082    1.321920    0.253592
     97          1           0        0.282133    1.715760    0.605494
     98          1           0        0.048088   -1.053799   -0.640132
 ---------------------------------------------------------------------

 SCF Done:  E(RCAM-B3LYP) =  -1706.91802381     A.U. after   14 cycles

 Excitation energies and oscillator strengths:

 Excited State   1:      Singlet-A      2.7959 eV  443.45 nm  f=3.3513  <S**2>=0.000
     155 ->158        -0.15945
     156 ->157         0.68409
 This state for optimization and/or second-order correction.
 Total Energy, E(TD-HF/TD-DFT) =  -1706.81527628
 Copying the excited state density for this state as the 1-particle RhoCI density.

 The electronic state is 1-A.
 Alpha  occ. eigenvalues --  -19.20560 -19.19207 -10.31721 -10.29447 -10.28384
 Alpha  occ. eigenvalues --  -10.28361 -10.27792 -10.27726 -10.27707 -10.27031
 Alpha  occ. eigenvalues --  -10.26949 -10.26866 -10.26857 -10.26832 -10.26757
 Alpha  occ. eigenvalues --  -10.26755 -10.26688 -10.26474 -10.26386 -10.26047
 Alpha  occ. eigenvalues --  -10.26015 -10.25998 -10.25914 -10.25795 -10.25717
 Alpha  occ. eigenvalues --  -10.25653 -10.25547 -10.25301 -10.25286 -10.25134
 Alpha  occ. eigenvalues --  -10.25121 -10.25091 -10.25041 -10.24935 -10.24729
 Alpha  occ. eigenvalues --  -10.24711 -10.24682 -10.23725 -10.23407 -10.22949
 Alpha  occ. eigenvalues --  -10.22859 -10.22097  -1.13495  -1.10352  -0.94291
 Alpha  occ. eigenvalues --   -0.92933  -0.92656  -0.91224  -0.90805  -0.89950
 Alpha  occ. eigenvalues --   -0.87420  -0.87336  -0.86605  -0.85847  -0.84947
 Alpha  occ. eigenvalues --   -0.82878  -0.82428  -0.80486  -0.80444  -0.78742
 Alpha  occ. eigenvalues --   -0.77254  -0.76896  -0.76836  -0.76306  -0.75852
 Alpha  occ. eigenvalues --   -0.75841  -0.75427  -0.75317  -0.73867  -0.70589
 Alpha  occ. eigenvalues --   -0.68787  -0.67555  -0.65927  -0.65263  -0.63987
 Alpha  occ. eigenvalues --   -0.63538  -0.62750  -0.61189  -0.60950  -0.59962
 Alpha  occ. eigenvalues --   -0.59219  -0.58399  -0.58032  -0.57168  -0.56363
 Alpha  occ. eigenvalues --   -0.56162  -0.55404  -0.54963  -0.54525  -0.53768
 Alpha  occ. eigenvalues --   -0.53045  -0.52860  -0.52005  -0.51898  -0.51531
 Alpha  occ. eigenvalues --   -0.51312  -0.51035  -0.50357  -0.49857  -0.49470
 Alpha  occ. eigenvalues --   -0.49231  -0.48951  -0.48730  -0.48548  -0.48264
 Alpha  occ. eigenvalues --   -0.48184  -0.47879  -0.47568  -0.47466  -0.47110
 Alpha  occ. eigenvalues --   -0.46320  -0.45961  -0.45890  -0.45665  -0.44940
 Alpha  occ. eigenvalues --   -0.44269  -0.44257  -0.44074  -0.43866  -0.43401
 Alpha  occ. eigenvalues --   -0.43273  -0.42954  -0.42799  -0.42496  -0.42320
 Alpha  occ. eigenvalues --   -0.41815  -0.41764  -0.41231  -0.40940  -0.40812
 Alpha  occ. eigenvalues --   -0.40592  -0.40281  -0.40223  -0.39579  -0.39247
 Alpha  occ. eigenvalues --   -0.39129  -0.38784  -0.38385  -0.37874  -0.37611
 Alpha  occ. eigenvalues --   -0.37305  -0.36818  -0.36173  -0.35874  -0.35275
 Alpha  occ. eigenvalues --   -0.34663  -0.34353  -0.33928  -0.32822  -0.31883
 Alpha  occ. eigenvalues --   -0.31359  -0.29915  -0.27626  -0.26061  -0.24033
 Alpha  occ. eigenvalues --   -0.20720
 Alpha virt. eigenvalues --   -0.03950   0.00262   0.03152   0.05166   0.07862
 Alpha virt. eigenvalues --    0.09528   0.11177   0.11256   0.12170   0.12722
 Alpha virt. eigenvalues --    0.13161   0.13420   0.13675   0.14032   0.14109

 Mulliken charges:
               1
     1  O   -0.518782
     2  O   -0.546997
     3  C   -0.022799
     4  C   -0.063009
     5  C   -0.135835
     6  C   -0.167339
     7  C    0.137196
     8  C    0.155745
     9  C    0.050680
    10  C    0.054278
    11  C   -0.208899
    12  C   -0.241023
    13  C    0.051580
    14  C    0.083380
    15  C   -0.305039
    16  C   -0.300728
    17  C   -0.279701
    18  C   -0.296580
    19  C   -0.109036
    20  C   -0.148235
    21  C   -0.365513
    22  C   -0.367184
    23  C   -0.098783
    24  C   -0.099991
    25  C    0.050428
    26  C    0.113328
    27  C   -0.373721
    28  C   -0.382929
    29  C   -0.131391
    30  C   -0.121899
    31  C   -0.088033
    32  C   -0.121179
    33  C   -0.099545
    34  C   -0.116349
    35  C    0.104802
    36  C    0.092878
    37  C   -0.369095
    38  C   -0.333859
    39  C   -0.110875
    40  C   -0.129440
    41  C   -0.091107
    42  C   -0.083752
    43  H    0.041004
    44  H    0.081961
    45  H    0.063486
    46  H    0.106684
    47  H    0.060137
    48  H    0.068861
    49  H    0.131424
    50  H    0.095077
    51  H    0.122123
    52  H    0.116640
    53  H    0.084711
    54  H    0.113101
    55  H    0.117011
    56  H    0.118048
    57  H    0.104870
    58  H    0.070609
    59  H    0.092038
    60  H    0.092117
    61  H    0.104072
    62  H    0.104468
    63  H    0.102318
    64  H    0.111770
    65  H    0.096830
    66  H    0.079270
    67  H    0.118892
    68  H    0.113362
    69  H    0.107278
    70  H    0.104271
    71  H    0.119850
    72  H    0.125008
    73  H    0.274286
    74  H    0.277983
    75  H    0.099946
    76  H    0.078002
    77  H    0.127186
    78  H    0.104052
    79  H    0.125650
    80  H    0.126668
    81  H    0.128195
    82  H    0.111051
    83  H    0.076692
    84  H    0.070740
    85  H    0.083335
    86  H    0.084319
    87  H    0.081804
    88  H    0.086230
    89  H    0.117078
    90  H    0.090815
    91  H    0.114157
    92  H    0.129384
    93  H    0.133923
    94  H    0.108733
    95  H    0.076300
    96  H    0.085486
    97  H    0.083945
    98  H    0.091096
 Sum of Mulliken charges =  -0.00000

 Dipole moment (field-independent basis, Debye):
    X=             -0.4715    Y=             -1.5610    Z=              0.9804  Tot=              1.9027
 Quadrupole moment (field-independent basis, Debye-Ang):
   XX=           -287.6766   YY=           -239.0953   ZZ=           -260.0202
   XY=              3.2843   XZ=             -4.5234   YZ=              1.5075

 Normal termination of Gaussian 16 at Thu Jul 11 04:37:27 2019.
