 Gaussian 16, Revision A.03,
 Gaussian 16:  ES64L-G16RevA.03 25-Dec-2016

 -------------------------------------
 # td=(NStates=1) CAM-B3LYP/6-31G(d,p)
 -------------------------------------

 --
 TD
 --
 Symbolic Z-matrix:
 Charge =  0 Multiplicity = 1

                         Standard orientation:
 ---------------------------------------------------------------------
 Center     Atomic      Atomic             Coordinates (Angstroms)
 Number     Number       Type             X           Y           Z
 ---------------------------------------------------------------------
      1          8           0       14.751311   -2.160125   -0.532280
      2          8           0      -14.799446    2.009966    0.538691
      3          6           0       11.494618   -1.233140    1.067664
      4          6           0      -12.424181   -1.018451    0.679145
      5          6           0       13.049747   -1.481268    0.980830
      6          6           0      -13.683323   -0.195688    0.611578
      7          6           0       13.343348   -1.915934   -0.429918
      8          6           0      -13.568619    1.389286    0.619071
      9          6           0       10.993546   -0.312390   -0.027233
     10          6           0      -11.409756   -0.355963   -0.242357
     11          6           0       13.006762   -0.858749   -1.509982
     12          6           0      -12.777301    1.640929   -0.744583
     13          6           0       11.714348   -0.158853   -1.213727
     14          6           0      -11.615957    0.835119   -0.797807
     15          6           0       11.313467   -0.624883    2.443803
     16          6           0       10.845273   -2.631013    1.132503
     17          6           0      -11.829154   -0.825368    2.162610
     18          6           0      -12.718432   -2.420482    0.378210
     19          6           0        9.652398    0.291494    0.178056
     20          6           0      -10.121777   -1.144053   -0.403568
     21          6           0       11.328269    0.700837   -2.403171
     22          6           0      -10.650004    1.283126   -1.947743
     23          6           0        9.426927    1.588631   -0.153769
     24          6           0       -8.942035   -0.581367   -0.353559
     25          6           0        8.131033    2.233791    0.223177
     26          6           0       -7.607457   -1.318077   -0.506414
     27          6           0        8.179290    3.655180    0.631296
     28          6           0       -7.593580   -2.886249   -0.716945
     29          6           0        6.950574    1.544256    0.016372
     30          6           0       -6.478238   -0.627002   -0.372997
     31          6           0        5.565930    1.992259    0.252121
     32          6           0       -5.130258   -1.141283   -0.237573
     33          6           0        4.421390    1.306788    0.066870
     34          6           0       -4.106669   -0.266808   -0.245205
     35          6           0        3.058981    1.691776    0.275260
     36          6           0       -2.661565   -0.629962   -0.266162
     37          6           0        2.873146    3.165109    0.642147
     38          6           0       -2.362095   -2.092929   -0.685648
     39          6           0        2.034392    0.877548    0.042651
     40          6           0       -1.776162    0.332808   -0.019719
     41          6           0        0.542650    1.097399    0.271747
     42          6           0       -0.291731    0.104333   -0.070574
     43          1           0       13.604064   -0.402128    1.144800
     44          1           0       13.462531   -2.226887    1.445844
     45          1           0      -14.305827   -0.339910    1.570641
     46          1           0      -14.517430   -0.492547   -0.174452
     47          1           0       12.762019   -3.041609   -0.670291
     48          1           0      -12.946903    1.922866    1.460077
     49          1           0       13.857641   -0.040968   -1.418646
     50          1           0       12.887688   -1.300946   -2.360258
     51          1           0      -13.700494    1.539303   -1.664118
     52          1           0      -12.564134    2.651793   -0.714103
     53          1           0       11.488914   -1.199231    3.497869
     54          1           0       10.193832   -0.293671    2.510976
     55          1           0       11.804140    0.365666    2.593655
     56          1           0       10.918608   -3.035292    0.158718
     57          1           0       11.261043   -3.092460    1.877622
     58          1           0        9.772035   -2.365874    1.254983
     59          1           0      -11.930392    0.166685    2.402233
     60          1           0      -10.793315   -1.373148    2.195421
     61          1           0      -12.379401   -1.492782    2.897772
     62          1           0      -13.440415   -2.706075    0.969578
     63          1           0      -11.823862   -3.341967    0.751142
     64          1           0      -12.872621   -2.604154   -0.498180
     65          1           0        9.189886   -0.185140    0.863053
     66          1           0      -10.308241   -2.236839   -0.723955
     67          1           0       10.192957    0.866911   -2.727033
     68          1           0       12.235138    1.493062   -2.548925
     69          1           0       11.579958    0.128153   -3.273006
     70          1           0      -11.339469    1.841807   -2.704160
     71          1           0      -10.130293    0.536337   -2.368346
     72          1           0       -9.940938    2.069797   -1.509266
     73          1           0       15.090961   -3.048642   -0.053319
     74          1           0      -15.216048    1.790646    1.586648
     75          1           0       10.019319    2.383533   -0.746815
     76          1           0       -8.723392    0.470054   -0.412318
     77          1           0        9.136303    4.204283   -0.113442
     78          1           0        7.257205    4.296026    0.490509
     79          1           0        8.502853    3.897024    1.620442
     80          1           0       -7.983520   -3.387899    0.227914
     81          1           0       -8.356923   -3.100415   -1.645113
     82          1           0       -6.653380   -3.054708   -1.025118
     83          1           0        7.255610    0.595197   -0.292631
     84          1           0       -6.634068    0.420356   -0.175317
     85          1           0        5.618790    3.084174    0.665769
     86          1           0       -4.810754   -2.087986   -0.418650
     87          1           0        4.636010    0.268472   -0.106905
     88          1           0       -4.267157    0.809866    0.037057
     89          1           0        3.383157    3.628064    1.525227
     90          1           0        1.847929    3.369281    0.767550
     91          1           0        3.139404    3.861868   -0.261629
     92          1           0       -2.778022   -2.868415    0.017054
     93          1           0       -2.920111   -2.216712   -1.623917
     94          1           0       -1.381819   -2.326650   -0.673432
     95          1           0        2.367297   -0.051429   -0.306372
     96          1           0       -1.995855    1.337967    0.320735
     97          1           0        0.344513    2.034106    0.536190
     98          1           0        0.223289   -0.982090   -0.189784
 ---------------------------------------------------------------------

 SCF Done:  E(RCAM-B3LYP) =  -1706.85503084     A.U. after   13 cycles

 Excitation energies and oscillator strengths:

 Excited State   1:      Singlet-A      3.2058 eV  386.75 nm  f=3.5325  <S**2>=0.000
     155 ->158        -0.21962
     156 ->157         0.65705
 This state for optimization and/or second-order correction.
 Total Energy, E(TD-HF/TD-DFT) =  -1706.73722092
 Copying the excited state density for this state as the 1-particle RhoCI density.

 The electronic state is 1-A.
 Alpha  occ. eigenvalues --  -19.23334 -19.21077 -10.31548 -10.31428 -10.27927
 Alpha  occ. eigenvalues --  -10.27593 -10.27311 -10.27211 -10.27152 -10.27042
 Alpha  occ. eigenvalues --  -10.27022 -10.26991 -10.26944 -10.26817 -10.26763
 Alpha  occ. eigenvalues --  -10.26707 -10.26618 -10.26374 -10.26365 -10.26274
 Alpha  occ. eigenvalues --  -10.26196 -10.26166 -10.26124 -10.25790 -10.25766
 Alpha  occ. eigenvalues --  -10.25734 -10.25614 -10.25559 -10.25542 -10.25522
 Alpha  occ. eigenvalues --  -10.25484 -10.25428 -10.25377 -10.25313 -10.25274
 Alpha  occ. eigenvalues --  -10.25181 -10.25000 -10.24955 -10.24573 -10.24397
 Alpha  occ. eigenvalues --  -10.23670 -10.23200  -1.09085  -1.06974  -0.93823
 Alpha  occ. eigenvalues --   -0.93441  -0.91835  -0.91230  -0.90113  -0.89491
 Alpha  occ. eigenvalues --   -0.87641  -0.87433  -0.86802  -0.85244  -0.84427
 Alpha  occ. eigenvalues --   -0.82405  -0.81315  -0.79962  -0.79224  -0.78069
 Alpha  occ. eigenvalues --   -0.77387  -0.76560  -0.76210  -0.75924  -0.75874
 Alpha  occ. eigenvalues --   -0.75312  -0.74910  -0.74442  -0.74310  -0.70033
 Alpha  occ. eigenvalues --   -0.68710  -0.66647  -0.64976  -0.64524  -0.64180
 Alpha  occ. eigenvalues --   -0.63815  -0.63018  -0.62365  -0.60973  -0.59616
 Alpha  occ. eigenvalues --   -0.58749  -0.58015  -0.57246  -0.56695  -0.56003
 Alpha  occ. eigenvalues --   -0.55677  -0.55355  -0.55111  -0.54089  -0.53784
 Alpha  occ. eigenvalues --   -0.53400  -0.53129  -0.52205  -0.52094  -0.51395
 Alpha  occ. eigenvalues --   -0.50876  -0.50446  -0.49791  -0.49739  -0.49670
 Alpha  occ. eigenvalues --   -0.49170  -0.48451  -0.48132  -0.47736  -0.47580
 Alpha  occ. eigenvalues --   -0.47507  -0.47124  -0.46857  -0.46575  -0.46248
 Alpha  occ. eigenvalues --   -0.45847  -0.45527  -0.45265  -0.44975  -0.44732
 Alpha  occ. eigenvalues --   -0.44534  -0.44226  -0.44140  -0.43881  -0.43356
 Alpha  occ. eigenvalues --   -0.43096  -0.43019  -0.42806  -0.42234  -0.41964
 Alpha  occ. eigenvalues --   -0.41557  -0.41401  -0.40837  -0.40627  -0.40585
 Alpha  occ. eigenvalues --   -0.40331  -0.39931  -0.39564  -0.39540  -0.39230
 Alpha  occ. eigenvalues --   -0.38985  -0.38571  -0.38167  -0.38114  -0.37877
 Alpha  occ. eigenvalues --   -0.37679  -0.37084  -0.36007  -0.35764  -0.35218
 Alpha  occ. eigenvalues --   -0.34708  -0.34299  -0.33135  -0.32752  -0.31597
 Alpha  occ. eigenvalues --   -0.30639  -0.29923  -0.27934  -0.26312  -0.24130
 Alpha  occ. eigenvalues --   -0.21943
 Alpha virt. eigenvalues --   -0.02951   0.00022   0.03123   0.05312   0.07421
 Alpha virt. eigenvalues --    0.07699   0.09429   0.09790   0.10452   0.11328
 Alpha virt. eigenvalues --    0.11766   0.12562   0.13073   0.13839   0.13865

 Mulliken charges:
               1
     1  O   -0.584485
     2  O   -0.540355
     3  C   -0.062603
     4  C    0.007555
     5  C   -0.117748
     6  C   -0.202032
     7  C    0.159499
     8  C    0.159077
     9  C    0.061378
    10  C    0.055159
    11  C   -0.183068
    12  C   -0.218440
    13  C    0.031198
    14  C    0.058533
    15  C   -0.299130
    16  C   -0.270794
    17  C   -0.293439
    18  C   -0.262345
    19  C   -0.098383
    20  C   -0.146834
    21  C   -0.369276
    22  C   -0.349568
    23  C   -0.090648
    24  C   -0.067231
    25  C    0.065566
    26  C    0.068991
    27  C   -0.363347
    28  C   -0.341415
    29  C   -0.092989
    30  C   -0.124227
    31  C   -0.082755
    32  C   -0.076875
    33  C   -0.119444
    34  C   -0.113100
    35  C    0.134797
    36  C    0.111454
    37  C   -0.375930
    38  C   -0.368410
    39  C   -0.145285
    40  C   -0.142195
    41  C   -0.055017
    42  C   -0.088935
    43  H    0.081483
    44  H    0.074743
    45  H    0.051356
    46  H    0.098570
    47  H    0.033327
    48  H    0.071223
    49  H    0.114707
    50  H    0.120402
    51  H    0.082502
    52  H    0.112676
    53  H    0.086078
    54  H    0.073337
    55  H    0.104731
    56  H    0.107248
    57  H    0.112597
    58  H    0.088003
    59  H    0.108914
    60  H    0.102546
    61  H    0.085104
    62  H    0.116481
    63  H    0.036000
    64  H    0.111921
    65  H    0.087316
    66  H    0.099136
    67  H    0.119321
    68  H    0.103078
    69  H    0.112337
    70  H    0.092568
    71  H    0.129514
    72  H    0.097536
    73  H    0.307199
    74  H    0.300034
    75  H    0.114627
    76  H    0.088264
    77  H    0.051204
    78  H    0.115740
    79  H    0.136047
    80  H    0.122980
    81  H    0.089941
    82  H    0.118822
    83  H    0.070613
    84  H    0.076942
    85  H    0.069126
    86  H    0.078986
    87  H    0.078378
    88  H    0.076339
    89  H    0.115241
    90  H    0.103257
    91  H    0.108875
    92  H    0.116417
    93  H    0.130695
    94  H    0.113856
    95  H    0.070433
    96  H    0.095349
    97  H    0.079137
    98  H    0.089844
 Sum of Mulliken charges =  -0.00000

 Dipole moment (field-independent basis, Debye):
    X=             -0.0581    Y=             -1.8492    Z=              1.6923  Tot=              2.5073
 Quadrupole moment (field-independent basis, Debye-Ang):
   XX=           -268.5346   YY=           -243.8160   ZZ=           -260.2060
   XY=              0.1588   XZ=             -9.9222   YZ=              3.8404

 Normal termination of Gaussian 16 at Thu Jun 27 07:08:25 2019.
