 Gaussian 16, Revision A.03,
 Gaussian 16:  ES64L-G16RevA.03 25-Dec-2016

 -------------------------------------
 # td=(NStates=1) CAM-B3LYP/6-31G(d,p)
 -------------------------------------

 --
 TD
 --
 Symbolic Z-matrix:
 Charge =  0 Multiplicity = 1

                         Standard orientation:
 ---------------------------------------------------------------------
 Center     Atomic      Atomic             Coordinates (Angstroms)
 Number     Number       Type             X           Y           Z
 ---------------------------------------------------------------------
      1          8           0       14.800079   -2.006248   -0.317655
      2          8           0      -14.902275    1.919223    0.882149
      3          6           0       11.404220   -1.132414    1.256691
      4          6           0      -12.290172   -0.896687    0.888548
      5          6           0       12.900700   -1.433966    1.109056
      6          6           0      -13.724000   -0.235202    0.889177
      7          6           0       13.385674   -1.881699   -0.397224
      8          6           0      -13.652637    1.328087    0.827405
      9          6           0       10.967221   -0.301859    0.028229
     10          6           0      -11.341930   -0.240950   -0.155455
     11          6           0       12.882201   -0.781506   -1.288667
     12          6           0      -12.936389    1.742362   -0.561157
     13          6           0       11.612030   -0.217003   -1.119953
     14          6           0      -11.654562    0.823402   -0.821419
     15          6           0       11.296686   -0.399260    2.499540
     16          6           0       10.714887   -2.453520    1.261335
     17          6           0      -11.643735   -0.832745    2.425921
     18          6           0      -12.528871   -2.378385    0.556926
     19          6           0        9.629008    0.357980    0.212965
     20          6           0      -10.156249   -1.002297   -0.395077
     21          6           0       11.126621    0.466268   -2.366360
     22          6           0      -10.894667    1.425685   -1.921573
     23          6           0        9.405513    1.608077   -0.054210
     24          6           0       -8.924286   -0.551888   -0.450590
     25          6           0        8.083361    2.280182    0.119480
     26          6           0       -7.681020   -1.201686   -0.589615
     27          6           0        8.167061    3.687988    0.780683
     28          6           0       -7.641859   -2.677010   -1.015201
     29          6           0        6.960122    1.570701   -0.085272
     30          6           0       -6.495822   -0.582163   -0.398605
     31          6           0        5.579007    2.039404    0.122088
     32          6           0       -5.035400   -1.115158   -0.559740
     33          6           0        4.537794    1.208775   -0.096447
     34          6           0       -3.964409   -0.287232   -0.422065
     35          6           0        3.134632    1.631058    0.025583
     36          6           0       -2.675201   -0.777685   -0.527704
     37          6           0        2.897857    3.004153    0.416475
     38          6           0       -2.286809   -2.208103   -0.935329
     39          6           0        2.193112    0.631911   -0.125485
     40          6           0       -1.640139    0.135650   -0.241854
     41          6           0        0.744558    0.879901   -0.056119
     42          6           0       -0.174072   -0.013955   -0.375277
     43          1           0       13.673264   -0.621818    1.249867
     44          1           0       13.247682   -2.029421    1.961994
     45          1           0      -14.117503   -0.639892    1.913482
     46          1           0      -14.178982   -0.791993    0.100788
     47          1           0       12.910724   -2.897653   -0.671528
     48          1           0      -12.739773    1.720689    1.398310
     49          1           0       13.855007   -0.018139   -1.121740
     50          1           0       13.095156   -1.191878   -2.421630
     51          1           0      -13.450380    1.254415   -1.487398
     52          1           0      -12.870562    2.874354   -0.782937
     53          1           0       11.613419   -1.082791    3.451075
     54          1           0       10.221530   -0.099099    2.843789
     55          1           0       11.780358    0.590236    2.487116
     56          1           0       10.881449   -3.032784    0.444688
     57          1           0       11.191126   -3.178601    2.175205
     58          1           0        9.706220   -2.465497    1.406976
     59          1           0      -11.613864    0.272336    2.958363
     60          1           0      -10.690461   -1.438297    2.436068
     61          1           0      -12.129399   -1.456459    3.066814
     62          1           0      -13.332326   -2.529512    1.251464
     63          1           0      -11.502697   -2.945430    1.133266
     64          1           0      -12.625219   -2.770457   -0.625168
     65          1           0        8.640105   -0.241762    0.259351
     66          1           0      -10.216803   -1.989389   -0.601797
     67          1           0       10.091276    1.098122   -2.196630
     68          1           0       12.012950    1.143973   -2.489872
     69          1           0       11.050133   -0.289076   -3.114569
     70          1           0      -11.615178    1.667139   -2.754708
     71          1           0      -10.248789    0.799535   -2.256967
     72          1           0      -10.512395    2.612509   -1.736698
     73          1           0       15.009288   -2.638417    0.167930
     74          1           0      -15.338569    1.340320    1.538435
     75          1           0       10.289426    2.261756   -0.296304
     76          1           0       -8.912215    0.513964   -0.155847
     77          1           0        9.126773    4.276740    0.124689
     78          1           0        7.347296    4.325954    0.767918
     79          1           0        8.380540    3.662360    1.834853
     80          1           0       -8.284787   -3.266581   -0.280296
     81          1           0       -7.945057   -2.870910   -1.966759
     82          1           0       -6.558534   -3.202223   -0.798402
     83          1           0        7.069823    0.548375   -0.650316
     84          1           0       -6.714919    0.505992   -0.056151
     85          1           0        5.508019    3.026514    0.311785
     86          1           0       -4.914914   -2.245047   -1.057502
     87          1           0        4.672065    0.209637   -0.564426
     88          1           0       -4.021888    0.720380   -0.132294
     89          1           0        3.240108    2.918034    1.275494
     90          1           0        1.744327    3.286779    0.645332
     91          1           0        3.171055    3.572293   -0.371412
     92          1           0       -2.565051   -2.923367   -0.168187
     93          1           0       -2.919819   -2.468550   -1.776201
     94          1           0       -1.338797   -2.427740   -1.103893
     95          1           0        2.574291   -0.196773   -0.492599
     96          1           0       -2.073198    1.260721   -0.032768
     97          1           0        0.282827    1.875040    0.382166
     98          1           0        0.183184   -1.007676   -0.696377
 ---------------------------------------------------------------------

 SCF Done:  E(RCAM-B3LYP) =  -1706.83919963     A.U. after   14 cycles

 Excitation energies and oscillator strengths:

 Excited State   1:      Singlet-A      2.9745 eV  416.82 nm  f=3.6256  <S**2>=0.000
     155 ->158        -0.17102
     156 ->157         0.68032
 This state for optimization and/or second-order correction.
 Total Energy, E(TD-HF/TD-DFT) =  -1706.72988861
 Copying the excited state density for this state as the 1-particle RhoCI density.

 The electronic state is 1-A.
 Alpha  occ. eigenvalues --  -19.22352 -19.20447 -10.31886 -10.31817 -10.28671
 Alpha  occ. eigenvalues --  -10.28560 -10.28200 -10.27730 -10.27695 -10.27381
 Alpha  occ. eigenvalues --  -10.27317 -10.27273 -10.27024 -10.27011 -10.26890
 Alpha  occ. eigenvalues --  -10.26757 -10.26614 -10.26613 -10.26544 -10.26539
 Alpha  occ. eigenvalues --  -10.26539 -10.26142 -10.26075 -10.25947 -10.25944
 Alpha  occ. eigenvalues --  -10.25872 -10.25851 -10.25847 -10.25814 -10.25756
 Alpha  occ. eigenvalues --  -10.25682 -10.25558 -10.25461 -10.25258 -10.24779
 Alpha  occ. eigenvalues --  -10.24768 -10.24743 -10.24571 -10.24553 -10.24307
 Alpha  occ. eigenvalues --  -10.23960 -10.23883  -1.12897  -1.11272  -0.94696
 Alpha  occ. eigenvalues --   -0.93535  -0.92626  -0.91447  -0.90380  -0.89978
 Alpha  occ. eigenvalues --   -0.88878  -0.87290  -0.86938  -0.85396  -0.84375
 Alpha  occ. eigenvalues --   -0.82801  -0.81566  -0.80442  -0.79742  -0.79230
 Alpha  occ. eigenvalues --   -0.76980  -0.76945  -0.76343  -0.76250  -0.75560
 Alpha  occ. eigenvalues --   -0.75442  -0.74384  -0.73895  -0.73856  -0.70469
 Alpha  occ. eigenvalues --   -0.69028  -0.67484  -0.66082  -0.64578  -0.63906
 Alpha  occ. eigenvalues --   -0.63562  -0.62869  -0.60756  -0.60509  -0.59910
 Alpha  occ. eigenvalues --   -0.59256  -0.58941  -0.57887  -0.57402  -0.56651
 Alpha  occ. eigenvalues --   -0.55909  -0.55598  -0.55249  -0.54633  -0.54208
 Alpha  occ. eigenvalues --   -0.53849  -0.53056  -0.52619  -0.52302  -0.51836
 Alpha  occ. eigenvalues --   -0.51245  -0.50490  -0.50207  -0.49835  -0.49647
 Alpha  occ. eigenvalues --   -0.49023  -0.48803  -0.48505  -0.48304  -0.48140
 Alpha  occ. eigenvalues --   -0.47757  -0.47551  -0.47376  -0.46805  -0.46362
 Alpha  occ. eigenvalues --   -0.45875  -0.45637  -0.45307  -0.45093  -0.44862
 Alpha  occ. eigenvalues --   -0.44516  -0.44327  -0.43612  -0.43430  -0.42769
 Alpha  occ. eigenvalues --   -0.42444  -0.42079  -0.41861  -0.41736  -0.41178
 Alpha  occ. eigenvalues --   -0.41080  -0.40644  -0.40579  -0.40258  -0.40152
 Alpha  occ. eigenvalues --   -0.40011  -0.39798  -0.39737  -0.39707  -0.39483
 Alpha  occ. eigenvalues --   -0.39176  -0.38651  -0.38512  -0.38496  -0.38275
 Alpha  occ. eigenvalues --   -0.38006  -0.37568  -0.36993  -0.36214  -0.35601
 Alpha  occ. eigenvalues --   -0.35242  -0.34429  -0.33999  -0.31835  -0.31749
 Alpha  occ. eigenvalues --   -0.31089  -0.29970  -0.28494  -0.27072  -0.24619
 Alpha  occ. eigenvalues --   -0.21195
 Alpha virt. eigenvalues --   -0.03560   0.00308   0.03739   0.05949   0.08120
 Alpha virt. eigenvalues --    0.09456   0.10395   0.10942   0.11640   0.12177
 Alpha virt. eigenvalues --    0.12400   0.12876   0.12960   0.13486   0.13919

 Mulliken charges:
               1
     1  O   -0.514921
     2  O   -0.535361
     3  C    0.019123
     4  C   -0.028696
     5  C   -0.211579
     6  C   -0.228921
     7  C    0.148593
     8  C    0.188168
     9  C    0.003931
    10  C    0.083335
    11  C   -0.232260
    12  C   -0.232157
    13  C    0.112812
    14  C    0.042724
    15  C   -0.296116
    16  C   -0.276761
    17  C   -0.314026
    18  C   -0.289492
    19  C   -0.093785
    20  C   -0.129441
    21  C   -0.340232
    22  C   -0.329493
    23  C   -0.117938
    24  C   -0.100217
    25  C    0.077014
    26  C    0.132658
    27  C   -0.349232
    28  C   -0.370300
    29  C   -0.130796
    30  C   -0.146664
    31  C   -0.083402
    32  C   -0.129402
    33  C   -0.111637
    34  C   -0.068968
    35  C    0.069182
    36  C    0.129237
    37  C   -0.335987
    38  C   -0.364995
    39  C   -0.113162
    40  C   -0.160949
    41  C   -0.078399
    42  C   -0.081238
    43  H    0.096673
    44  H    0.075139
    45  H    0.076358
    46  H    0.119835
    47  H    0.071917
    48  H    0.087768
    49  H    0.106454
    50  H    0.082583
    51  H    0.098900
    52  H    0.109930
    53  H    0.077591
    54  H    0.088031
    55  H    0.111096
    56  H    0.112537
    57  H    0.057138
    58  H    0.112422
    59  H    0.094219
    60  H    0.103792
    61  H    0.110463
    62  H    0.112162
    63  H    0.060077
    64  H    0.104015
    65  H    0.084860
    66  H    0.075756
    67  H    0.104612
    68  H    0.115818
    69  H    0.122089
    70  H    0.096835
    71  H    0.116902
    72  H    0.083395
    73  H    0.280042
    74  H    0.310489
    75  H    0.085897
    76  H    0.076965
    77  H    0.074179
    78  H    0.121964
    79  H    0.136158
    80  H    0.104363
    81  H    0.132975
    82  H    0.085856
    83  H    0.079743
    84  H    0.072750
    85  H    0.088488
    86  H    0.086310
    87  H    0.086232
    88  H    0.094218
    89  H    0.143078
    90  H    0.081597
    91  H    0.136962
    92  H    0.121985
    93  H    0.116773
    94  H    0.118180
    95  H    0.067989
    96  H    0.059457
    97  H    0.080016
    98  H    0.077715
 Sum of Mulliken charges =  -0.00000

 Dipole moment (field-independent basis, Debye):
    X=              0.1515    Y=             -1.9472    Z=              0.9173  Tot=              2.1577
 Quadrupole moment (field-independent basis, Debye-Ang):
   XX=           -278.0573   YY=           -245.8393   ZZ=           -260.6389
   XY=             14.7422   XZ=             -2.9244   YZ=              3.1719

 Normal termination of Gaussian 16 at Fri Jun 28 22:39:52 2019.
