 Gaussian 16, Revision A.03,
 Gaussian 16:  ES64L-G16RevA.03 25-Dec-2016

 -------------------------------------
 # td=(NStates=1) CAM-B3LYP/6-31G(d,p)
 -------------------------------------

 --
 TD
 --
 Symbolic Z-matrix:
 Charge =  0 Multiplicity = 1

                         Standard orientation:
 ---------------------------------------------------------------------
 Center     Atomic      Atomic             Coordinates (Angstroms)
 Number     Number       Type             X           Y           Z
 ---------------------------------------------------------------------
      1          8           0       14.632785   -2.400543   -0.661946
      2          8           0      -14.755820    2.073490    0.641476
      3          6           0       11.434733   -1.114350    1.179055
      4          6           0      -12.364438   -0.890442    0.902215
      5          6           0       12.967767   -1.535868    0.977347
      6          6           0      -13.651171   -0.215387    0.770743
      7          6           0       13.213518   -1.972457   -0.380565
      8          6           0      -13.515796    1.422825    0.623049
      9          6           0       10.968809   -0.321465   -0.002147
     10          6           0      -11.376433   -0.344197   -0.210420
     11          6           0       12.918486   -0.844485   -1.347720
     12          6           0      -12.752527    1.775636   -0.623487
     13          6           0       11.646845   -0.125863   -1.164871
     14          6           0      -11.603207    0.848857   -0.842689
     15          6           0       11.241071   -0.372177    2.548716
     16          6           0       10.647690   -2.423177    1.366779
     17          6           0      -11.688787   -0.980752    2.314049
     18          6           0      -12.739377   -2.378701    0.490764
     19          6           0        9.697801    0.397653    0.315478
     20          6           0      -10.131908   -1.066471   -0.210858
     21          6           0       11.135929    0.696797   -2.269825
     22          6           0      -10.665474    1.346774   -1.943468
     23          6           0        9.270643    1.615761   -0.084959
     24          6           0       -8.903322   -0.626056   -0.267314
     25          6           0        8.079612    2.278323    0.128780
     26          6           0       -7.630271   -1.365354   -0.497981
     27          6           0        8.116566    3.699177    0.510205
     28          6           0       -7.687893   -2.755098   -0.847300
     29          6           0        6.894524    1.649144   -0.005932
     30          6           0       -6.374876   -0.670112   -0.365962
     31          6           0        5.561669    1.987399    0.226929
     32          6           0       -5.079833   -1.035095   -0.563193
     33          6           0        4.552887    1.218264   -0.009087
     34          6           0       -3.994865   -0.301712   -0.360105
     35          6           0        3.161035    1.599572    0.152024
     36          6           0       -2.601176   -0.729628   -0.413598
     37          6           0        2.854754    2.967069    0.687071
     38          6           0       -2.232480   -2.121903   -0.971247
     39          6           0        2.123624    0.774346   -0.106470
     40          6           0       -1.662073    0.202891   -0.208070
     41          6           0        0.713072    0.921392   -0.013242
     42          6           0       -0.164958   -0.017392   -0.237214
     43          1           0       13.671706   -0.623316    1.111402
     44          1           0       13.295251   -2.082344    1.853797
     45          1           0      -14.162309   -0.417442    1.627759
     46          1           0      -14.172226   -0.582045   -0.015699
     47          1           0       12.516515   -2.933464   -0.901080
     48          1           0      -12.822830    1.888677    1.447653
     49          1           0       14.017454   -0.462325   -1.106169
     50          1           0       12.960978   -1.288266   -2.354751
     51          1           0      -13.519471    1.796438   -1.509486
     52          1           0      -12.431968    2.685208   -0.404013
     53          1           0       11.720394   -1.050933    3.317257
     54          1           0       10.279250   -0.112349    2.670456
     55          1           0       11.739847    0.691497    2.413615
     56          1           0       10.460755   -3.042921    0.620971
     57          1           0       10.904002   -2.820126    2.223656
     58          1           0        9.555220   -1.945176    1.570853
     59          1           0      -11.388961    0.087366    2.485241
     60          1           0      -10.649516   -1.384219    2.466101
     61          1           0      -12.224940   -1.444111    3.191156
     62          1           0      -13.683383   -2.648877    0.988714
     63          1           0      -11.895523   -3.105895    0.822639
     64          1           0      -12.517611   -2.541146   -0.615862
     65          1           0        9.017053   -0.203751    0.997644
     66          1           0      -10.379020   -2.135077   -0.290939
     67          1           0       10.192300    0.950683   -2.368774
     68          1           0       11.659847    1.693640   -2.159890
     69          1           0       11.227058    0.362251   -3.379258
     70          1           0      -11.200237    2.119703   -2.791559
     71          1           0      -10.202111    0.474356   -2.423713
     72          1           0       -9.663779    1.993056   -1.588957
     73          1           0       15.030961   -3.027771    0.100436
     74          1           0      -15.398591    1.592675    1.241194
     75          1           0        9.944411    2.424076   -0.545043
     76          1           0       -8.748691    0.411566   -0.152663
     77          1           0        8.862860    4.179233   -0.299900
     78          1           0        7.169229    4.156142    0.588661
     79          1           0        8.709790    3.996935    1.502573
     80          1           0       -8.258539   -3.390500   -0.099585
     81          1           0       -8.259657   -3.137600   -1.801041
     82          1           0       -6.601582   -3.057695   -0.783206
     83          1           0        6.923359    0.669157   -0.440799
     84          1           0       -6.567953    0.337548   -0.174679
     85          1           0        5.314062    3.048876    0.832847
     86          1           0       -4.914692   -2.151197   -1.086396
     87          1           0        4.659556    0.317370   -0.587096
     88          1           0       -4.080950    0.696827    0.156348
     89          1           0        3.131374    3.394160    1.788645
     90          1           0        1.765204    3.117970    0.369028
     91          1           0        3.191690    3.773818   -0.046208
     92          1           0       -2.598139   -2.950969   -0.267458
     93          1           0       -2.831666   -2.274109   -1.731392
     94          1           0       -1.261607   -2.265096   -1.347266
     95          1           0        2.466476   -0.289159   -0.390732
     96          1           0       -1.881512    1.108166    0.090841
     97          1           0        0.460807    1.918819    0.428405
     98          1           0        0.173311   -1.064313   -0.553419
 ---------------------------------------------------------------------

 SCF Done:  E(RCAM-B3LYP) =  -1706.93114185     A.U. after   14 cycles

 Excitation energies and oscillator strengths:

 Excited State   1:      Singlet-A      2.8683 eV  432.26 nm  f=3.8997  <S**2>=0.000
     155 ->158        -0.21814
     156 ->157         0.66317
 This state for optimization and/or second-order correction.
 Total Energy, E(TD-HF/TD-DFT) =  -1706.82573522
 Copying the excited state density for this state as the 1-particle RhoCI density.

 The electronic state is 1-A.
 Alpha  occ. eigenvalues --  -19.21672 -19.21475 -10.32088 -10.30862 -10.28179
 Alpha  occ. eigenvalues --  -10.27939 -10.27762 -10.27631 -10.27577 -10.27314
 Alpha  occ. eigenvalues --  -10.27262 -10.27225 -10.27220 -10.27000 -10.26934
 Alpha  occ. eigenvalues --  -10.26854 -10.26851 -10.26774 -10.26460 -10.26331
 Alpha  occ. eigenvalues --  -10.26264 -10.26197 -10.26189 -10.26186 -10.26146
 Alpha  occ. eigenvalues --  -10.26045 -10.25966 -10.25948 -10.25785 -10.25549
 Alpha  occ. eigenvalues --  -10.25525 -10.25437 -10.25405 -10.25404 -10.25354
 Alpha  occ. eigenvalues --  -10.25298 -10.24832 -10.24812 -10.24663 -10.24492
 Alpha  occ. eigenvalues --  -10.23849 -10.23473  -1.09127  -1.05408  -0.94217
 Alpha  occ. eigenvalues --   -0.93622  -0.92828  -0.92275  -0.91328  -0.90296
 Alpha  occ. eigenvalues --   -0.88206  -0.87686  -0.87263  -0.86447  -0.85315
 Alpha  occ. eigenvalues --   -0.84129  -0.82976  -0.80711  -0.79429  -0.78728
 Alpha  occ. eigenvalues --   -0.77103  -0.76789  -0.76646  -0.76601  -0.76004
 Alpha  occ. eigenvalues --   -0.75801  -0.75216  -0.75036  -0.74104  -0.70652
 Alpha  occ. eigenvalues --   -0.69514  -0.67577  -0.66166  -0.65333  -0.63861
 Alpha  occ. eigenvalues --   -0.63623  -0.62832  -0.61779  -0.60736  -0.59673
 Alpha  occ. eigenvalues --   -0.59477  -0.58078  -0.57459  -0.57286  -0.56825
 Alpha  occ. eigenvalues --   -0.56650  -0.55930  -0.55674  -0.55003  -0.54335
 Alpha  occ. eigenvalues --   -0.53716  -0.53114  -0.52581  -0.52228  -0.51971
 Alpha  occ. eigenvalues --   -0.50905  -0.50679  -0.50239  -0.49326  -0.49177
 Alpha  occ. eigenvalues --   -0.48384  -0.48267  -0.48216  -0.47989  -0.47509
 Alpha  occ. eigenvalues --   -0.47387  -0.47073  -0.46732  -0.46646  -0.46459
 Alpha  occ. eigenvalues --   -0.46335  -0.46261  -0.45897  -0.45786  -0.45524
 Alpha  occ. eigenvalues --   -0.45303  -0.44660  -0.44195  -0.43883  -0.43376
 Alpha  occ. eigenvalues --   -0.43202  -0.42827  -0.42446  -0.42039  -0.41838
 Alpha  occ. eigenvalues --   -0.41702  -0.41383  -0.41257  -0.40895  -0.40582
 Alpha  occ. eigenvalues --   -0.40289  -0.40239  -0.39590  -0.39342  -0.39117
 Alpha  occ. eigenvalues --   -0.38993  -0.38836  -0.38774  -0.38222  -0.38124
 Alpha  occ. eigenvalues --   -0.37422  -0.37276  -0.37181  -0.35924  -0.35688
 Alpha  occ. eigenvalues --   -0.34894  -0.34334  -0.33716  -0.32773  -0.31728
 Alpha  occ. eigenvalues --   -0.31374  -0.29934  -0.28279  -0.26688  -0.23831
 Alpha  occ. eigenvalues --   -0.21472
 Alpha virt. eigenvalues --   -0.04275  -0.01274   0.02479   0.05136   0.07100
 Alpha virt. eigenvalues --    0.09864   0.10803   0.11683   0.11871   0.12191
 Alpha virt. eigenvalues --    0.12289   0.12408   0.13001   0.13258   0.13378

 Mulliken charges:
               1
     1  O   -0.590469
     2  O   -0.567768
     3  C   -0.065603
     4  C    0.021956
     5  C   -0.181357
     6  C   -0.209143
     7  C    0.173220
     8  C    0.168411
     9  C    0.096532
    10  C    0.026456
    11  C   -0.232102
    12  C   -0.199397
    13  C    0.081974
    14  C    0.052523
    15  C   -0.283002
    16  C   -0.255848
    17  C   -0.319547
    18  C   -0.327865
    19  C   -0.138500
    20  C   -0.103676
    21  C   -0.367068
    22  C   -0.350787
    23  C   -0.105380
    24  C   -0.089431
    25  C    0.101708
    26  C    0.116468
    27  C   -0.358049
    28  C   -0.382177
    29  C   -0.127532
    30  C   -0.118339
    31  C   -0.054316
    32  C   -0.075573
    33  C   -0.100697
    34  C   -0.117473
    35  C    0.118964
    36  C    0.112409
    37  C   -0.386835
    38  C   -0.370225
    39  C   -0.134433
    40  C   -0.113379
    41  C   -0.062311
    42  C   -0.097335
    43  H    0.090499
    44  H    0.083806
    45  H    0.086275
    46  H    0.119098
    47  H    0.044218
    48  H    0.056311
    49  H    0.119681
    50  H    0.112373
    51  H    0.107205
    52  H    0.129651
    53  H    0.096871
    54  H    0.119396
    55  H    0.091154
    56  H    0.117330
    57  H    0.107195
    58  H    0.059845
    59  H    0.099487
    60  H    0.114755
    61  H    0.099627
    62  H    0.107068
    63  H    0.087014
    64  H    0.107432
    65  H    0.091826
    66  H    0.071126
    67  H    0.136052
    68  H    0.115538
    69  H    0.091822
    70  H    0.080338
    71  H    0.129106
    72  H    0.086267
    73  H    0.309174
    74  H    0.313011
    75  H    0.070929
    76  H    0.076384
    77  H    0.092609
    78  H    0.121522
    79  H    0.103255
    80  H    0.113848
    81  H    0.113653
    82  H    0.101166
    83  H    0.073340
    84  H    0.076435
    85  H    0.065616
    86  H    0.070439
    87  H    0.082031
    88  H    0.086199
    89  H    0.115788
    90  H    0.096206
    91  H    0.111033
    92  H    0.108989
    93  H    0.135320
    94  H    0.117676
    95  H    0.065057
    96  H    0.067237
    97  H    0.088282
    98  H    0.081428
 Sum of Mulliken charges =  -0.00000

 Dipole moment (field-independent basis, Debye):
    X=             -0.7439    Y=             -1.3842    Z=              2.0154  Tot=              2.5556
 Quadrupole moment (field-independent basis, Debye-Ang):
   XX=           -267.6037   YY=           -250.8028   ZZ=           -260.4537
   XY=             18.3279   XZ=              9.0911   YZ=             -1.0038

 Normal termination of Gaussian 16 at Tue Jul  2 02:22:12 2019.
