 Gaussian 16, Revision A.03,
 Gaussian 16:  ES64L-G16RevA.03 25-Dec-2016

 -------------------------------------
 # td=(NStates=1) CAM-B3LYP/6-31G(d,p)
 -------------------------------------

 --
 TD
 --
 Symbolic Z-matrix:
 Charge =  0 Multiplicity = 1

                         Standard orientation:
 ---------------------------------------------------------------------
 Center     Atomic      Atomic             Coordinates (Angstroms)
 Number     Number       Type             X           Y           Z
 ---------------------------------------------------------------------
      1          8           0       14.821860   -1.985198   -0.373648
      2          8           0      -14.609401    2.093860    0.918566
      3          6           0       11.425423   -1.096080    1.139659
      4          6           0      -12.358044   -0.955533    0.694206
      5          6           0       12.913568   -1.348986    1.074857
      6          6           0      -13.646770   -0.269136    0.811712
      7          6           0       13.431064   -1.872046   -0.282943
      8          6           0      -13.487757    1.272877    0.918950
      9          6           0       10.878860   -0.350174   -0.078744
     10          6           0      -11.313135   -0.277186   -0.319138
     11          6           0       13.067413   -0.837177   -1.291692
     12          6           0      -12.662025    1.725129   -0.392391
     13          6           0       11.671595   -0.229354   -1.193065
     14          6           0      -11.557628    0.952524   -0.777894
     15          6           0       11.278109   -0.355884    2.447662
     16          6           0       10.693025   -2.528461    1.364709
     17          6           0      -11.775051   -0.979641    2.167109
     18          6           0      -12.652843   -2.396746    0.368019
     19          6           0        9.662270    0.335938    0.160349
     20          6           0      -10.042744   -1.122387   -0.489358
     21          6           0       11.247377    0.548086   -2.378649
     22          6           0      -10.823439    1.561032   -1.984416
     23          6           0        9.360402    1.676749   -0.066886
     24          6           0       -8.833225   -0.474887   -0.409669
     25          6           0        8.002136    2.243874    0.040300
     26          6           0       -7.600960   -1.262127   -0.560808
     27          6           0        8.121783    3.806736    0.064932
     28          6           0       -7.553545   -2.665905   -0.956052
     29          6           0        6.815479    1.549848    0.061350
     30          6           0       -6.489324   -0.578491   -0.385274
     31          6           0        5.480056    2.028397    0.264478
     32          6           0       -5.097080   -1.065952   -0.450995
     33          6           0        4.490932    1.115854    0.087336
     34          6           0       -4.012579   -0.367400   -0.340850
     35          6           0        3.076174    1.549109    0.246999
     36          6           0       -2.675854   -0.820516   -0.437494
     37          6           0        2.747910    2.952820    0.743510
     38          6           0       -2.449800   -2.256784   -0.904247
     39          6           0        2.091549    0.603633   -0.038683
     40          6           0       -1.687738    0.067381   -0.186889
     41          6           0        0.637936    0.825480    0.071786
     42          6           0       -0.283617   -0.160124   -0.256694
     43          1           0       13.374043   -0.388851    1.294152
     44          1           0       13.263464   -1.931487    1.987539
     45          1           0      -14.257351   -0.582879    1.594214
     46          1           0      -14.257434   -0.280873   -0.174882
     47          1           0       13.083082   -2.983528   -0.366811
     48          1           0      -12.741222    1.527678    1.647902
     49          1           0       13.759598    0.029107   -1.294613
     50          1           0       13.086095   -1.219738   -2.198406
     51          1           0      -13.293168    1.933719   -1.182982
     52          1           0      -12.389597    2.696127   -0.155562
     53          1           0       11.694849   -0.887654    3.340438
     54          1           0       10.217708   -0.000895    2.613632
     55          1           0       11.946489    0.491204    2.351125
     56          1           0       10.971469   -3.354030    0.589431
     57          1           0       10.892989   -2.955627    2.392507
     58          1           0        9.445950   -2.451247    1.175657
     59          1           0      -11.605332   -0.021165    2.508516
     60          1           0      -10.822886   -1.598014    1.963932
     61          1           0      -12.247071   -1.600679    2.930764
     62          1           0      -13.465560   -2.836470    1.249539
     63          1           0      -11.904696   -3.205114    0.480715
     64          1           0      -13.161390   -2.510265   -0.731864
     65          1           0        8.982683   -0.319956    0.545513
     66          1           0       -9.953230   -2.335661   -0.750896
     67          1           0       10.146816    0.518431   -2.562650
     68          1           0       11.604719    1.770880   -2.198600
     69          1           0       11.816529    0.091844   -3.325870
     70          1           0      -11.572684    1.985540   -2.845930
     71          1           0       -9.996640    1.102153   -2.409112
     72          1           0      -10.201414    2.411945   -1.807531
     73          1           0       14.871636   -2.736265    0.360721
     74          1           0      -14.891627    2.502371    2.109094
     75          1           0       10.000048    2.383819   -0.547582
     76          1           0       -8.960746    0.775097   -0.248471
     77          1           0        8.845472    4.319613   -0.621411
     78          1           0        7.145330    4.294826    0.073434
     79          1           0        8.416376    4.055483    1.185557
     80          1           0       -7.876012   -3.300874   -0.428391
     81          1           0       -8.334661   -2.725206   -1.814895
     82          1           0       -6.567652   -3.205487   -1.391398
     83          1           0        6.815250    0.475015    0.099942
     84          1           0       -6.490599    0.591299   -0.054448
     85          1           0        5.191301    3.135964    0.569012
     86          1           0       -4.991496   -2.120968   -0.844351
     87          1           0        4.682229    0.129797   -0.197354
     88          1           0       -4.120190    0.616160    0.081633
     89          1           0        3.224686    2.883445    1.910342
     90          1           0        1.671706    3.196519    0.765897
     91          1           0        3.502851    3.656355    0.178074
     92          1           0       -3.020717   -3.065204   -0.304678
     93          1           0       -2.887779   -2.223146   -2.099254
     94          1           0       -1.398699   -2.437954   -0.656770
     95          1           0        2.421758   -0.313546   -0.420498
     96          1           0       -2.011974    1.027310    0.281904
     97          1           0        0.168819    1.887474    0.588231
     98          1           0       -0.061212   -1.032616   -0.864092
 ---------------------------------------------------------------------

 SCF Done:  E(RCAM-B3LYP) =  -1706.86853241     A.U. after   14 cycles

 Excitation energies and oscillator strengths:

 Excited State   1:      Singlet-A      2.7693 eV  447.71 nm  f=3.5374  <S**2>=0.000
     155 ->158        -0.18164
     156 ->157         0.67525
 This state for optimization and/or second-order correction.
 Total Energy, E(TD-HF/TD-DFT) =  -1706.76676360
 Copying the excited state density for this state as the 1-particle RhoCI density.

 The electronic state is 1-A.
 Alpha  occ. eigenvalues --  -19.23785 -19.22066 -10.31070 -10.29873 -10.28868
 Alpha  occ. eigenvalues --  -10.28403 -10.27977 -10.27858 -10.27822 -10.27785
 Alpha  occ. eigenvalues --  -10.27721 -10.27578 -10.27565 -10.27474 -10.27195
 Alpha  occ. eigenvalues --  -10.27086 -10.26964 -10.26893 -10.26804 -10.26769
 Alpha  occ. eigenvalues --  -10.26704 -10.26519 -10.26504 -10.26437 -10.26405
 Alpha  occ. eigenvalues --  -10.26229 -10.26225 -10.26211 -10.25848 -10.25772
 Alpha  occ. eigenvalues --  -10.25699 -10.25524 -10.25344 -10.25234 -10.25032
 Alpha  occ. eigenvalues --  -10.24992 -10.24561 -10.24502 -10.24429 -10.23782
 Alpha  occ. eigenvalues --  -10.23772 -10.22757  -1.10076  -1.07059  -0.93846
 Alpha  occ. eigenvalues --   -0.93185  -0.92310  -0.91388  -0.90884  -0.89190
 Alpha  occ. eigenvalues --   -0.87637  -0.87397  -0.86964  -0.85389  -0.83937
 Alpha  occ. eigenvalues --   -0.82988  -0.81460  -0.79320  -0.79249  -0.77955
 Alpha  occ. eigenvalues --   -0.77014  -0.75945  -0.75619  -0.75464  -0.75409
 Alpha  occ. eigenvalues --   -0.75177  -0.74413  -0.74295  -0.73741  -0.69959
 Alpha  occ. eigenvalues --   -0.68699  -0.66850  -0.65398  -0.65010  -0.63622
 Alpha  occ. eigenvalues --   -0.63171  -0.62261  -0.60777  -0.60292  -0.59780
 Alpha  occ. eigenvalues --   -0.59054  -0.58765  -0.57536  -0.57243  -0.55789
 Alpha  occ. eigenvalues --   -0.55631  -0.55148  -0.54400  -0.53947  -0.53567
 Alpha  occ. eigenvalues --   -0.53255  -0.52348  -0.52020  -0.51894  -0.50538
 Alpha  occ. eigenvalues --   -0.50320  -0.49706  -0.49355  -0.49102  -0.48832
 Alpha  occ. eigenvalues --   -0.48482  -0.48427  -0.48083  -0.47769  -0.47545
 Alpha  occ. eigenvalues --   -0.47267  -0.47056  -0.46505  -0.46372  -0.46007
 Alpha  occ. eigenvalues --   -0.45852  -0.45735  -0.45383  -0.45042  -0.44640
 Alpha  occ. eigenvalues --   -0.44335  -0.43746  -0.43632  -0.43510  -0.43234
 Alpha  occ. eigenvalues --   -0.42718  -0.42369  -0.42234  -0.41989  -0.41483
 Alpha  occ. eigenvalues --   -0.41325  -0.41183  -0.41012  -0.40758  -0.40633
 Alpha  occ. eigenvalues --   -0.40272  -0.39999  -0.39975  -0.39629  -0.39395
 Alpha  occ. eigenvalues --   -0.39175  -0.39037  -0.38362  -0.38251  -0.37880
 Alpha  occ. eigenvalues --   -0.37470  -0.37049  -0.37024  -0.36646  -0.35812
 Alpha  occ. eigenvalues --   -0.35099  -0.33887  -0.33778  -0.32028  -0.31467
 Alpha  occ. eigenvalues --   -0.30932  -0.29716  -0.28279  -0.26240  -0.24023
 Alpha  occ. eigenvalues --   -0.20807
 Alpha virt. eigenvalues --   -0.04023  -0.00351   0.02557   0.03278   0.05585
 Alpha virt. eigenvalues --    0.07543   0.09024   0.10016   0.10881   0.11039
 Alpha virt. eigenvalues --    0.11683   0.12050   0.12342   0.12552   0.12850

 Mulliken charges:
               1
     1  O   -0.541861
     2  O   -0.544602
     3  C   -0.005436
     4  C   -0.006734
     5  C   -0.200361
     6  C   -0.150868
     7  C    0.156634
     8  C    0.160612
     9  C    0.073053
    10  C    0.039580
    11  C   -0.200077
    12  C   -0.255563
    13  C    0.033587
    14  C    0.081571
    15  C   -0.297176
    16  C   -0.294257
    17  C   -0.303040
    18  C   -0.279849
    19  C   -0.119641
    20  C   -0.146565
    21  C   -0.344293
    22  C   -0.365884
    23  C   -0.081549
    24  C   -0.074653
    25  C    0.063434
    26  C    0.121961
    27  C   -0.373358
    28  C   -0.364405
    29  C   -0.126399
    30  C   -0.134380
    31  C   -0.079509
    32  C   -0.089439
    33  C   -0.094112
    34  C   -0.088056
    35  C    0.103826
    36  C    0.110874
    37  C   -0.351103
    38  C   -0.354877
    39  C   -0.130962
    40  C   -0.121406
    41  C   -0.095751
    42  C   -0.093544
    43  H    0.101633
    44  H    0.068349
    45  H    0.090563
    46  H    0.081876
    47  H    0.067494
    48  H    0.079783
    49  H    0.132179
    50  H    0.116228
    51  H    0.122149
    52  H    0.111596
    53  H    0.096689
    54  H    0.101497
    55  H    0.102725
    56  H    0.091621
    57  H    0.101463
    58  H    0.064508
    59  H    0.105370
    60  H    0.093646
    61  H    0.100536
    62  H    0.059676
    63  H    0.101310
    64  H    0.084181
    65  H    0.089069
    66  H    0.085022
    67  H    0.133071
    68  H    0.083840
    69  H    0.088121
    70  H    0.091400
    71  H    0.121604
    72  H    0.107966
    73  H    0.302998
    74  H    0.282434
    75  H    0.086073
    76  H    0.095214
    77  H    0.119510
    78  H    0.108358
    79  H    0.108850
    80  H    0.136894
    81  H    0.102469
    82  H    0.105794
    83  H    0.083427
    84  H    0.064167
    85  H    0.087552
    86  H    0.062116
    87  H    0.089635
    88  H    0.068434
    89  H    0.098825
    90  H    0.117511
    91  H    0.115639
    92  H    0.116309
    93  H    0.102793
    94  H    0.110314
    95  H    0.081925
    96  H    0.074866
    97  H    0.072664
    98  H    0.094643
 Sum of Mulliken charges =  -0.00000

 Dipole moment (field-independent basis, Debye):
    X=              0.9819    Y=             -0.3588    Z=              2.0595  Tot=              2.3096
 Quadrupole moment (field-independent basis, Debye-Ang):
   XX=           -291.4875   YY=           -241.2182   ZZ=           -259.0773
   XY=             -7.1085   XZ=             -9.7998   YZ=              3.4480

 Normal termination of Gaussian 16 at Fri Jul  5 09:40:50 2019.
