 Gaussian 16, Revision A.03,
 Gaussian 16:  ES64L-G16RevA.03 25-Dec-2016

 -------------------------------------
 # td=(NStates=1) CAM-B3LYP/6-31G(d,p)
 -------------------------------------

 --
 TD
 --
 Symbolic Z-matrix:
 Charge =  0 Multiplicity = 1

                         Standard orientation:
 ---------------------------------------------------------------------
 Center     Atomic      Atomic             Coordinates (Angstroms)
 Number     Number       Type             X           Y           Z
 ---------------------------------------------------------------------
      1          8           0       14.796805   -1.979145   -0.165510
      2          8           0      -14.700480    2.031975    0.740302
      3          6           0       11.459219   -1.158362    1.129617
      4          6           0      -12.398862   -0.944387    0.713087
      5          6           0       12.917656   -1.416350    1.111255
      6          6           0      -13.688434   -0.093671    0.603268
      7          6           0       13.468132   -1.832539   -0.299650
      8          6           0      -13.491129    1.371026    0.771603
      9          6           0       11.005109   -0.306367   -0.080617
     10          6           0      -11.358813   -0.293657   -0.194899
     11          6           0       13.172008   -0.715698   -1.281734
     12          6           0      -12.695494    1.847611   -0.444235
     13          6           0       11.782927   -0.174852   -1.131101
     14          6           0      -11.450155    0.963304   -0.677501
     15          6           0       11.055026   -0.457051    2.465435
     16          6           0       10.583368   -2.482383    1.135119
     17          6           0      -11.864930   -1.010224    2.153019
     18          6           0      -12.697391   -2.405527    0.185484
     19          6           0        9.619226    0.211657    0.020826
     20          6           0      -10.110149   -0.980258   -0.384127
     21          6           0       11.337712    0.641823   -2.363689
     22          6           0      -10.482684    1.645636   -1.604171
     23          6           0        9.356584    1.525547    0.019614
     24          6           0       -8.782593   -0.621144   -0.214332
     25          6           0        7.960934    2.206696    0.138828
     26          6           0       -7.600016   -1.361444   -0.525898
     27          6           0        8.055695    3.643143    0.341920
     28          6           0       -7.756636   -2.778775   -1.106938
     29          6           0        6.866735    1.449123   -0.029207
     30          6           0       -6.457616   -0.711225   -0.336746
     31          6           0        5.519721    1.953648    0.117955
     32          6           0       -5.137636   -1.192063   -0.398724
     33          6           0        4.475009    1.230108   -0.035301
     34          6           0       -3.975038   -0.521439   -0.079168
     35          6           0        3.082561    1.698564    0.100741
     36          6           0       -2.628331   -0.848500   -0.308794
     37          6           0        2.805680    3.086499    0.544463
     38          6           0       -2.381886   -2.153446   -1.014336
     39          6           0        2.027988    0.824626   -0.010146
     40          6           0       -1.674228    0.024872    0.014372
     41          6           0        0.691281    0.966202    0.072527
     42          6           0       -0.246421   -0.101018   -0.110988
     43          1           0       13.378652   -0.566736    1.666270
     44          1           0       13.002266   -2.447921    1.818681
     45          1           0      -14.343836   -0.533249    1.448394
     46          1           0      -14.095046   -0.389316   -0.471760
     47          1           0       13.037144   -2.656967   -0.688892
     48          1           0      -12.712586    1.560225    1.535659
     49          1           0       13.842729    0.136378   -1.213072
     50          1           0       13.319195   -1.147469   -2.270794
     51          1           0      -13.648575    2.155023   -1.285515
     52          1           0      -12.500494    3.106814   -0.125235
     53          1           0       11.409261   -0.973147    3.324177
     54          1           0       10.068660   -0.481595    2.591809
     55          1           0       11.365482    0.797022    2.279517
     56          1           0       11.078049   -3.001297    0.353494
     57          1           0       11.085321   -3.116300    1.927547
     58          1           0        9.573612   -2.462911    1.236587
     59          1           0      -11.537065    0.021580    2.477194
     60          1           0      -10.865207   -1.677174    2.103224
     61          1           0      -12.691802   -1.349545    2.770317
     62          1           0      -13.614043   -2.700823    0.692820
     63          1           0      -11.817714   -3.028149    0.690534
     64          1           0      -12.810039   -2.692230   -1.072682
     65          1           0        8.705207   -0.316962    0.185425
     66          1           0      -10.163348   -2.139332   -0.526475
     67          1           0       10.283182    1.156398   -2.362385
     68          1           0       12.127588    1.386269   -2.242465
     69          1           0       11.488804    0.022298   -3.445197
     70          1           0      -11.147602    1.913330   -2.513679
     71          1           0       -9.775238    1.025503   -2.080995
     72          1           0       -9.907525    2.495977   -1.160357
     73          1           0       14.870070   -2.569921    0.533384
     74          1           0      -15.162732    1.597635    1.553315
     75          1           0       10.080331    2.325644   -0.269994
     76          1           0       -8.710851    0.370935    0.036185
     77          1           0        8.712945    4.006891   -0.236032
     78          1           0        7.098567    4.184278    0.006769
     79          1           0        8.239831    3.807432    1.250577
     80          1           0       -8.478710   -3.369125   -0.506428
     81          1           0       -8.324147   -2.782072   -2.109615
     82          1           0       -6.821182   -3.271313   -1.213640
     83          1           0        6.842599    0.340916   -0.394266
     84          1           0       -6.694320    0.251752   -0.149993
     85          1           0        5.584169    3.055588    0.296814
     86          1           0       -5.026177   -2.274237   -0.723231
     87          1           0        4.646032    0.263562   -0.417084
     88          1           0       -4.283493    0.679412   -0.008449
     89          1           0        3.067799    3.276274    1.642237
     90          1           0        1.664506    3.393897    0.416381
     91          1           0        3.471519    3.807005   -0.145237
     92          1           0       -2.883837   -3.075592   -0.473140
     93          1           0       -2.765807   -2.265274   -2.057471
     94          1           0       -1.305487   -2.531198   -1.106522
     95          1           0        2.481607   -0.206601   -0.343838
     96          1           0       -1.734347    1.192104    0.301800
     97          1           0        0.277842    1.973705    0.239879
     98          1           0        0.062862   -1.078261   -0.403890
 ---------------------------------------------------------------------

 SCF Done:  E(RCAM-B3LYP) =  -1706.92674901     A.U. after   14 cycles

 Excitation energies and oscillator strengths:

 Excited State   1:      Singlet-A      2.5307 eV  489.93 nm  f=3.6532  <S**2>=0.000
     155 ->158        -0.14891
     156 ->157         0.68962
 This state for optimization and/or second-order correction.
 Total Energy, E(TD-HF/TD-DFT) =  -1706.83374875
 Copying the excited state density for this state as the 1-particle RhoCI density.

 The electronic state is 1-A.
 Alpha  occ. eigenvalues --  -19.22716 -19.20849 -10.29784 -10.29756 -10.28140
 Alpha  occ. eigenvalues --  -10.27934 -10.27649 -10.27620 -10.27501 -10.27424
 Alpha  occ. eigenvalues --  -10.27306 -10.27280 -10.27267 -10.27098 -10.27042
 Alpha  occ. eigenvalues --  -10.27026 -10.26978 -10.26893 -10.26773 -10.26679
 Alpha  occ. eigenvalues --  -10.26616 -10.26532 -10.26418 -10.26290 -10.26290
 Alpha  occ. eigenvalues --  -10.26211 -10.26200 -10.26141 -10.26124 -10.26048
 Alpha  occ. eigenvalues --  -10.25954 -10.25865 -10.25500 -10.25416 -10.25262
 Alpha  occ. eigenvalues --  -10.25175 -10.25026 -10.24902 -10.24609 -10.24519
 Alpha  occ. eigenvalues --  -10.24026 -10.23536  -1.13636  -1.10908  -0.93865
 Alpha  occ. eigenvalues --   -0.93780  -0.92529  -0.92207  -0.91200  -0.90465
 Alpha  occ. eigenvalues --   -0.87546  -0.87199  -0.86676  -0.85476  -0.85034
 Alpha  occ. eigenvalues --   -0.83778  -0.82121  -0.80632  -0.79459  -0.78367
 Alpha  occ. eigenvalues --   -0.77192  -0.76951  -0.76313  -0.75916  -0.75821
 Alpha  occ. eigenvalues --   -0.75153  -0.74684  -0.73957  -0.73739  -0.71048
 Alpha  occ. eigenvalues --   -0.69077  -0.67777  -0.66329  -0.64543  -0.63527
 Alpha  occ. eigenvalues --   -0.63370  -0.62252  -0.61292  -0.60759  -0.60517
 Alpha  occ. eigenvalues --   -0.60094  -0.59775  -0.58808  -0.57465  -0.56384
 Alpha  occ. eigenvalues --   -0.55704  -0.55506  -0.54933  -0.54372  -0.53862
 Alpha  occ. eigenvalues --   -0.53427  -0.52942  -0.52882  -0.52441  -0.52194
 Alpha  occ. eigenvalues --   -0.52110  -0.50520  -0.49680  -0.49545  -0.49128
 Alpha  occ. eigenvalues --   -0.48817  -0.48366  -0.48196  -0.48049  -0.47840
 Alpha  occ. eigenvalues --   -0.47596  -0.47391  -0.46848  -0.46622  -0.46499
 Alpha  occ. eigenvalues --   -0.46256  -0.46002  -0.45751  -0.45384  -0.45022
 Alpha  occ. eigenvalues --   -0.44857  -0.44617  -0.44069  -0.43978  -0.43536
 Alpha  occ. eigenvalues --   -0.43329  -0.42874  -0.42764  -0.42096  -0.42061
 Alpha  occ. eigenvalues --   -0.41492  -0.41439  -0.40850  -0.40710  -0.40538
 Alpha  occ. eigenvalues --   -0.40359  -0.40068  -0.39682  -0.39587  -0.39258
 Alpha  occ. eigenvalues --   -0.38750  -0.38691  -0.38393  -0.37805  -0.37458
 Alpha  occ. eigenvalues --   -0.37325  -0.36962  -0.36699  -0.35712  -0.35555
 Alpha  occ. eigenvalues --   -0.35194  -0.34675  -0.33662  -0.32610  -0.32464
 Alpha  occ. eigenvalues --   -0.32334  -0.29784  -0.28712  -0.26835  -0.24312
 Alpha  occ. eigenvalues --   -0.20334
 Alpha virt. eigenvalues --   -0.05111  -0.00183   0.02683   0.05982   0.08265
 Alpha virt. eigenvalues --    0.09460   0.10754   0.10997   0.11425   0.11880
 Alpha virt. eigenvalues --    0.12091   0.12592   0.12890   0.13278   0.13768

 Mulliken charges:
               1
     1  O   -0.526067
     2  O   -0.545589
     3  C   -0.020356
     4  C   -0.035840
     5  C   -0.222140
     6  C   -0.185051
     7  C    0.192059
     8  C    0.192258
     9  C    0.071029
    10  C    0.111249
    11  C   -0.222766
    12  C   -0.216681
    13  C    0.032903
    14  C    0.038031
    15  C   -0.277390
    16  C   -0.303296
    17  C   -0.288684
    18  C   -0.286186
    19  C   -0.121616
    20  C   -0.168975
    21  C   -0.335514
    22  C   -0.356434
    23  C   -0.089943
    24  C   -0.100703
    25  C    0.039769
    26  C    0.135616
    27  C   -0.345396
    28  C   -0.374288
    29  C   -0.119622
    30  C   -0.096551
    31  C   -0.049537
    32  C   -0.095154
    33  C   -0.116553
    34  C   -0.116861
    35  C    0.107776
    36  C    0.125575
    37  C   -0.365060
    38  C   -0.382580
    39  C   -0.098542
    40  C   -0.108210
    41  C   -0.102440
    42  C   -0.080937
    43  H    0.118547
    44  H    0.038671
    45  H    0.055363
    46  H    0.100016
    47  H    0.088563
    48  H    0.085855
    49  H    0.123541
    50  H    0.110501
    51  H    0.090354
    52  H    0.061744
    53  H    0.098917
    54  H    0.112124
    55  H    0.056291
    56  H    0.102239
    57  H    0.083203
    58  H    0.118188
    59  H    0.108966
    60  H    0.101939
    61  H    0.105276
    62  H    0.105026
    63  H    0.088201
    64  H    0.086774
    65  H    0.090253
    66  H    0.060008
    67  H    0.112567
    68  H    0.114543
    69  H    0.078158
    70  H    0.104916
    71  H    0.122531
    72  H    0.115255
    73  H    0.296058
    74  H    0.307371
    75  H    0.071854
    76  H    0.075128
    77  H    0.128718
    78  H    0.097838
    79  H    0.144279
    80  H    0.117725
    81  H    0.119252
    82  H    0.113221
    83  H    0.078257
    84  H    0.070625
    85  H    0.073712
    86  H    0.071879
    87  H    0.078219
    88  H    0.065296
    89  H    0.124302
    90  H    0.097189
    91  H    0.096488
    92  H    0.105055
    93  H    0.132132
    94  H    0.106853
    95  H    0.064115
    96  H    0.075464
    97  H    0.084214
    98  H    0.074922
 Sum of Mulliken charges =  -0.00000

 Dipole moment (field-independent basis, Debye):
    X=              0.7269    Y=             -1.4920    Z=              1.1480  Tot=              2.0180
 Quadrupole moment (field-independent basis, Debye-Ang):
   XX=           -273.8375   YY=           -246.6311   ZZ=           -261.4268
   XY=             15.9783   XZ=             -6.9340   YZ=              2.6767

 Normal termination of Gaussian 16 at Mon Jul  8 12:53:32 2019.
