 Gaussian 16, Revision A.03,
 Gaussian 16:  ES64L-G16RevA.03 25-Dec-2016

 -------------------------------------
 # td=(NStates=1) CAM-B3LYP/6-31G(d,p)
 -------------------------------------

 --
 TD
 --
 Symbolic Z-matrix:
 Charge =  0 Multiplicity = 1

                         Standard orientation:
 ---------------------------------------------------------------------
 Center     Atomic      Atomic             Coordinates (Angstroms)
 Number     Number       Type             X           Y           Z
 ---------------------------------------------------------------------
      1          8           0       14.597061   -2.159537   -0.513724
      2          8           0      -14.628986    2.191540    0.570279
      3          6           0       11.518588   -0.980912    1.235296
      4          6           0      -12.242914   -0.754845    0.919898
      5          6           0       12.869627   -1.305173    0.952641
      6          6           0      -13.621612   -0.096122    0.803965
      7          6           0       13.277245   -1.960165   -0.363659
      8          6           0      -13.441766    1.433945    0.634096
      9          6           0       10.860037   -0.252833    0.012413
     10          6           0      -11.311465   -0.202530   -0.162286
     11          6           0       12.837178   -0.934936   -1.451949
     12          6           0      -12.797172    1.814356   -0.665694
     13          6           0       11.490514   -0.256891   -1.198296
     14          6           0      -11.590128    0.821872   -1.010957
     15          6           0       11.409410   -0.174616    2.570099
     16          6           0       10.763074   -2.296753    1.523686
     17          6           0      -11.620867   -0.730923    2.257425
     18          6           0      -12.636540   -2.267165    0.615333
     19          6           0        9.620305    0.425944    0.373005
     20          6           0      -10.114520   -1.037044   -0.414378
     21          6           0       10.967774    0.425293   -2.412989
     22          6           0      -10.605262    1.297886   -2.015829
     23          6           0        9.336416    1.668630   -0.073351
     24          6           0       -8.822943   -0.660444   -0.173461
     25          6           0        7.995793    2.319454    0.116765
     26          6           0       -7.589203   -1.452486   -0.345716
     27          6           0        8.109471    3.871901    0.467357
     28          6           0       -7.735288   -2.874605   -0.657596
     29          6           0        6.833857    1.591987   -0.079949
     30          6           0       -6.436021   -0.677503   -0.239600
     31          6           0        5.505568    2.062157    0.025092
     32          6           0       -5.074574   -1.326176   -0.515188
     33          6           0        4.464057    1.270141   -0.045807
     34          6           0       -3.919232   -0.506506   -0.414899
     35          6           0        3.051993    1.577056    0.041570
     36          6           0       -2.542813   -0.942070   -0.474724
     37          6           0        2.776191    2.937574    0.554442
     38          6           0       -2.237635   -2.353596   -0.835079
     39          6           0        2.111370    0.678194   -0.220546
     40          6           0       -1.553127   -0.048790   -0.213339
     41          6           0        0.695560    0.774190    0.010338
     42          6           0       -0.156048   -0.205558   -0.184742
     43          1           0       13.553851   -0.191119    0.872637
     44          1           0       13.385261   -2.026327    1.664050
     45          1           0      -14.162136   -0.284172    1.651576
     46          1           0      -14.229096   -0.275906   -0.160613
     47          1           0       12.801815   -2.878653   -0.583252
     48          1           0      -12.881184    1.458575    1.504197
     49          1           0       13.846064   -0.418742   -1.523741
     50          1           0       12.665987   -1.423430   -2.481502
     51          1           0      -13.499963    1.689852   -1.463878
     52          1           0      -12.624222    2.926413   -0.821756
     53          1           0       11.926295   -0.534680    3.323384
     54          1           0       10.452472   -0.093103    2.850957
     55          1           0       11.691338    0.930375    2.497197
     56          1           0       10.718801   -2.904452    0.719763
     57          1           0       11.259050   -2.989431    2.312799
     58          1           0        9.762275   -2.295683    2.026784
     59          1           0      -11.428878    0.390407    2.409496
     60          1           0      -10.545683   -1.067425    2.342589
     61          1           0      -12.329422   -1.069122    3.049495
     62          1           0      -13.665155   -2.344707    1.279370
     63          1           0      -12.029495   -3.068360    0.785417
     64          1           0      -12.901386   -2.324058   -0.394838
     65          1           0        8.674447   -0.079401    0.878312
     66          1           0      -10.459283   -2.194022   -0.580621
     67          1           0       10.042584    0.795689   -2.205162
     68          1           0       11.492971    1.270833   -2.682457
     69          1           0       11.198161   -0.219582   -3.305680
     70          1           0      -11.272484    1.680043   -2.812929
     71          1           0       -9.561669    1.007384   -2.399082
     72          1           0      -10.177297    2.106521   -1.730940
     73          1           0       14.855608   -3.082872   -0.064704
     74          1           0      -15.229503    1.859712    1.362847
     75          1           0       10.073902    2.570607   -0.440020
     76          1           0       -8.580048    0.286464    0.107079
     77          1           0        8.653525    4.349881   -0.313519
     78          1           0        7.136116    4.323134    0.585144
     79          1           0        8.401563    4.008788    1.561693
     80          1           0       -8.278900   -3.385080    0.222632
     81          1           0       -8.332947   -3.305215   -1.593694
     82          1           0       -6.774114   -3.422945   -0.773367
     83          1           0        7.024316    0.528922   -0.229128
     84          1           0       -6.622488    0.244892    0.147009
     85          1           0        5.240785    3.157625    0.322615
     86          1           0       -5.009787   -2.260667   -0.745444
     87          1           0        4.443188    0.126483   -0.310130
     88          1           0       -4.024011    0.528877   -0.136854
     89          1           0        2.972253    3.077502    1.807875
     90          1           0        1.727855    3.445540    0.458306
     91          1           0        3.550230    3.878307    0.196037
     92          1           0       -2.739162   -3.057009   -0.079891
     93          1           0       -2.692437   -2.453756   -1.722992
     94          1           0       -1.147949   -2.460926   -0.686648
     95          1           0        2.518765   -0.483229   -0.389149
     96          1           0       -1.883299    0.905284    0.210585
     97          1           0        0.334000    1.840815    0.120074
     98          1           0        0.264533   -1.082500   -0.750697
 ---------------------------------------------------------------------

 SCF Done:  E(RCAM-B3LYP) =  -1706.91327780     A.U. after   14 cycles

 Excitation energies and oscillator strengths:

 Excited State   1:      Singlet-A      2.8515 eV  434.80 nm  f=3.6732  <S**2>=0.000
     155 ->158        -0.17829
     156 ->157         0.67822
 This state for optimization and/or second-order correction.
 Total Energy, E(TD-HF/TD-DFT) =  -1706.80848574
 Copying the excited state density for this state as the 1-particle RhoCI density.

 The electronic state is 1-A.
 Alpha  occ. eigenvalues --  -19.22341 -19.22058 -10.29238 -10.29197 -10.29060
 Alpha  occ. eigenvalues --  -10.27794 -10.27477 -10.27460 -10.27396 -10.27364
 Alpha  occ. eigenvalues --  -10.27271 -10.27055 -10.27026 -10.26959 -10.26863
 Alpha  occ. eigenvalues --  -10.26842 -10.26840 -10.26835 -10.26801 -10.26696
 Alpha  occ. eigenvalues --  -10.26606 -10.26550 -10.26433 -10.26199 -10.26186
 Alpha  occ. eigenvalues --  -10.26135 -10.26080 -10.25988 -10.25622 -10.25619
 Alpha  occ. eigenvalues --  -10.25514 -10.25461 -10.25412 -10.25366 -10.25223
 Alpha  occ. eigenvalues --  -10.25001 -10.24790 -10.24353 -10.24206 -10.23555
 Alpha  occ. eigenvalues --  -10.23061 -10.22298  -1.11237  -1.08793  -0.93507
 Alpha  occ. eigenvalues --   -0.93409  -0.92716  -0.91703  -0.90525  -0.89597
 Alpha  occ. eigenvalues --   -0.87745  -0.87050  -0.86880  -0.85015  -0.84330
 Alpha  occ. eigenvalues --   -0.82755  -0.81986  -0.80079  -0.79898  -0.78170
 Alpha  occ. eigenvalues --   -0.77159  -0.76720  -0.76685  -0.76374  -0.76185
 Alpha  occ. eigenvalues --   -0.75445  -0.74950  -0.74807  -0.74189  -0.70787
 Alpha  occ. eigenvalues --   -0.68751  -0.67210  -0.65905  -0.65096  -0.64763
 Alpha  occ. eigenvalues --   -0.63646  -0.63151  -0.61364  -0.60689  -0.59954
 Alpha  occ. eigenvalues --   -0.59663  -0.58671  -0.58493  -0.57120  -0.56435
 Alpha  occ. eigenvalues --   -0.56003  -0.55668  -0.54675  -0.54419  -0.54039
 Alpha  occ. eigenvalues --   -0.53570  -0.53095  -0.52529  -0.51960  -0.50733
 Alpha  occ. eigenvalues --   -0.50557  -0.50381  -0.50061  -0.49850  -0.49588
 Alpha  occ. eigenvalues --   -0.49426  -0.48637  -0.48246  -0.47981  -0.47755
 Alpha  occ. eigenvalues --   -0.47363  -0.46999  -0.46775  -0.46365  -0.45879
 Alpha  occ. eigenvalues --   -0.45783  -0.45509  -0.45319  -0.45172  -0.44849
 Alpha  occ. eigenvalues --   -0.44606  -0.43926  -0.43751  -0.43562  -0.43373
 Alpha  occ. eigenvalues --   -0.42962  -0.42788  -0.42196  -0.42115  -0.41877
 Alpha  occ. eigenvalues --   -0.41617  -0.41558  -0.41025  -0.40676  -0.40519
 Alpha  occ. eigenvalues --   -0.40313  -0.39917  -0.39807  -0.39485  -0.39293
 Alpha  occ. eigenvalues --   -0.39075  -0.38544  -0.38472  -0.38339  -0.37891
 Alpha  occ. eigenvalues --   -0.37590  -0.37335  -0.36578  -0.36523  -0.35776
 Alpha  occ. eigenvalues --   -0.34957  -0.34517  -0.33108  -0.31998  -0.31446
 Alpha  occ. eigenvalues --   -0.30449  -0.29204  -0.27945  -0.26661  -0.24318
 Alpha  occ. eigenvalues --   -0.21233
 Alpha virt. eigenvalues --   -0.04174  -0.00221   0.02892   0.05896   0.07725
 Alpha virt. eigenvalues --    0.08952   0.09999   0.10735   0.10996   0.11071
 Alpha virt. eigenvalues --    0.11728   0.12259   0.12533   0.12669   0.12895

 Mulliken charges:
               1
     1  O   -0.548903
     2  O   -0.562206
     3  C    0.021312
     4  C   -0.017396
     5  C   -0.164230
     6  C   -0.210111
     7  C    0.177215
     8  C    0.180715
     9  C    0.050783
    10  C    0.022185
    11  C   -0.239502
    12  C   -0.225354
    13  C    0.062833
    14  C    0.052430
    15  C   -0.291392
    16  C   -0.314128
    17  C   -0.299915
    18  C   -0.288609
    19  C   -0.139642
    20  C   -0.140801
    21  C   -0.355355
    22  C   -0.365177
    23  C   -0.092359
    24  C   -0.085052
    25  C    0.033510
    26  C    0.143497
    27  C   -0.367074
    28  C   -0.384249
    29  C   -0.104421
    30  C   -0.130278
    31  C   -0.085657
    32  C   -0.083926
    33  C   -0.092861
    34  C   -0.109606
    35  C    0.186224
    36  C    0.104743
    37  C   -0.376039
    38  C   -0.360979
    39  C   -0.166940
    40  C   -0.133919
    41  C   -0.071114
    42  C   -0.085481
    43  H    0.054437
    44  H    0.060390
    45  H    0.085289
    46  H    0.099055
    47  H    0.071865
    48  H    0.080849
    49  H    0.126180
    50  H    0.081135
    51  H    0.122578
    52  H    0.113871
    53  H    0.108916
    54  H    0.107525
    55  H    0.087190
    56  H    0.113044
    57  H    0.078579
    58  H    0.098164
    59  H    0.090283
    60  H    0.121122
    61  H    0.099481
    62  H    0.066157
    63  H    0.103809
    64  H    0.113200
    65  H    0.101911
    66  H    0.075465
    67  H    0.121171
    68  H    0.125696
    69  H    0.096020
    70  H    0.092805
    71  H    0.116777
    72  H    0.135782
    73  H    0.313508
    74  H    0.300379
    75  H    0.086501
    76  H    0.072695
    77  H    0.127689
    78  H    0.111620
    79  H    0.122696
    80  H    0.117709
    81  H    0.114224
    82  H    0.105691
    83  H    0.086590
    84  H    0.086651
    85  H    0.083047
    86  H    0.073940
    87  H    0.066877
    88  H    0.079005
    89  H    0.094477
    90  H    0.108240
    91  H    0.086029
    92  H    0.110031
    93  H    0.135163
    94  H    0.110418
    95  H    0.065274
    96  H    0.074085
    97  H    0.086591
    98  H    0.089353
 Sum of Mulliken charges =  -0.00000

 Dipole moment (field-independent basis, Debye):
    X=             -0.1971    Y=             -1.5875    Z=              1.9399  Tot=              2.5144
 Quadrupole moment (field-independent basis, Debye-Ang):
   XX=           -272.0022   YY=           -241.3865   ZZ=           -261.4861
   XY=             -0.7960   XZ=             -9.1030   YZ=              1.1229

 Normal termination of Gaussian 16 at Sat Jun 29 17:23:56 2019.
