 Gaussian 16, Revision A.03,
 Gaussian 16:  ES64L-G16RevA.03 25-Dec-2016

 -------------------------------------
 # td=(NStates=1) CAM-B3LYP/6-31G(d,p)
 -------------------------------------

 --
 TD
 --
 Symbolic Z-matrix:
 Charge =  0 Multiplicity = 1

                         Standard orientation:
 ---------------------------------------------------------------------
 Center     Atomic      Atomic             Coordinates (Angstroms)
 Number     Number       Type             X           Y           Z
 ---------------------------------------------------------------------
      1          8           0       14.847538   -1.941637   -0.240858
      2          8           0      -14.690762    2.124489    1.046516
      3          6           0       11.394772   -1.106202    1.263389
      4          6           0      -12.403838   -0.907388    0.765464
      5          6           0       12.985647   -1.505031    1.097202
      6          6           0      -13.728685   -0.054635    0.664647
      7          6           0       13.432128   -1.802460   -0.240717
      8          6           0      -13.541933    1.381914    0.885525
      9          6           0       11.005237   -0.193288    0.010204
     10          6           0      -11.351996   -0.175536   -0.117764
     11          6           0       13.069057   -0.712929   -1.267122
     12          6           0      -12.796723    1.839952   -0.401105
     13          6           0       11.838976    0.027555   -1.055697
     14          6           0      -11.585668    0.978825   -0.839512
     15          6           0       11.304041   -0.402148    2.597483
     16          6           0       10.504808   -2.321169    1.294695
     17          6           0      -11.835937   -1.060194    2.167142
     18          6           0      -12.627484   -2.350328    0.304243
     19          6           0        9.616741    0.327510    0.101768
     20          6           0      -10.152257   -1.015384   -0.440096
     21          6           0       11.320470    0.751210   -2.306482
     22          6           0      -10.752718    1.607379   -1.805404
     23          6           0        9.386151    1.681956   -0.038897
     24          6           0       -8.882338   -0.583476   -0.183501
     25          6           0        8.000693    2.215575    0.094715
     26          6           0       -7.693089   -1.323988   -0.425029
     27          6           0        7.984163    3.661427    0.690022
     28          6           0       -7.720410   -2.635098   -0.961532
     29          6           0        6.855256    1.524794   -0.167014
     30          6           0       -6.531121   -0.654389   -0.193709
     31          6           0        5.534572    1.921067    0.081840
     32          6           0       -5.156363   -1.155905   -0.458108
     33          6           0        4.499572    1.027426   -0.239096
     34          6           0       -3.990128   -0.410056   -0.319332
     35          6           0        3.124780    1.409890   -0.016356
     36          6           0       -2.631517   -0.831339   -0.492283
     37          6           0        2.741519    2.830361    0.463260
     38          6           0       -2.342799   -2.223093   -1.060826
     39          6           0        2.131455    0.514018   -0.223683
     40          6           0       -1.558725   -0.008203   -0.238127
     41          6           0        0.704164    0.626123   -0.201884
     42          6           0       -0.157744   -0.268133   -0.440039
     43          1           0       13.342605   -0.490048    1.318126
     44          1           0       13.346336   -2.259381    1.776183
     45          1           0      -14.128460   -0.517984    1.499648
     46          1           0      -14.204450   -0.377239   -0.347016
     47          1           0       12.909249   -2.714020   -0.744515
     48          1           0      -12.607020    1.630876    1.538951
     49          1           0       14.056112   -0.014403   -1.037962
     50          1           0       13.459479   -1.006279   -2.248382
     51          1           0      -13.436996    1.870312   -1.424693
     52          1           0      -12.375511    2.815189   -0.267908
     53          1           0       11.511946   -0.987315    3.509921
     54          1           0       10.183261    0.015954    2.696344
     55          1           0       12.006606    0.475508    2.542500
     56          1           0       10.820245   -3.008726    0.257143
     57          1           0       10.810495   -3.082682    2.029697
     58          1           0        9.524105   -2.038969    1.415085
     59          1           0      -11.525488   -0.018244    2.352373
     60          1           0      -10.919729   -1.727377    2.216994
     61          1           0      -12.596601   -1.552646    2.717046
     62          1           0      -13.684704   -2.671710    0.844382
     63          1           0      -11.922946   -3.024290    0.657689
     64          1           0      -12.916832   -2.533362   -0.748308
     65          1           0        8.720003   -0.428442    0.220861
     66          1           0      -10.335856   -2.058269   -0.805424
     67          1           0       10.181037    0.699398   -2.260112
     68          1           0       11.809852    1.669569   -2.449722
     69          1           0       11.592973    0.121548   -3.244869
     70          1           0      -11.403738    1.976493   -2.555855
     71          1           0       -9.778240    1.097817   -2.494547
     72          1           0      -10.229754    2.368297   -1.334442
     73          1           0       15.008896   -2.694655    0.298662
     74          1           0      -14.757924    2.250046    2.205429
     75          1           0       10.187755    2.545608    0.047063
     76          1           0       -8.650847    0.421575    0.122257
     77          1           0        8.651911    4.509246    0.012076
     78          1           0        6.873245    3.946434    0.608068
     79          1           0        8.451810    3.605926    1.525738
     80          1           0       -8.335080   -3.339502   -0.226768
     81          1           0       -8.354022   -2.717704   -1.959634
     82          1           0       -6.738279   -3.178540   -1.304443
     83          1           0        7.120992    0.535183   -0.465888
     84          1           0       -6.609589    0.480288    0.042710
     85          1           0        5.569953    2.942644    0.561506
     86          1           0       -4.851993   -2.235836   -0.819002
     87          1           0        4.622663   -0.074388   -0.705798
     88          1           0       -4.232254    0.632801    0.035363
     89          1           0        3.405990    3.076486    1.435517
     90          1           0        1.585034    2.954546    0.811749
     91          1           0        3.115737    3.635100   -0.323704
     92          1           0       -2.414035   -2.911487   -0.125834
     93          1           0       -3.155195   -2.582473   -1.764587
     94          1           0       -1.208865   -2.220948   -1.408373
     95          1           0        2.574049   -0.458463   -0.537789
     96          1           0       -1.853801    0.895766    0.406688
     97          1           0        0.266059    1.777298   -0.002500
     98          1           0        0.309229   -1.246999   -0.632639
 ---------------------------------------------------------------------

 SCF Done:  E(RCAM-B3LYP) =  -1706.93248769     A.U. after   14 cycles

 Excitation energies and oscillator strengths:

 Excited State   1:      Singlet-A      2.7426 eV  452.07 nm  f=3.7671  <S**2>=0.000
     155 ->158        -0.19629
     156 ->157         0.67156
 This state for optimization and/or second-order correction.
 Total Energy, E(TD-HF/TD-DFT) =  -1706.83169893
 Copying the excited state density for this state as the 1-particle RhoCI density.

 The electronic state is 1-A.
 Alpha  occ. eigenvalues --  -19.23903 -19.21375 -10.31183 -10.30421 -10.28370
 Alpha  occ. eigenvalues --  -10.28310 -10.28036 -10.27998 -10.27770 -10.27496
 Alpha  occ. eigenvalues --  -10.27470 -10.27338 -10.27316 -10.27270 -10.27213
 Alpha  occ. eigenvalues --  -10.27204 -10.27136 -10.27126 -10.27077 -10.26854
 Alpha  occ. eigenvalues --  -10.26684 -10.26490 -10.26418 -10.26415 -10.26374
 Alpha  occ. eigenvalues --  -10.26367 -10.25918 -10.25879 -10.25874 -10.25784
 Alpha  occ. eigenvalues --  -10.25763 -10.25630 -10.25529 -10.25384 -10.25289
 Alpha  occ. eigenvalues --  -10.25230 -10.25219 -10.25176 -10.24951 -10.24771
 Alpha  occ. eigenvalues --  -10.24623 -10.24404  -1.10660  -1.09382  -0.93331
 Alpha  occ. eigenvalues --   -0.93091  -0.92092  -0.91561  -0.90962  -0.89555
 Alpha  occ. eigenvalues --   -0.87798  -0.87416  -0.87050  -0.85344  -0.84336
 Alpha  occ. eigenvalues --   -0.82919  -0.81929  -0.80266  -0.79923  -0.76786
 Alpha  occ. eigenvalues --   -0.76171  -0.76000  -0.75675  -0.75513  -0.75250
 Alpha  occ. eigenvalues --   -0.75219  -0.74756  -0.74672  -0.73559  -0.70081
 Alpha  occ. eigenvalues --   -0.68575  -0.66779  -0.65246  -0.63952  -0.63441
 Alpha  occ. eigenvalues --   -0.63139  -0.62403  -0.60813  -0.59806  -0.58848
 Alpha  occ. eigenvalues --   -0.58592  -0.58449  -0.58038  -0.56938  -0.55403
 Alpha  occ. eigenvalues --   -0.55237  -0.55087  -0.54832  -0.53977  -0.53535
 Alpha  occ. eigenvalues --   -0.53171  -0.52656  -0.52312  -0.51733  -0.51200
 Alpha  occ. eigenvalues --   -0.50742  -0.50182  -0.49775  -0.49758  -0.49397
 Alpha  occ. eigenvalues --   -0.49115  -0.49002  -0.48411  -0.47973  -0.47639
 Alpha  occ. eigenvalues --   -0.47364  -0.47090  -0.47034  -0.46585  -0.46407
 Alpha  occ. eigenvalues --   -0.46371  -0.45815  -0.45326  -0.44978  -0.44700
 Alpha  occ. eigenvalues --   -0.44520  -0.44191  -0.43707  -0.43418  -0.43362
 Alpha  occ. eigenvalues --   -0.43244  -0.42601  -0.42367  -0.42350  -0.41667
 Alpha  occ. eigenvalues --   -0.41549  -0.41388  -0.40876  -0.40801  -0.40518
 Alpha  occ. eigenvalues --   -0.40214  -0.39587  -0.39545  -0.39304  -0.38704
 Alpha  occ. eigenvalues --   -0.38567  -0.38085  -0.38003  -0.37789  -0.37381
 Alpha  occ. eigenvalues --   -0.37238  -0.37207  -0.36381  -0.35483  -0.34927
 Alpha  occ. eigenvalues --   -0.34786  -0.34114  -0.33453  -0.32959  -0.32530
 Alpha  occ. eigenvalues --   -0.31530  -0.29265  -0.27821  -0.26610  -0.23610
 Alpha  occ. eigenvalues --   -0.20752
 Alpha virt. eigenvalues --   -0.04161  -0.00790   0.03127   0.05774   0.06559
 Alpha virt. eigenvalues --    0.07516   0.08510   0.10431   0.10981   0.11679
 Alpha virt. eigenvalues --    0.11892   0.12334   0.12685   0.13240   0.13386

 Mulliken charges:
               1
     1  O   -0.542447
     2  O   -0.540650
     3  C   -0.025464
     4  C   -0.041126
     5  C   -0.176121
     6  C   -0.150966
     7  C    0.165967
     8  C    0.169800
     9  C    0.026842
    10  C    0.019626
    11  C   -0.266973
    12  C   -0.229879
    13  C    0.105324
    14  C    0.070629
    15  C   -0.288378
    16  C   -0.277446
    17  C   -0.289035
    18  C   -0.305621
    19  C   -0.150322
    20  C   -0.158286
    21  C   -0.358343
    22  C   -0.349562
    23  C   -0.090997
    24  C   -0.080526
    25  C    0.038168
    26  C    0.205989
    27  C   -0.341003
    28  C   -0.391212
    29  C   -0.068653
    30  C   -0.172967
    31  C   -0.097363
    32  C   -0.092633
    33  C   -0.135023
    34  C   -0.109571
    35  C    0.151136
    36  C    0.113242
    37  C   -0.357533
    38  C   -0.369129
    39  C   -0.158332
    40  C   -0.146580
    41  C   -0.053921
    42  C   -0.069277
    43  H    0.105560
    44  H    0.078009
    45  H    0.081997
    46  H    0.104415
    47  H    0.062705
    48  H    0.081731
    49  H    0.094986
    50  H    0.125486
    51  H    0.083734
    52  H    0.103531
    53  H    0.108170
    54  H    0.083083
    55  H    0.099450
    56  H    0.060394
    57  H    0.102439
    58  H    0.109531
    59  H    0.098927
    60  H    0.107649
    61  H    0.102561
    62  H    0.066078
    63  H    0.115766
    64  H    0.106186
    65  H    0.111718
    66  H    0.092495
    67  H    0.123854
    68  H    0.125845
    69  H    0.091714
    70  H    0.115788
    71  H    0.085939
    72  H    0.130590
    73  H    0.302325
    74  H    0.309768
    75  H    0.097531
    76  H    0.076612
    77  H    0.077772
    78  H    0.097940
    79  H    0.143895
    80  H    0.101953
    81  H    0.109469
    82  H    0.110000
    83  H    0.062569
    84  H    0.082490
    85  H    0.095973
    86  H    0.069700
    87  H    0.097368
    88  H    0.071418
    89  H    0.098319
    90  H    0.103794
    91  H    0.111423
    92  H    0.116913
    93  H    0.113047
    94  H    0.107657
    95  H    0.061512
    96  H    0.084355
    97  H    0.062495
    98  H    0.091987
 Sum of Mulliken charges =  -0.00000

 Dipole moment (field-independent basis, Debye):
    X=              0.4073    Y=             -1.2240    Z=              2.2710  Tot=              2.6118
 Quadrupole moment (field-independent basis, Debye-Ang):
   XX=           -274.3794   YY=           -245.9823   ZZ=           -259.0642
   XY=             -3.8940   XZ=             -4.0614   YZ=              4.8767

 Normal termination of Gaussian 16 at Thu Jul 11 01:41:39 2019.
