 Gaussian 16, Revision A.03,
 Gaussian 16:  ES64L-G16RevA.03 25-Dec-2016

 -------------------------------------
 # td=(NStates=1) CAM-B3LYP/6-31G(d,p)
 -------------------------------------

 --
 TD
 --
 Symbolic Z-matrix:
 Charge =  0 Multiplicity = 1

                         Standard orientation:
 ---------------------------------------------------------------------
 Center     Atomic      Atomic             Coordinates (Angstroms)
 Number     Number       Type             X           Y           Z
 ---------------------------------------------------------------------
      1          8           0       14.645664   -2.188958   -0.446136
      2          8           0      -14.683665    2.050722    0.710865
      3          6           0       11.480304   -1.108406    1.258741
      4          6           0      -12.322992   -0.926921    0.770800
      5          6           0       12.908574   -1.526658    1.029281
      6          6           0      -13.671752   -0.061522    0.797470
      7          6           0       13.241060   -2.013496   -0.398109
      8          6           0      -13.494114    1.338061    0.749781
      9          6           0       10.988743   -0.303211    0.012964
     10          6           0      -11.291042   -0.264702   -0.199354
     11          6           0       12.932358   -0.832463   -1.390881
     12          6           0      -12.825986    1.763538   -0.579377
     13          6           0       11.667518   -0.198426   -1.198727
     14          6           0      -11.552018    0.901588   -0.797743
     15          6           0       11.346317   -0.345306    2.520692
     16          6           0       10.509246   -2.388762    1.315091
     17          6           0      -11.656964   -0.871171    2.147757
     18          6           0      -12.726406   -2.291261    0.358217
     19          6           0        9.641973    0.397729    0.250398
     20          6           0      -10.128534   -1.032083   -0.490792
     21          6           0       11.100845    0.481604   -2.349137
     22          6           0      -10.788982    1.367732   -2.012200
     23          6           0        9.389708    1.664513   -0.172687
     24          6           0       -8.865934   -0.589218   -0.392707
     25          6           0        8.006930    2.258862    0.045368
     26          6           0       -7.561863   -1.293935   -0.513728
     27          6           0        8.093671    3.779439    0.294019
     28          6           0       -7.639442   -2.697610   -0.971947
     29          6           0        6.938182    1.565505   -0.123660
     30          6           0       -6.449941   -0.622045   -0.189559
     31          6           0        5.552164    2.097233    0.112563
     32          6           0       -5.038117   -1.165725   -0.393254
     33          6           0        4.513942    1.287766   -0.036011
     34          6           0       -3.968415   -0.433918   -0.132823
     35          6           0        3.057923    1.613384    0.240054
     36          6           0       -2.473819   -0.842584   -0.258042
     37          6           0        2.828944    3.068562    0.660381
     38          6           0       -2.242025   -2.266307   -0.785478
     39          6           0        2.159076    0.663999    0.028381
     40          6           0       -1.533565    0.182762   -0.092677
     41          6           0        0.711980    0.813353    0.092994
     42          6           0       -0.194524   -0.147632   -0.217511
     43          1           0       13.549955   -0.577736    1.185744
     44          1           0       13.290001   -2.335774    1.738561
     45          1           0      -14.253968   -0.484809    1.879621
     46          1           0      -14.488010   -0.332218   -0.054662
     47          1           0       12.663696   -2.974164   -0.558181
     48          1           0      -12.769764    1.656167    1.586986
     49          1           0       13.838254   -0.101592   -1.220461
     50          1           0       13.201450   -1.150988   -2.418083
     51          1           0      -13.683323    1.384813   -1.207955
     52          1           0      -12.490975    2.852789   -0.654929
     53          1           0       11.734727   -0.963871    3.314346
     54          1           0       10.261955   -0.172220    2.726932
     55          1           0       11.719603    0.711887    2.122617
     56          1           0       10.620783   -3.240785    0.415548
     57          1           0       10.800225   -2.888114    2.307395
     58          1           0        9.523664   -2.124773    1.223722
     59          1           0      -11.714716    0.038194    2.720035
     60          1           0      -10.515757   -1.301247    2.248483
     61          1           0      -12.278018   -1.574124    2.689744
     62          1           0      -13.533882   -2.733326    1.001347
     63          1           0      -11.917689   -3.135729    0.258234
     64          1           0      -13.148327   -2.443997   -0.687831
     65          1           0        8.724296   -0.012294    0.645319
     66          1           0      -10.141824   -2.196071   -0.853429
     67          1           0       10.091532    0.561184   -2.418571
     68          1           0       11.491784    1.623876   -2.345941
     69          1           0       11.335600   -0.022015   -3.314744
     70          1           0      -11.468387    1.776785   -2.717627
     71          1           0      -10.211638    0.471367   -2.288587
     72          1           0      -10.209395    2.295812   -1.658585
     73          1           0       14.880234   -2.632952    0.371477
     74          1           0      -15.291870    1.466755    1.380478
     75          1           0       10.010106    2.462432   -0.464532
     76          1           0       -8.553157    0.400601    0.181584
     77          1           0        8.417825    4.540297   -0.508600
     78          1           0        7.124309    4.283453    0.450787
     79          1           0        8.728809    4.117703    1.315599
     80          1           0       -8.370208   -3.284437   -0.307808
     81          1           0       -8.203458   -2.886591   -1.950717
     82          1           0       -6.685513   -3.093211   -1.022519
     83          1           0        6.937157    0.611203   -0.435663
     84          1           0       -6.538649    0.286663    0.322557
     85          1           0        5.526412    3.161263    0.325474
     86          1           0       -4.846811   -2.196602   -0.680903
     87          1           0        4.660977    0.220667   -0.291268
     88          1           0       -4.075008    0.435104    0.188781
     89          1           0        3.555008    3.424254    1.323185
     90          1           0        1.844533    3.238206    1.129408
     91          1           0        3.110956    3.816630   -0.098230
     92          1           0       -3.082389   -2.731483   -0.373119
     93          1           0       -2.743609   -2.223178   -1.925185
     94          1           0       -1.153969   -2.573984   -0.529058
     95          1           0        2.534267   -0.213926   -0.380769
     96          1           0       -1.970630    1.013538    0.194769
     97          1           0        0.320929    1.833814    0.312186
     98          1           0        0.287787   -1.110965   -0.242078
 ---------------------------------------------------------------------

 SCF Done:  E(RCAM-B3LYP) =  -1706.98058081     A.U. after   13 cycles

 Excitation energies and oscillator strengths:

 Excited State   1:      Singlet-A      3.2359 eV  383.15 nm  f=3.5023  <S**2>=0.000
     155 ->158         0.16906
     156 ->157         0.67590
 This state for optimization and/or second-order correction.
 Total Energy, E(TD-HF/TD-DFT) =  -1706.86166276
 Copying the excited state density for this state as the 1-particle RhoCI density.

 The electronic state is 1-A.
 Alpha  occ. eigenvalues --  -19.22306 -19.20899 -10.30747 -10.29847 -10.28630
 Alpha  occ. eigenvalues --  -10.28383 -10.27830 -10.27804 -10.27383 -10.27351
 Alpha  occ. eigenvalues --  -10.27222 -10.26974 -10.26900 -10.26764 -10.26689
 Alpha  occ. eigenvalues --  -10.26557 -10.26489 -10.26447 -10.26391 -10.26371
 Alpha  occ. eigenvalues --  -10.26273 -10.26241 -10.26128 -10.26001 -10.25945
 Alpha  occ. eigenvalues --  -10.25916 -10.25854 -10.25828 -10.25755 -10.25739
 Alpha  occ. eigenvalues --  -10.25710 -10.25592 -10.25363 -10.25340 -10.25285
 Alpha  occ. eigenvalues --  -10.25273 -10.25223 -10.25186 -10.24708 -10.24677
 Alpha  occ. eigenvalues --  -10.24595 -10.24152  -1.09883  -1.09775  -0.93712
 Alpha  occ. eigenvalues --   -0.93304  -0.92059  -0.91461  -0.90819  -0.89696
 Alpha  occ. eigenvalues --   -0.87903  -0.87483  -0.86791  -0.85292  -0.84629
 Alpha  occ. eigenvalues --   -0.82851  -0.81636  -0.80232  -0.79740  -0.78774
 Alpha  occ. eigenvalues --   -0.76989  -0.76374  -0.76231  -0.75756  -0.75594
 Alpha  occ. eigenvalues --   -0.75385  -0.74989  -0.74737  -0.74395  -0.69811
 Alpha  occ. eigenvalues --   -0.68462  -0.66852  -0.65344  -0.64634  -0.64086
 Alpha  occ. eigenvalues --   -0.63284  -0.62816  -0.62685  -0.61356  -0.60418
 Alpha  occ. eigenvalues --   -0.59273  -0.58384  -0.57986  -0.57747  -0.56419
 Alpha  occ. eigenvalues --   -0.56252  -0.55960  -0.54865  -0.54552  -0.54201
 Alpha  occ. eigenvalues --   -0.53517  -0.53028  -0.52413  -0.52015  -0.51692
 Alpha  occ. eigenvalues --   -0.50661  -0.50379  -0.49644  -0.49106  -0.48388
 Alpha  occ. eigenvalues --   -0.48091  -0.47832  -0.47593  -0.47232  -0.47179
 Alpha  occ. eigenvalues --   -0.47084  -0.46734  -0.46638  -0.46586  -0.46367
 Alpha  occ. eigenvalues --   -0.46069  -0.45922  -0.45853  -0.45553  -0.45481
 Alpha  occ. eigenvalues --   -0.45161  -0.44699  -0.44560  -0.44435  -0.44057
 Alpha  occ. eigenvalues --   -0.43229  -0.43096  -0.42881  -0.42716  -0.42304
 Alpha  occ. eigenvalues --   -0.41985  -0.41402  -0.41186  -0.41097  -0.40911
 Alpha  occ. eigenvalues --   -0.40863  -0.40040  -0.39726  -0.39485  -0.39138
 Alpha  occ. eigenvalues --   -0.38756  -0.38572  -0.38445  -0.38097  -0.37672
 Alpha  occ. eigenvalues --   -0.37533  -0.36959  -0.36398  -0.36243  -0.35898
 Alpha  occ. eigenvalues --   -0.35579  -0.34443  -0.33748  -0.32272  -0.32079
 Alpha  occ. eigenvalues --   -0.31670  -0.29638  -0.28130  -0.26007  -0.24847
 Alpha  occ. eigenvalues --   -0.21773
 Alpha virt. eigenvalues --   -0.02813   0.00712   0.02688   0.05817   0.07867
 Alpha virt. eigenvalues --    0.09132   0.10427   0.10894   0.11401   0.11664
 Alpha virt. eigenvalues --    0.12176   0.12345   0.12596   0.13278   0.13502

 Mulliken charges:
               1
     1  O   -0.550865
     2  O   -0.549938
     3  C    0.000163
     4  C    0.012129
     5  C   -0.199830
     6  C   -0.198866
     7  C    0.177216
     8  C    0.189292
     9  C    0.010701
    10  C    0.075860
    11  C   -0.247306
    12  C   -0.206130
    13  C    0.114232
    14  C    0.033236
    15  C   -0.286439
    16  C   -0.293909
    17  C   -0.297590
    18  C   -0.314585
    19  C   -0.135356
    20  C   -0.178120
    21  C   -0.359398
    22  C   -0.341364
    23  C   -0.077123
    24  C   -0.070944
    25  C    0.065289
    26  C    0.148353
    27  C   -0.380969
    28  C   -0.377082
    29  C   -0.092117
    30  C   -0.149896
    31  C   -0.081177
    32  C   -0.102590
    33  C   -0.126149
    34  C   -0.062038
    35  C    0.134457
    36  C    0.044880
    37  C   -0.385391
    38  C   -0.359449
    39  C   -0.141526
    40  C   -0.072404
    41  C   -0.097472
    42  C   -0.075102
    43  H    0.094562
    44  H    0.061823
    45  H    0.043257
    46  H    0.088532
    47  H    0.080778
    48  H    0.067486
    49  H    0.115605
    50  H    0.109613
    51  H    0.115872
    52  H    0.109580
    53  H    0.106529
    54  H    0.103983
    55  H    0.103943
    56  H    0.071557
    57  H    0.085412
    58  H    0.118264
    59  H    0.115789
    60  H    0.097372
    61  H    0.095100
    62  H    0.100823
    63  H    0.088454
    64  H    0.106796
    65  H    0.096940
    66  H    0.075707
    67  H    0.133420
    68  H    0.093913
    69  H    0.098979
    70  H    0.115226
    71  H    0.119366
    72  H    0.097437
    73  H    0.301932
    74  H    0.299103
    75  H    0.088835
    76  H    0.063905
    77  H    0.117871
    78  H    0.107322
    79  H    0.093677
    80  H    0.114408
    81  H    0.113648
    82  H    0.112075
    83  H    0.077485
    84  H    0.089197
    85  H    0.077850
    86  H    0.072715
    87  H    0.077955
    88  H    0.046673
    89  H    0.124911
    90  H    0.110348
    91  H    0.122043
    92  H    0.132819
    93  H    0.110780
    94  H    0.116195
    95  H    0.076074
    96  H    0.077842
    97  H    0.077293
    98  H    0.090242
 Sum of Mulliken charges =  -0.00000

 Dipole moment (field-independent basis, Debye):
    X=             -0.6866    Y=             -1.3311    Z=              1.6991  Tot=              2.2650
 Quadrupole moment (field-independent basis, Debye-Ang):
   XX=           -278.2459   YY=           -247.6326   ZZ=           -263.3475
   XY=             25.2062   XZ=              3.5531   YZ=             -0.0667

 Normal termination of Gaussian 16 at Thu Jul 11 02:56:26 2019.
