 Gaussian 16, Revision A.03,
 Gaussian 16:  ES64L-G16RevA.03 25-Dec-2016

 -------------------------------------
 # td=(NStates=1) CAM-B3LYP/6-31G(d,p)
 -------------------------------------

 --
 TD
 --
 Symbolic Z-matrix:
 Charge =  0 Multiplicity = 1

                         Standard orientation:
 ---------------------------------------------------------------------
 Center     Atomic      Atomic             Coordinates (Angstroms)
 Number     Number       Type             X           Y           Z
 ---------------------------------------------------------------------
      1          8           0       14.638465   -2.255723   -0.373230
      2          8           0      -14.664019    2.123448    0.884019
      3          6           0       11.561007   -0.986776    1.303732
      4          6           0      -12.304604   -0.864752    0.919737
      5          6           0       12.956095   -1.386859    1.044189
      6          6           0      -13.589744   -0.102733    0.913358
      7          6           0       13.290762   -1.979913   -0.248564
      8          6           0      -13.369867    1.396431    0.816182
      9          6           0       10.981813   -0.291050    0.036164
     10          6           0      -11.246894   -0.346021   -0.092105
     11          6           0       12.978087   -1.011596   -1.341350
     12          6           0      -12.772165    1.584300   -0.595480
     13          6           0       11.583153   -0.343538   -1.155083
     14          6           0      -11.623899    0.695086   -0.898504
     15          6           0       11.428072   -0.116413    2.542481
     16          6           0       10.660235   -2.244304    1.569647
     17          6           0      -11.558106   -0.822411    2.364111
     18          6           0      -12.635567   -2.415958    0.683203
     19          6           0        9.679412    0.378474    0.244845
     20          6           0      -10.094985   -1.191223   -0.241155
     21          6           0       10.950608    0.142909   -2.436026
     22          6           0      -10.787282    1.118466   -2.236335
     23          6           0        9.268622    1.618537   -0.190522
     24          6           0       -8.850154   -0.601826   -0.354665
     25          6           0        7.945653    2.271102    0.017892
     26          6           0       -7.545598   -1.329821   -0.518989
     27          6           0        8.012427    3.742031    0.176826
     28          6           0       -7.742092   -2.816253   -0.819958
     29          6           0        6.886331    1.522820    0.019691
     30          6           0       -6.383496   -0.626410   -0.561535
     31          6           0        5.582491    1.955043    0.216097
     32          6           0       -5.040190   -1.135019   -0.707072
     33          6           0        4.386352    1.278578    0.053774
     34          6           0       -3.943470   -0.316114   -0.562292
     35          6           0        3.036462    1.790853    0.122741
     36          6           0       -2.655255   -0.731908   -0.568217
     37          6           0        2.786439    3.249881    0.550975
     38          6           0       -2.325098   -2.122544   -0.819130
     39          6           0        2.042817    0.872863   -0.121425
     40          6           0       -1.645957    0.223887   -0.271039
     41          6           0        0.604882    1.029467   -0.128014
     42          6           0       -0.290543    0.027523   -0.287846
     43          1           0       13.848335   -0.795219    1.264434
     44          1           0       13.213494   -2.142639    1.802265
     45          1           0      -14.194573   -0.279041    1.699151
     46          1           0      -14.185609   -0.507337    0.055280
     47          1           0       12.567153   -2.974535   -0.287184
     48          1           0      -12.588166    1.659487    1.497957
     49          1           0       13.872587   -0.102072   -1.105568
     50          1           0       12.906054   -1.476850   -2.186149
     51          1           0      -13.601259    1.474798   -1.338741
     52          1           0      -12.293719    2.619025   -0.536696
     53          1           0       11.823564   -0.593063    3.425067
     54          1           0       10.438279    0.188945    3.004625
     55          1           0       11.984335    0.853754    2.224099
     56          1           0       10.573178   -2.882343    0.817507
     57          1           0       10.842127   -2.868555    2.521417
     58          1           0        9.662095   -1.983604    1.830364
     59          1           0      -11.442870    0.292463    2.650351
     60          1           0      -10.612000   -1.200436    2.319828
     61          1           0      -12.138175   -1.307078    3.308766
     62          1           0      -13.207923   -2.875411    1.521411
     63          1           0      -11.644904   -2.797715    0.864649
     64          1           0      -12.991633   -2.698997   -0.237941
     65          1           0        8.814700   -0.019459    0.949627
     66          1           0      -10.157773   -2.358031   -0.210112
     67          1           0        9.944155    0.637376   -2.361756
     68          1           0       11.862255    0.865350   -2.858915
     69          1           0       11.045001   -0.654919   -3.187455
     70          1           0      -11.556134    1.232066   -3.088510
     71          1           0      -10.061662    0.395065   -2.510821
     72          1           0      -10.260356    2.054649   -2.055625
     73          1           0       15.007073   -3.257764    0.052039
     74          1           0      -15.033294    2.267935    1.918602
     75          1           0        9.931666    2.204987   -0.643999
     76          1           0       -8.847589    0.638119   -0.389699
     77          1           0        8.549100    4.145150   -0.553879
     78          1           0        7.259982    4.383386    0.585043
     79          1           0        8.801353    3.731998    0.970475
     80          1           0       -8.032759   -3.268820    0.040242
     81          1           0       -8.234626   -2.912011   -1.856405
     82          1           0       -6.769996   -3.363436   -1.162678
     83          1           0        7.127489    0.428768   -0.234830
     84          1           0       -6.466284    0.317245   -0.352011
     85          1           0        5.303606    3.034754    0.507137
     86          1           0       -4.822961   -2.188257   -0.682612
     87          1           0        4.330629    0.109579   -0.150811
     88          1           0       -4.172817    0.785281   -0.258143
     89          1           0        3.039198    3.548609    1.479134
     90          1           0        1.869785    3.800192    0.128838
     91          1           0        3.472507    3.763783   -0.168482
     92          1           0       -2.621454   -2.759929   -0.081257
     93          1           0       -2.626669   -2.638465   -1.727564
     94          1           0       -1.180930   -2.265012   -0.751871
     95          1           0        2.349288   -0.092004   -0.476036
     96          1           0       -2.027613    1.212842   -0.096656
     97          1           0        0.073218    1.912868   -0.055500
     98          1           0        0.165446   -0.926141   -0.558754
 ---------------------------------------------------------------------

 SCF Done:  E(RCAM-B3LYP) =  -1706.96879233     A.U. after   14 cycles

 Excitation energies and oscillator strengths:

 Excited State   1:      Singlet-A      2.4374 eV  508.68 nm  f=3.7769  <S**2>=0.000
     155 ->158         0.14820
     156 ->157         0.68998
 This state for optimization and/or second-order correction.
 Total Energy, E(TD-HF/TD-DFT) =  -1706.87922066
 Copying the excited state density for this state as the 1-particle RhoCI density.

 The electronic state is 1-A.
 Alpha  occ. eigenvalues --  -19.22958 -19.21899 -10.30915 -10.29850 -10.27782
 Alpha  occ. eigenvalues --  -10.27734 -10.27521 -10.27460 -10.27213 -10.27106
 Alpha  occ. eigenvalues --  -10.27039 -10.26897 -10.26728 -10.26693 -10.26559
 Alpha  occ. eigenvalues --  -10.26473 -10.26465 -10.26333 -10.25986 -10.25973
 Alpha  occ. eigenvalues --  -10.25965 -10.25934 -10.25922 -10.25909 -10.25753
 Alpha  occ. eigenvalues --  -10.25729 -10.25691 -10.25529 -10.25421 -10.25326
 Alpha  occ. eigenvalues --  -10.25311 -10.25071 -10.25028 -10.24992 -10.24730
 Alpha  occ. eigenvalues --  -10.24688 -10.24648 -10.24487 -10.23666 -10.23549
 Alpha  occ. eigenvalues --  -10.23490 -10.22903  -1.08940  -1.04799  -0.93767
 Alpha  occ. eigenvalues --   -0.92886  -0.92703  -0.92017  -0.90559  -0.89595
 Alpha  occ. eigenvalues --   -0.87577  -0.87145  -0.85303  -0.85170  -0.84925
 Alpha  occ. eigenvalues --   -0.83110  -0.82023  -0.80483  -0.78999  -0.78672
 Alpha  occ. eigenvalues --   -0.77393  -0.77133  -0.76590  -0.75986  -0.75828
 Alpha  occ. eigenvalues --   -0.75279  -0.75165  -0.74713  -0.74005  -0.70827
 Alpha  occ. eigenvalues --   -0.68395  -0.67156  -0.65506  -0.64981  -0.63759
 Alpha  occ. eigenvalues --   -0.63212  -0.62879  -0.62393  -0.60619  -0.59493
 Alpha  occ. eigenvalues --   -0.58891  -0.58536  -0.58102  -0.57201  -0.56133
 Alpha  occ. eigenvalues --   -0.55603  -0.55320  -0.54523  -0.54344  -0.53180
 Alpha  occ. eigenvalues --   -0.52851  -0.52649  -0.51939  -0.51435  -0.51314
 Alpha  occ. eigenvalues --   -0.50871  -0.50470  -0.50066  -0.49971  -0.49468
 Alpha  occ. eigenvalues --   -0.49288  -0.49083  -0.49032  -0.48661  -0.48160
 Alpha  occ. eigenvalues --   -0.47620  -0.47328  -0.47065  -0.46522  -0.45654
 Alpha  occ. eigenvalues --   -0.45593  -0.45415  -0.44837  -0.44378  -0.44147
 Alpha  occ. eigenvalues --   -0.43745  -0.43496  -0.43329  -0.43044  -0.42917
 Alpha  occ. eigenvalues --   -0.42694  -0.42397  -0.42209  -0.42087  -0.41648
 Alpha  occ. eigenvalues --   -0.41392  -0.41035  -0.40823  -0.40681  -0.40549
 Alpha  occ. eigenvalues --   -0.40449  -0.40311  -0.39880  -0.39537  -0.39447
 Alpha  occ. eigenvalues --   -0.39237  -0.38733  -0.38345  -0.38084  -0.37951
 Alpha  occ. eigenvalues --   -0.37719  -0.37443  -0.36784  -0.36731  -0.35428
 Alpha  occ. eigenvalues --   -0.34862  -0.34597  -0.33706  -0.32527  -0.32361
 Alpha  occ. eigenvalues --   -0.31152  -0.30125  -0.27756  -0.26115  -0.23779
 Alpha  occ. eigenvalues --   -0.19639
 Alpha virt. eigenvalues --   -0.04980   0.00065   0.03018   0.05585   0.07185
 Alpha virt. eigenvalues --    0.08451   0.09718   0.10110   0.11580   0.12906
 Alpha virt. eigenvalues --    0.13386   0.13510   0.13664   0.13776   0.14097

 Mulliken charges:
               1
     1  O   -0.565847
     2  O   -0.584583
     3  C    0.007847
     4  C   -0.035203
     5  C   -0.177654
     6  C   -0.155258
     7  C    0.176605
     8  C    0.157244
     9  C    0.062682
    10  C    0.079954
    11  C   -0.161011
    12  C   -0.214036
    13  C    0.032030
    14  C    0.020986
    15  C   -0.301394
    16  C   -0.311369
    17  C   -0.308477
    18  C   -0.304148
    19  C   -0.118679
    20  C   -0.146288
    21  C   -0.352999
    22  C   -0.350901
    23  C   -0.127205
    24  C   -0.107178
    25  C    0.108261
    26  C    0.072273
    27  C   -0.372938
    28  C   -0.369323
    29  C   -0.122658
    30  C   -0.088082
    31  C   -0.114843
    32  C   -0.103355
    33  C   -0.110614
    34  C   -0.114356
    35  C    0.125938
    36  C    0.143873
    37  C   -0.381779
    38  C   -0.398438
    39  C   -0.152620
    40  C   -0.138058
    41  C   -0.073965
    42  C   -0.062412
    43  H    0.101649
    44  H    0.075697
    45  H    0.083835
    46  H    0.089660
    47  H    0.044264
    48  H    0.092742
    49  H    0.095013
    50  H    0.103871
    51  H    0.121895
    52  H    0.101138
    53  H    0.101531
    54  H    0.100753
    55  H    0.092537
    56  H    0.111236
    57  H    0.081719
    58  H    0.108187
    59  H    0.082563
    60  H    0.122040
    61  H    0.072996
    62  H    0.098033
    63  H    0.095165
    64  H    0.111177
    65  H    0.086142
    66  H    0.107725
    67  H    0.129188
    68  H    0.085372
    69  H    0.115369
    70  H    0.099761
    71  H    0.127240
    72  H    0.113151
    73  H    0.312948
    74  H    0.305973
    75  H    0.075654
    76  H    0.077926
    77  H    0.132830
    78  H    0.124550
    79  H    0.118738
    80  H    0.136809
    81  H    0.127867
    82  H    0.091266
    83  H    0.084689
    84  H    0.063032
    85  H    0.072284
    86  H    0.084796
    87  H    0.068570
    88  H    0.074837
    89  H    0.140034
    90  H    0.109377
    91  H    0.116870
    92  H    0.136168
    93  H    0.124748
    94  H    0.094929
    95  H    0.079743
    96  H    0.081197
    97  H    0.071172
    98  H    0.079320
 Sum of Mulliken charges =  -0.00000

 Dipole moment (field-independent basis, Debye):
    X=              2.4831    Y=             -1.5518    Z=              1.6371  Tot=              3.3547
 Quadrupole moment (field-independent basis, Debye-Ang):
   XX=           -269.8932   YY=           -237.4106   ZZ=           -258.4091
   XY=             -4.9437   XZ=             -8.6139   YZ=              3.4752

 Normal termination of Gaussian 16 at Thu Jun 27 11:25:23 2019.
