 Gaussian 16, Revision A.03,
 Gaussian 16:  ES64L-G16RevA.03 25-Dec-2016

 -------------------------------------
 # td=(NStates=1) CAM-B3LYP/6-31G(d,p)
 -------------------------------------

 --
 TD
 --
 Symbolic Z-matrix:
 Charge =  0 Multiplicity = 1

                         Standard orientation:
 ---------------------------------------------------------------------
 Center     Atomic      Atomic             Coordinates (Angstroms)
 Number     Number       Type             X           Y           Z
 ---------------------------------------------------------------------
      1          8           0       14.617906   -2.282367   -0.422105
      2          8           0      -14.849338    1.810952    0.631341
      3          6           0       11.393599   -1.166429    1.212400
      4          6           0      -12.351491   -1.009796    0.843109
      5          6           0       12.830249   -1.587516    1.029691
      6          6           0      -13.668163   -0.291756    0.753839
      7          6           0       13.202621   -2.134336   -0.339279
      8          6           0      -13.596607    1.246130    0.646971
      9          6           0       10.934860   -0.321962   -0.062304
     10          6           0      -11.387054   -0.429046   -0.288724
     11          6           0       12.941765   -0.993550   -1.402895
     12          6           0      -12.870641    1.627748   -0.602978
     13          6           0       11.588416   -0.343733   -1.208532
     14          6           0      -11.687392    0.768565   -0.896734
     15          6           0       11.415156   -0.306645    2.517610
     16          6           0       10.472410   -2.418055    1.392982
     17          6           0      -11.718046   -0.677341    2.233124
     18          6           0      -12.302764   -2.547940    0.660179
     19          6           0        9.538423    0.356677    0.167151
     20          6           0      -10.023212   -1.053305   -0.521900
     21          6           0       11.070225    0.431759   -2.421938
     22          6           0      -10.849408    1.364999   -2.011948
     23          6           0        9.331028    1.662246   -0.186030
     24          6           0       -8.784158   -0.525783   -0.178870
     25          6           0        8.035364    2.267077    0.110688
     26          6           0       -7.476122   -1.289258   -0.428424
     27          6           0        8.229990    3.820592    0.209298
     28          6           0       -7.599371   -2.662442   -0.938110
     29          6           0        6.905418    1.560257    0.131387
     30          6           0       -6.381619   -0.570032   -0.224896
     31          6           0        5.547673    2.075049    0.273196
     32          6           0       -5.061044   -1.148735   -0.530743
     33          6           0        4.489768    1.350298    0.139432
     34          6           0       -3.933859   -0.311855   -0.306923
     35          6           0        3.079574    1.755133    0.305855
     36          6           0       -2.516043   -0.689413   -0.525002
     37          6           0        2.857099    3.242698    0.671333
     38          6           0       -2.195187   -2.003195   -1.118900
     39          6           0        2.039002    0.999438    0.043008
     40          6           0       -1.621213    0.201038   -0.015839
     41          6           0        0.703910    1.102200    0.039347
     42          6           0       -0.178493    0.087977   -0.123470
     43          1           0       13.242403   -0.633268    1.140199
     44          1           0       13.138865   -2.396934    1.600707
     45          1           0      -14.111910   -0.584291    1.704247
     46          1           0      -14.287686   -0.874610    0.032310
     47          1           0       12.569231   -2.927559   -0.576587
     48          1           0      -12.693769    1.573237    1.524500
     49          1           0       13.988065   -0.259307   -1.018381
     50          1           0       12.940336   -1.341975   -2.373699
     51          1           0      -13.515592    1.476351   -1.342991
     52          1           0      -12.617339    2.811417   -0.318190
     53          1           0       11.700073   -0.803014    3.260601
     54          1           0       10.516729    0.010262    2.935706
     55          1           0       11.997495    0.614473    2.291306
     56          1           0       10.553494   -3.023360    0.815461
     57          1           0       10.687500   -2.938057    2.440615
     58          1           0        9.314403   -2.533579    1.451529
     59          1           0      -11.447872    0.448138    2.484221
     60          1           0      -10.636825   -0.890885    2.244675
     61          1           0      -12.171481   -1.281545    3.204938
     62          1           0      -13.070766   -2.936545    1.310477
     63          1           0      -11.185065   -3.118786    0.880597
     64          1           0      -12.578181   -2.932396   -0.231477
     65          1           0        8.600545   -0.108845    0.799577
     66          1           0      -10.224696   -2.040088   -0.465074
     67          1           0       10.047524    0.804165   -2.148732
     68          1           0       11.631427    1.428423   -2.712751
     69          1           0       10.967652   -0.177354   -3.138572
     70          1           0      -11.426292    1.507748   -2.945571
     71          1           0      -10.095133    0.656270   -2.234907
     72          1           0      -10.184261    2.144264   -1.701603
     73          1           0       14.881844   -3.321815    0.008674
     74          1           0      -15.276684    1.985215    1.474361
     75          1           0       10.081023    2.229108   -0.869671
     76          1           0       -8.747004    0.313868    0.224841
     77          1           0        8.671929    4.108599   -0.916456
     78          1           0        7.358139    4.422658    0.518411
     79          1           0        8.928421    4.110963    0.903157
     80          1           0       -7.801088   -3.549516   -0.141374
     81          1           0       -8.273408   -2.706379   -1.798254
     82          1           0       -6.539934   -3.058439   -1.326336
     83          1           0        6.864589    0.452447   -0.317653
     84          1           0       -6.358434    0.393180    0.200154
     85          1           0        5.372465    3.067682    0.506458
     86          1           0       -4.755444   -2.178593   -1.097385
     87          1           0        4.533820    0.266252   -0.197703
     88          1           0       -4.259956    0.722622    0.042936
     89          1           0        3.391928    3.666861    1.513181
     90          1           0        1.732061    3.428770    0.687948
     91          1           0        3.215406    3.840614   -0.190132
     92          1           0       -2.446411   -2.925271   -0.583371
     93          1           0       -2.603617   -2.110716   -2.175738
     94          1           0       -1.113736   -2.076789   -1.093887
     95          1           0        2.398944   -0.064227   -0.228058
     96          1           0       -2.021474    1.103475    0.240593
     97          1           0        0.345627    2.011585    0.377416
     98          1           0        0.195604   -0.659726   -0.626101
 ---------------------------------------------------------------------

 SCF Done:  E(RCAM-B3LYP) =  -1706.79029271     A.U. after   14 cycles

 Excitation energies and oscillator strengths:

 Excited State   1:      Singlet-A      2.9067 eV  426.54 nm  f=3.5703  <S**2>=0.000
     155 ->158         0.17037
     156 ->157         0.67962
 This state for optimization and/or second-order correction.
 Total Energy, E(TD-HF/TD-DFT) =  -1706.68347220
 Copying the excited state density for this state as the 1-particle RhoCI density.

 The electronic state is 1-A.
 Alpha  occ. eigenvalues --  -19.23086 -19.21922 -10.31568 -10.29608 -10.27959
 Alpha  occ. eigenvalues --  -10.27910 -10.27730 -10.27729 -10.27565 -10.27425
 Alpha  occ. eigenvalues --  -10.27121 -10.27088 -10.27065 -10.26925 -10.26902
 Alpha  occ. eigenvalues --  -10.26501 -10.26500 -10.26365 -10.26205 -10.26160
 Alpha  occ. eigenvalues --  -10.26107 -10.26054 -10.25985 -10.25638 -10.25620
 Alpha  occ. eigenvalues --  -10.25587 -10.25538 -10.25462 -10.25454 -10.25442
 Alpha  occ. eigenvalues --  -10.25231 -10.25036 -10.24956 -10.24946 -10.24943
 Alpha  occ. eigenvalues --  -10.24253 -10.24201 -10.23757 -10.23647 -10.23022
 Alpha  occ. eigenvalues --  -10.23008 -10.22201  -1.10952  -1.07281  -0.92816
 Alpha  occ. eigenvalues --   -0.92640  -0.92482  -0.91448  -0.90714  -0.89964
 Alpha  occ. eigenvalues --   -0.87688  -0.86827  -0.86365  -0.85087  -0.83920
 Alpha  occ. eigenvalues --   -0.82499  -0.81736  -0.79594  -0.79296  -0.78765
 Alpha  occ. eigenvalues --   -0.78584  -0.76431  -0.76220  -0.76117  -0.75797
 Alpha  occ. eigenvalues --   -0.75477  -0.75163  -0.74649  -0.73936  -0.70715
 Alpha  occ. eigenvalues --   -0.68787  -0.67508  -0.65785  -0.65254  -0.64078
 Alpha  occ. eigenvalues --   -0.63551  -0.62680  -0.62394  -0.60474  -0.60237
 Alpha  occ. eigenvalues --   -0.59503  -0.59323  -0.59017  -0.57868  -0.56314
 Alpha  occ. eigenvalues --   -0.55193  -0.54867  -0.54510  -0.54324  -0.53872
 Alpha  occ. eigenvalues --   -0.52879  -0.52387  -0.51769  -0.51541  -0.50686
 Alpha  occ. eigenvalues --   -0.50418  -0.50156  -0.49467  -0.49148  -0.48838
 Alpha  occ. eigenvalues --   -0.48664  -0.48359  -0.47997  -0.47985  -0.47761
 Alpha  occ. eigenvalues --   -0.47631  -0.47582  -0.46952  -0.46819  -0.45756
 Alpha  occ. eigenvalues --   -0.45589  -0.45566  -0.45143  -0.44853  -0.44714
 Alpha  occ. eigenvalues --   -0.44403  -0.44221  -0.43799  -0.43594  -0.43189
 Alpha  occ. eigenvalues --   -0.42961  -0.42810  -0.42515  -0.41762  -0.41569
 Alpha  occ. eigenvalues --   -0.41440  -0.41106  -0.40828  -0.40614  -0.40238
 Alpha  occ. eigenvalues --   -0.39920  -0.39694  -0.39563  -0.39501  -0.39112
 Alpha  occ. eigenvalues --   -0.38764  -0.38519  -0.38487  -0.38212  -0.37844
 Alpha  occ. eigenvalues --   -0.37361  -0.37047  -0.36885  -0.35957  -0.35442
 Alpha  occ. eigenvalues --   -0.34644  -0.33870  -0.33110  -0.32153  -0.31875
 Alpha  occ. eigenvalues --   -0.31275  -0.29721  -0.28107  -0.26371  -0.24316
 Alpha  occ. eigenvalues --   -0.21176
 Alpha virt. eigenvalues --   -0.03856   0.00346   0.02730   0.05886   0.07470
 Alpha virt. eigenvalues --    0.08163   0.09307   0.10324   0.11105   0.11463
 Alpha virt. eigenvalues --    0.11943   0.12927   0.13220   0.13588   0.13775

 Mulliken charges:
               1
     1  O   -0.549041
     2  O   -0.551895
     3  C   -0.023817
     4  C    0.017375
     5  C   -0.132791
     6  C   -0.183491
     7  C    0.138329
     8  C    0.183962
     9  C    0.027430
    10  C    0.017970
    11  C   -0.192915
    12  C   -0.174548
    13  C    0.039121
    14  C    0.022107
    15  C   -0.293243
    16  C   -0.273994
    17  C   -0.297636
    18  C   -0.315186
    19  C   -0.127677
    20  C   -0.140551
    21  C   -0.350602
    22  C   -0.359337
    23  C   -0.096727
    24  C   -0.044260
    25  C    0.076859
    26  C    0.120798
    27  C   -0.351405
    28  C   -0.370381
    29  C   -0.141580
    30  C   -0.116964
    31  C   -0.060181
    32  C   -0.099281
    33  C   -0.100444
    34  C   -0.130020
    35  C    0.117644
    36  C    0.113476
    37  C   -0.390151
    38  C   -0.385422
    39  C   -0.126757
    40  C   -0.106844
    41  C   -0.059999
    42  C   -0.085549
    43  H    0.105169
    44  H    0.077840
    45  H    0.082254
    46  H    0.091044
    47  H    0.090954
    48  H    0.036736
    49  H    0.089003
    50  H    0.100450
    51  H    0.123610
    52  H    0.084477
    53  H    0.108139
    54  H    0.101274
    55  H    0.097577
    56  H    0.095402
    57  H    0.067792
    58  H    0.081635
    59  H    0.088290
    60  H    0.104811
    61  H    0.078727
    62  H    0.096587
    63  H    0.085717
    64  H    0.122021
    65  H    0.105025
    66  H    0.077715
    67  H    0.110887
    68  H    0.097185
    69  H    0.114579
    70  H    0.105408
    71  H    0.113126
    72  H    0.112528
    73  H    0.292250
    74  H    0.314655
    75  H    0.101810
    76  H    0.059777
    77  H    0.096548
    78  H    0.107139
    79  H    0.136079
    80  H    0.108944
    81  H    0.132132
    82  H    0.089369
    83  H    0.087384
    84  H    0.095326
    85  H    0.074108
    86  H    0.089108
    87  H    0.065919
    88  H    0.076951
    89  H    0.122107
    90  H    0.099218
    91  H    0.120645
    92  H    0.128682
    93  H    0.121365
    94  H    0.113758
    95  H    0.052284
    96  H    0.081485
    97  H    0.069158
    98  H    0.075453
 Sum of Mulliken charges =  -0.00000

 Dipole moment (field-independent basis, Debye):
    X=              0.3558    Y=             -1.5823    Z=              1.4002  Tot=              2.1426
 Quadrupole moment (field-independent basis, Debye-Ang):
   XX=           -276.1428   YY=           -236.4320   ZZ=           -260.3487
   XY=             -8.5653   XZ=            -11.3267   YZ=              5.8704

 Normal termination of Gaussian 16 at Tue Jul  9 03:12:20 2019.
