 Gaussian 16, Revision A.03,
 Gaussian 16:  ES64L-G16RevA.03 25-Dec-2016

 -------------------------------------
 # td=(NStates=1) CAM-B3LYP/6-31G(d,p)
 -------------------------------------

 --
 TD
 --
 Symbolic Z-matrix:
 Charge =  0 Multiplicity = 1

                         Standard orientation:
 ---------------------------------------------------------------------
 Center     Atomic      Atomic             Coordinates (Angstroms)
 Number     Number       Type             X           Y           Z
 ---------------------------------------------------------------------
      1          8           0       14.652176   -2.421579   -0.378987
      2          8           0      -14.860004    2.089670    0.473741
      3          6           0       11.549663   -0.785579    1.295927
      4          6           0      -12.330963   -0.800989    0.775113
      5          6           0       13.083611   -1.096095    1.076252
      6          6           0      -13.693020   -0.023971    0.677603
      7          6           0       13.321606   -1.952050   -0.240000
      8          6           0      -13.544268    1.490481    0.620251
      9          6           0       10.942310   -0.169761   -0.019623
     10          6           0      -11.354603   -0.205402   -0.217456
     11          6           0       12.990851   -1.041598   -1.345379
     12          6           0      -12.607427    1.951438   -0.405941
     13          6           0       11.512847   -0.208995   -1.255201
     14          6           0      -11.497264    1.003277   -0.704292
     15          6           0       11.371959    0.114337    2.521063
     16          6           0       10.828905   -2.104144    1.538841
     17          6           0      -11.881657   -0.822721    2.278580
     18          6           0      -12.584634   -2.242967    0.422999
     19          6           0        9.603238    0.413043    0.154168
     20          6           0      -10.095342   -1.084795   -0.424512
     21          6           0       11.079459    0.217919   -2.549533
     22          6           0      -10.614730    1.518212   -1.804651
     23          6           0        9.357315    1.677648   -0.329409
     24          6           0       -8.839610   -0.712785   -0.241567
     25          6           0        7.963362    2.373179   -0.005883
     26          6           0       -7.571960   -1.437109   -0.493387
     27          6           0        7.997007    3.814417    0.256099
     28          6           0       -7.525174   -2.841683   -0.852827
     29          6           0        6.904997    1.591557   -0.060009
     30          6           0       -6.434888   -0.729882   -0.372650
     31          6           0        5.518433    2.051227    0.071241
     32          6           0       -5.113407   -1.296706   -0.422837
     33          6           0        4.453251    1.179019   -0.165160
     34          6           0       -3.961287   -0.532388   -0.241325
     35          6           0        3.025969    1.482411    0.011592
     36          6           0       -2.584126   -1.016696   -0.190239
     37          6           0        2.816441    3.002154    0.379356
     38          6           0       -2.358123   -2.419758   -0.762188
     39          6           0        2.107388    0.620453   -0.029367
     40          6           0       -1.683361   -0.147753    0.009073
     41          6           0        0.588992    0.748157    0.162186
     42          6           0       -0.207547   -0.293195    0.068642
     43          1           0       13.672776   -0.237560    1.011614
     44          1           0       13.311781   -1.660958    2.121245
     45          1           0      -14.535048   -0.526700    1.306856
     46          1           0      -14.043727   -0.375510   -0.370993
     47          1           0       12.341528   -2.697410   -0.231334
     48          1           0      -13.130908    1.802591    1.668473
     49          1           0       13.925196   -0.410087   -1.433322
     50          1           0       12.683208   -1.626328   -2.271392
     51          1           0      -13.220650    2.143109   -1.274918
     52          1           0      -12.190855    2.849941   -0.307312
     53          1           0       11.915088   -0.498916    3.232007
     54          1           0       10.397783    0.301631    2.963099
     55          1           0       11.931013    1.179057    2.185637
     56          1           0       10.988220   -2.991218    0.861580
     57          1           0       11.027621   -2.452223    2.624823
     58          1           0        9.739101   -1.928210    1.413208
     59          1           0      -11.849508    0.064139    2.753365
     60          1           0      -10.917091   -1.309124    2.248166
     61          1           0      -12.778446   -1.322620    2.776743
     62          1           0      -13.295664   -2.813775    1.019096
     63          1           0      -11.710967   -2.623490    0.447013
     64          1           0      -12.763981   -2.413764   -0.838343
     65          1           0        9.101061   -0.196204    0.869240
     66          1           0      -10.365996   -2.127971   -0.895772
     67          1           0        9.930637    0.313922   -2.535837
     68          1           0       11.247456    1.483140   -2.633400
     69          1           0       11.588569   -0.424085   -3.513079
     70          1           0      -11.160874    1.902326   -2.587714
     71          1           0       -9.675503    1.044974   -2.095829
     72          1           0       -9.954354    2.352839   -1.398664
     73          1           0       14.800886   -2.887992    0.604331
     74          1           0      -15.433496    1.621886    1.238487
     75          1           0       10.197834    2.177879   -0.606655
     76          1           0       -8.808542    0.279176    0.068204
     77          1           0        8.603000    4.313262   -0.525969
     78          1           0        7.022939    4.307231    0.249019
     79          1           0        8.498827    3.953476    1.217969
     80          1           0       -8.118162   -3.630797   -0.279290
     81          1           0       -8.079850   -2.957517   -1.754516
     82          1           0       -6.593309   -3.326548   -1.128517
     83          1           0        7.179866    0.614039   -0.442926
     84          1           0       -6.527283    0.396227   -0.383454
     85          1           0        5.522629    3.053046    0.419778
     86          1           0       -4.835750   -2.351458   -0.600341
     87          1           0        4.594753    0.011348   -0.351199
     88          1           0       -3.821595    0.612430    0.096584
     89          1           0        3.234251    3.153837    1.402796
     90          1           0        1.722626    2.952125    0.430657
     91          1           0        3.030862    3.751233   -0.326833
     92          1           0       -3.040266   -3.285628   -0.105532
     93          1           0       -2.615713   -2.538239   -1.814884
     94          1           0       -1.303450   -2.741776   -0.772086
     95          1           0        2.518401   -0.442378    0.031940
     96          1           0       -2.033808    0.769605    0.261566
     97          1           0        0.296907    1.673712    0.118564
     98          1           0        0.237315   -1.315852   -0.033276
 ---------------------------------------------------------------------

 SCF Done:  E(RCAM-B3LYP) =  -1706.92863964     A.U. after   13 cycles

 Excitation energies and oscillator strengths:

 Excited State   1:      Singlet-A      3.3940 eV  365.31 nm  f=3.6300  <S**2>=0.000
     155 ->158         0.24650
     156 ->157         0.64997
 This state for optimization and/or second-order correction.
 Total Energy, E(TD-HF/TD-DFT) =  -1706.80391359
 Copying the excited state density for this state as the 1-particle RhoCI density.

 The electronic state is 1-A.
 Alpha  occ. eigenvalues --  -19.23499 -19.21459 -10.31249 -10.30811 -10.28527
 Alpha  occ. eigenvalues --  -10.28363 -10.27554 -10.27444 -10.27395 -10.27340
 Alpha  occ. eigenvalues --  -10.27318 -10.27034 -10.26953 -10.26897 -10.26873
 Alpha  occ. eigenvalues --  -10.26862 -10.26801 -10.26622 -10.26471 -10.26432
 Alpha  occ. eigenvalues --  -10.26381 -10.26271 -10.26259 -10.26247 -10.26177
 Alpha  occ. eigenvalues --  -10.26028 -10.25900 -10.25804 -10.25803 -10.25800
 Alpha  occ. eigenvalues --  -10.25765 -10.25706 -10.25683 -10.25680 -10.25291
 Alpha  occ. eigenvalues --  -10.25200 -10.24924 -10.24599 -10.24365 -10.24238
 Alpha  occ. eigenvalues --  -10.24152 -10.23869  -1.08546  -1.06863  -0.93915
 Alpha  occ. eigenvalues --   -0.93172  -0.92803  -0.91585  -0.91126  -0.90247
 Alpha  occ. eigenvalues --   -0.88034  -0.87166  -0.86669  -0.85392  -0.84830
 Alpha  occ. eigenvalues --   -0.82868  -0.81942  -0.80587  -0.80384  -0.77744
 Alpha  occ. eigenvalues --   -0.77164  -0.76626  -0.76508  -0.76431  -0.76156
 Alpha  occ. eigenvalues --   -0.75952  -0.75529  -0.74528  -0.74361  -0.70469
 Alpha  occ. eigenvalues --   -0.68088  -0.66945  -0.65760  -0.64709  -0.64000
 Alpha  occ. eigenvalues --   -0.63432  -0.62380  -0.62189  -0.60484  -0.60066
 Alpha  occ. eigenvalues --   -0.58943  -0.57848  -0.57646  -0.57249  -0.56633
 Alpha  occ. eigenvalues --   -0.55752  -0.55215  -0.54845  -0.54205  -0.53454
 Alpha  occ. eigenvalues --   -0.53375  -0.53100  -0.52067  -0.51775  -0.51382
 Alpha  occ. eigenvalues --   -0.50865  -0.50346  -0.50169  -0.49561  -0.49270
 Alpha  occ. eigenvalues --   -0.49030  -0.48871  -0.48264  -0.47796  -0.47659
 Alpha  occ. eigenvalues --   -0.47542  -0.47447  -0.47285  -0.47073  -0.46754
 Alpha  occ. eigenvalues --   -0.46249  -0.46115  -0.45888  -0.45525  -0.45241
 Alpha  occ. eigenvalues --   -0.45029  -0.44923  -0.44476  -0.43902  -0.43811
 Alpha  occ. eigenvalues --   -0.43215  -0.42887  -0.42777  -0.42388  -0.42321
 Alpha  occ. eigenvalues --   -0.42011  -0.41749  -0.41110  -0.40561  -0.40508
 Alpha  occ. eigenvalues --   -0.40146  -0.39834  -0.39432  -0.39405  -0.39225
 Alpha  occ. eigenvalues --   -0.39195  -0.39133  -0.38272  -0.38116  -0.37738
 Alpha  occ. eigenvalues --   -0.37633  -0.37049  -0.36434  -0.36140  -0.35611
 Alpha  occ. eigenvalues --   -0.34753  -0.34730  -0.33753  -0.32640  -0.31361
 Alpha  occ. eigenvalues --   -0.31194  -0.30206  -0.28638  -0.27200  -0.24379
 Alpha  occ. eigenvalues --   -0.22494
 Alpha virt. eigenvalues --   -0.02711   0.00018   0.03267   0.05753   0.08070
 Alpha virt. eigenvalues --    0.09040   0.09736   0.10675   0.10884   0.11132
 Alpha virt. eigenvalues --    0.12104   0.12448   0.12878   0.13012   0.13581

 Mulliken charges:
               1
     1  O   -0.552201
     2  O   -0.573943
     3  C   -0.031932
     4  C   -0.030418
     5  C   -0.179492
     6  C   -0.208502
     7  C    0.186265
     8  C    0.192422
     9  C    0.028470
    10  C    0.053733
    11  C   -0.215562
    12  C   -0.217605
    13  C    0.074458
    14  C    0.046663
    15  C   -0.279231
    16  C   -0.299036
    17  C   -0.282721
    18  C   -0.279777
    19  C   -0.084930
    20  C   -0.152145
    21  C   -0.364810
    22  C   -0.368676
    23  C   -0.139764
    24  C   -0.085950
    25  C    0.079659
    26  C    0.147619
    27  C   -0.377209
    28  C   -0.397708
    29  C   -0.101503
    30  C   -0.132263
    31  C   -0.094858
    32  C   -0.112830
    33  C   -0.118717
    34  C   -0.114041
    35  C    0.127687
    36  C    0.161998
    37  C   -0.362806
    38  C   -0.370578
    39  C   -0.167203
    40  C   -0.138302
    41  C   -0.057145
    42  C   -0.080806
    43  H    0.107370
    44  H    0.049887
    45  H    0.069961
    46  H    0.091528
    47  H    0.049603
    48  H    0.058452
    49  H    0.107783
    50  H    0.095887
    51  H    0.128298
    52  H    0.124260
    53  H    0.101684
    54  H    0.114587
    55  H    0.083339
    56  H    0.113850
    57  H    0.085559
    58  H    0.100537
    59  H    0.109007
    60  H    0.109782
    61  H    0.085417
    62  H    0.101565
    63  H    0.117643
    64  H    0.054752
    65  H    0.095302
    66  H    0.081653
    67  H    0.124755
    68  H    0.089963
    69  H    0.100016
    70  H    0.122448
    71  H    0.119526
    72  H    0.091765
    73  H    0.314140
    74  H    0.308882
    75  H    0.097447
    76  H    0.081430
    77  H    0.119596
    78  H    0.111933
    79  H    0.128518
    80  H    0.109326
    81  H    0.129015
    82  H    0.120078
    83  H    0.083005
    84  H    0.089184
    85  H    0.089617
    86  H    0.092802
    87  H    0.071908
    88  H    0.065435
    89  H    0.124829
    90  H    0.092297
    91  H    0.126104
    92  H    0.078906
    93  H    0.135783
    94  H    0.107959
    95  H    0.068458
    96  H    0.073478
    97  H    0.080130
    98  H    0.087252
 Sum of Mulliken charges =  -0.00000

 Dipole moment (field-independent basis, Debye):
    X=              0.7315    Y=             -0.5427    Z=              2.0173  Tot=              2.2134
 Quadrupole moment (field-independent basis, Debye-Ang):
   XX=           -296.6162   YY=           -247.5940   ZZ=           -261.1130
   XY=             22.3459   XZ=             12.1637   YZ=             -1.0424

 Normal termination of Gaussian 16 at Tue Jul  9 14:46:33 2019.
