 Gaussian 16, Revision A.03,
 Gaussian 16:  ES64L-G16RevA.03 25-Dec-2016

 -------------------------------------
 # td=(NStates=1) CAM-B3LYP/6-31G(d,p)
 -------------------------------------

 --
 TD
 --
 Symbolic Z-matrix:
 Charge =  0 Multiplicity = 1

                         Standard orientation:
 ---------------------------------------------------------------------
 Center     Atomic      Atomic             Coordinates (Angstroms)
 Number     Number       Type             X           Y           Z
 ---------------------------------------------------------------------
      1          8           0       14.836936   -2.163321   -0.374404
      2          8           0      -14.762690    2.122822    0.901854
      3          6           0       11.595155   -0.996700    1.357209
      4          6           0      -12.270059   -0.887488    0.798512
      5          6           0       13.180304   -1.305632    1.173309
      6          6           0      -13.543604   -0.153569    0.792024
      7          6           0       13.484976   -1.850367   -0.139451
      8          6           0      -13.530943    1.380620    0.859875
      9          6           0       11.029305   -0.209008    0.004416
     10          6           0      -11.402811   -0.290695   -0.319975
     11          6           0       13.135666   -0.822812   -1.286972
     12          6           0      -12.900087    1.644643   -0.462341
     13          6           0       11.700220   -0.268773   -1.117772
     14          6           0      -11.547301    0.936049   -0.812028
     15          6           0       11.443958   -0.136478    2.530233
     16          6           0       10.659702   -2.225369    1.349364
     17          6           0      -11.573900   -0.859775    2.134747
     18          6           0      -12.654349   -2.290255    0.381776
     19          6           0        9.647525    0.313512    0.107046
     20          6           0      -10.116386   -1.142132   -0.410058
     21          6           0       11.142849    0.321674   -2.432194
     22          6           0      -10.763044    1.438016   -2.003321
     23          6           0        9.350031    1.546998   -0.206894
     24          6           0       -8.865601   -0.601801   -0.261910
     25          6           0        8.070848    2.150933    0.031235
     26          6           0       -7.657343   -1.367162   -0.458977
     27          6           0        8.091643    3.599525    0.262922
     28          6           0       -7.821177   -2.765584   -0.891810
     29          6           0        6.846087    1.536895   -0.091756
     30          6           0       -6.463035   -0.697721   -0.268337
     31          6           0        5.540753    1.891738    0.021935
     32          6           0       -5.114215   -1.219407   -0.429099
     33          6           0        4.381356    1.193959   -0.117389
     34          6           0       -3.995945   -0.419342   -0.179876
     35          6           0        2.980037    1.652610    0.029204
     36          6           0       -2.678782   -0.782969   -0.496360
     37          6           0        2.737556    3.122330    0.587881
     38          6           0       -2.423300   -2.285858   -0.736103
     39          6           0        2.034752    0.622330   -0.078512
     40          6           0       -1.686859    0.142318   -0.256477
     41          6           0        0.587816    0.918891   -0.052569
     42          6           0       -0.338864   -0.015126   -0.337308
     43          1           0       13.603473   -0.303562    1.250778
     44          1           0       13.331522   -2.053475    1.935649
     45          1           0      -14.324720   -0.444109    1.545105
     46          1           0      -13.875142   -0.277579   -0.190903
     47          1           0       12.643213   -2.739259   -0.199571
     48          1           0      -12.848730    1.706177    1.788063
     49          1           0       13.976962   -0.112610   -1.191835
     50          1           0       13.400766   -1.206231   -2.362525
     51          1           0      -13.403518    1.427983   -1.404461
     52          1           0      -12.662046    2.707061   -0.471410
     53          1           0       11.917469   -0.499273    3.484765
     54          1           0       10.364340    0.095633    2.629458
     55          1           0       11.764356    0.978115    2.407335
     56          1           0       10.809088   -2.941944    0.515252
     57          1           0       11.036337   -2.826233    2.155303
     58          1           0        9.569800   -1.893928    1.634141
     59          1           0      -11.505148    0.327600    2.218046
     60          1           0      -10.564188   -1.422458    1.988610
     61          1           0      -12.075269   -1.373797    3.102873
     62          1           0      -13.483418   -2.870614    0.917177
     63          1           0      -11.758361   -3.068541    0.254809
     64          1           0      -13.146129   -2.172065   -0.748481
     65          1           0        8.905182   -0.269414    0.443967
     66          1           0      -10.070127   -2.191102   -0.715565
     67          1           0       10.035754    0.405598   -2.455347
     68          1           0       11.550597    1.341739   -2.562944
     69          1           0       11.600181   -0.372708   -3.262948
     70          1           0      -11.433750    1.858786   -2.758363
     71          1           0      -10.038078    0.662704   -2.306606
     72          1           0      -10.231977    2.331803   -1.539676
     73          1           0       14.807466   -2.960056    0.211698
     74          1           0      -14.946824    2.093350    1.864167
     75          1           0        9.974315    2.156490   -0.886587
     76          1           0       -8.748642    0.317248    0.084103
     77          1           0        8.731694    4.126366   -0.479486
     78          1           0        7.065281    4.148040    0.322318
     79          1           0        8.506818    3.808275    1.244744
     80          1           0       -8.536556   -3.209198   -0.111485
     81          1           0       -8.204536   -2.900915   -1.840710
     82          1           0       -6.900132   -3.329834   -0.576807
     83          1           0        6.925801    0.565266   -0.276694
     84          1           0       -6.609031    0.355333    0.158650
     85          1           0        5.339564    2.843770    0.211997
     86          1           0       -4.669478   -2.147390   -0.569790
     87          1           0        4.618447    0.094995   -0.233177
     88          1           0       -4.213898    0.503690    0.121665
     89          1           0        3.481992    3.530321    1.318608
     90          1           0        1.829387    3.124927    1.008554
     91          1           0        2.894256    3.728670   -0.206723
     92          1           0       -2.814557   -2.807442    0.186164
     93          1           0       -3.080525   -2.687382   -1.637850
     94          1           0       -1.420933   -2.460882   -0.774242
     95          1           0        2.242082   -0.278907   -0.380978
     96          1           0       -1.858404    1.051125   -0.001222
     97          1           0        0.139660    1.885844    0.369918
     98          1           0        0.006737   -0.946111   -0.892327
 ---------------------------------------------------------------------

 SCF Done:  E(RCAM-B3LYP) =  -1706.97157297     A.U. after   14 cycles

 Excitation energies and oscillator strengths:

 Excited State   1:      Singlet-A      2.5415 eV  487.84 nm  f=3.8278  <S**2>=0.000
     155 ->158         0.16298
     156 ->157         0.68628
 This state for optimization and/or second-order correction.
 Total Energy, E(TD-HF/TD-DFT) =  -1706.87817453
 Copying the excited state density for this state as the 1-particle RhoCI density.

 The electronic state is 1-A.
 Alpha  occ. eigenvalues --  -19.22609 -19.22358 -10.31308 -10.31235 -10.28932
 Alpha  occ. eigenvalues --  -10.28314 -10.27210 -10.27118 -10.26984 -10.26861
 Alpha  occ. eigenvalues --  -10.26758 -10.26630 -10.26604 -10.26568 -10.26493
 Alpha  occ. eigenvalues --  -10.26400 -10.26389 -10.26217 -10.26035 -10.25938
 Alpha  occ. eigenvalues --  -10.25862 -10.25847 -10.25785 -10.25752 -10.25736
 Alpha  occ. eigenvalues --  -10.25680 -10.25603 -10.25599 -10.25497 -10.25454
 Alpha  occ. eigenvalues --  -10.25443 -10.25429 -10.25267 -10.25262 -10.25144
 Alpha  occ. eigenvalues --  -10.24983 -10.24515 -10.24502 -10.24347 -10.24089
 Alpha  occ. eigenvalues --  -10.23968 -10.23552  -1.11148  -1.09666  -0.94619
 Alpha  occ. eigenvalues --   -0.93357  -0.92671  -0.91795  -0.91071  -0.89993
 Alpha  occ. eigenvalues --   -0.88100  -0.87052  -0.86779  -0.85600  -0.84753
 Alpha  occ. eigenvalues --   -0.83795  -0.82357  -0.80807  -0.79932  -0.79273
 Alpha  occ. eigenvalues --   -0.77115  -0.76876  -0.76645  -0.75656  -0.75292
 Alpha  occ. eigenvalues --   -0.75067  -0.74943  -0.74314  -0.73924  -0.70791
 Alpha  occ. eigenvalues --   -0.68887  -0.67227  -0.65337  -0.64360  -0.63901
 Alpha  occ. eigenvalues --   -0.62698  -0.62465  -0.62308  -0.61530  -0.61174
 Alpha  occ. eigenvalues --   -0.60236  -0.59510  -0.59066  -0.58607  -0.56836
 Alpha  occ. eigenvalues --   -0.55695  -0.55577  -0.55071  -0.54413  -0.54160
 Alpha  occ. eigenvalues --   -0.53370  -0.52794  -0.52282  -0.51600  -0.51087
 Alpha  occ. eigenvalues --   -0.50673  -0.50298  -0.49999  -0.49838  -0.49488
 Alpha  occ. eigenvalues --   -0.49429  -0.49174  -0.49124  -0.48673  -0.48393
 Alpha  occ. eigenvalues --   -0.47711  -0.47590  -0.47368  -0.46747  -0.46633
 Alpha  occ. eigenvalues --   -0.46410  -0.46102  -0.46037  -0.45767  -0.45300
 Alpha  occ. eigenvalues --   -0.45177  -0.44862  -0.44381  -0.43828  -0.43429
 Alpha  occ. eigenvalues --   -0.43231  -0.42916  -0.42695  -0.42614  -0.41763
 Alpha  occ. eigenvalues --   -0.41547  -0.41403  -0.41377  -0.41154  -0.40895
 Alpha  occ. eigenvalues --   -0.40797  -0.40418  -0.40335  -0.40157  -0.39879
 Alpha  occ. eigenvalues --   -0.39555  -0.38961  -0.38710  -0.37906  -0.37818
 Alpha  occ. eigenvalues --   -0.37636  -0.37280  -0.36147  -0.35965  -0.35515
 Alpha  occ. eigenvalues --   -0.35106  -0.34308  -0.33167  -0.32683  -0.31939
 Alpha  occ. eigenvalues --   -0.31404  -0.29760  -0.28685  -0.27186  -0.23870
 Alpha  occ. eigenvalues --   -0.20147
 Alpha virt. eigenvalues --   -0.04837  -0.00454   0.03309   0.06161   0.07965
 Alpha virt. eigenvalues --    0.09378   0.10328   0.11307   0.11352   0.12120
 Alpha virt. eigenvalues --    0.12885   0.13150   0.13523   0.13693   0.14249

 Mulliken charges:
               1
     1  O   -0.530079
     2  O   -0.544908
     3  C   -0.019573
     4  C    0.013058
     5  C   -0.161936
     6  C   -0.170173
     7  C    0.142426
     8  C    0.153105
     9  C    0.029914
    10  C    0.052545
    11  C   -0.226232
    12  C   -0.230085
    13  C    0.061385
    14  C    0.016768
    15  C   -0.304742
    16  C   -0.306347
    17  C   -0.268334
    18  C   -0.285397
    19  C   -0.109480
    20  C   -0.176095
    21  C   -0.358775
    22  C   -0.345726
    23  C   -0.092776
    24  C   -0.048693
    25  C    0.082712
    26  C    0.120809
    27  C   -0.382250
    28  C   -0.385357
    29  C   -0.087120
    30  C   -0.155831
    31  C   -0.046619
    32  C   -0.073683
    33  C   -0.119584
    34  C   -0.095653
    35  C    0.066101
    36  C    0.090359
    37  C   -0.355227
    38  C   -0.376054
    39  C   -0.096193
    40  C   -0.079712
    41  C   -0.111432
    42  C   -0.076227
    43  H    0.111407
    44  H    0.086919
    45  H    0.064573
    46  H    0.107441
    47  H    0.039639
    48  H    0.059272
    49  H    0.117066
    50  H    0.096671
    51  H    0.133109
    52  H    0.095408
    53  H    0.099399
    54  H    0.100317
    55  H    0.100616
    56  H    0.117526
    57  H    0.094875
    58  H    0.104811
    59  H    0.079946
    60  H    0.102445
    61  H    0.084302
    62  H    0.101280
    63  H    0.081624
    64  H    0.070742
    65  H    0.092221
    66  H    0.088283
    67  H    0.117680
    68  H    0.115212
    69  H    0.089716
    70  H    0.115412
    71  H    0.129880
    72  H    0.108363
    73  H    0.308074
    74  H    0.311359
    75  H    0.099756
    76  H    0.067849
    77  H    0.110369
    78  H    0.101969
    79  H    0.123624
    80  H    0.111669
    81  H    0.140231
    82  H    0.110738
    83  H    0.045105
    84  H    0.084612
    85  H    0.038667
    86  H    0.070151
    87  H    0.066160
    88  H    0.063400
    89  H    0.118861
    90  H    0.122845
    91  H    0.141093
    92  H    0.128237
    93  H    0.115253
    94  H    0.114324
    95  H    0.081825
    96  H    0.057530
    97  H    0.079856
    98  H    0.071398
 Sum of Mulliken charges =  -0.00000

 Dipole moment (field-independent basis, Debye):
    X=              0.6757    Y=             -0.8046    Z=              2.2992  Tot=              2.5279
 Quadrupole moment (field-independent basis, Debye-Ang):
   XX=           -297.0948   YY=           -243.5937   ZZ=           -259.1660
   XY=              1.8877   XZ=              2.8538   YZ=              1.3753

 Normal termination of Gaussian 16 at Sat Jul  6 18:55:53 2019.
