 Gaussian 16, Revision A.03,
 Gaussian 16:  ES64L-G16RevA.03 25-Dec-2016

 -------------------------------------
 # td=(NStates=1) CAM-B3LYP/6-31G(d,p)
 -------------------------------------

 --
 TD
 --
 Symbolic Z-matrix:
 Charge =  0 Multiplicity = 1

                         Standard orientation:
 ---------------------------------------------------------------------
 Center     Atomic      Atomic             Coordinates (Angstroms)
 Number     Number       Type             X           Y           Z
 ---------------------------------------------------------------------
      1          8           0       14.666720   -2.287797   -0.296407
      2          8           0      -14.756553    2.030863    0.935771
      3          6           0       11.411819   -1.043774    1.310905
      4          6           0      -12.246469   -0.910910    0.867963
      5          6           0       12.916411   -1.471715    1.164305
      6          6           0      -13.630956   -0.168604    0.895877
      7          6           0       13.246023   -1.969496   -0.160568
      8          6           0      -13.470839    1.337469    0.824099
      9          6           0       11.010538   -0.271164    0.005259
     10          6           0      -11.319776   -0.290267   -0.142129
     11          6           0       13.011112   -0.881906   -1.176832
     12          6           0      -12.823620    1.594587   -0.490633
     13          6           0       11.641700   -0.248867   -1.159393
     14          6           0      -11.597928    0.808212   -0.822794
     15          6           0       11.159624   -0.108197    2.607865
     16          6           0       10.617974   -2.240903    1.439499
     17          6           0      -11.527175   -0.780993    2.221150
     18          6           0      -12.637555   -2.323053    0.473739
     19          6           0        9.613301    0.332904    0.094389
     20          6           0      -10.073851   -1.115923   -0.378924
     21          6           0       11.197359    0.430177   -2.380243
     22          6           0      -10.732437    1.398461   -2.029580
     23          6           0        9.409458    1.623741   -0.089094
     24          6           0       -8.838143   -0.561306   -0.335946
     25          6           0        7.987667    2.243802   -0.037336
     26          6           0       -7.657558   -1.229708   -0.467795
     27          6           0        8.133244    3.759269    0.427034
     28          6           0       -7.672634   -2.659075   -0.988617
     29          6           0        6.837045    1.600331   -0.107605
     30          6           0       -6.448926   -0.631607   -0.307284
     31          6           0        5.528475    2.057589    0.080404
     32          6           0       -5.091685   -1.139932   -0.458241
     33          6           0        4.423737    1.268003   -0.040846
     34          6           0       -3.986528   -0.367678   -0.334938
     35          6           0        3.054159    1.676028   -0.003981
     36          6           0       -2.575302   -0.889742   -0.501808
     37          6           0        2.750510    3.034261    0.452468
     38          6           0       -2.327871   -2.273405   -0.857161
     39          6           0        2.132546    0.711024   -0.205924
     40          6           0       -1.572185    0.026464   -0.364274
     41          6           0        0.691944    0.829993   -0.152546
     42          6           0       -0.130344   -0.119815   -0.438765
     43          1           0       13.449043   -0.608395    1.438933
     44          1           0       13.198445   -2.070739    1.850684
     45          1           0      -14.300276   -0.308830    1.809034
     46          1           0      -14.443596   -0.382914    0.099696
     47          1           0       12.674120   -2.889059   -0.452433
     48          1           0      -12.892708    1.560185    1.777250
     49          1           0       13.795824   -0.133920   -1.174464
     50          1           0       13.206863   -1.411020   -2.241017
     51          1           0      -13.567080    1.493109   -1.059899
     52          1           0      -12.486939    2.655503   -0.418316
     53          1           0       11.899982   -0.427240    3.307584
     54          1           0       10.102508   -0.290330    2.851132
     55          1           0       11.428296    0.990989    2.393071
     56          1           0       10.675192   -3.054797    0.535145
     57          1           0       10.953545   -2.815381    2.306544
     58          1           0        9.513638   -2.189878    1.637059
     59          1           0      -11.454642    0.311385    2.418369
     60          1           0      -10.518730   -0.954059    2.223835
     61          1           0      -12.007530   -1.388496    2.990167
     62          1           0      -13.537456   -2.673878    1.250712
     63          1           0      -11.786915   -3.036852    0.557365
     64          1           0      -12.862084   -2.463248   -0.566211
     65          1           0        8.892406   -0.223045    0.472899
     66          1           0      -10.186945   -2.176375   -0.744481
     67          1           0       10.051652    0.952707   -2.177880
     68          1           0       12.047945    1.352729   -2.812445
     69          1           0       11.104501    0.002950   -3.309447
     70          1           0      -11.459517    1.736883   -2.820607
     71          1           0      -10.017244    0.794203   -2.386993
     72          1           0      -10.388088    2.318208   -1.585421
     73          1           0       14.859604   -3.139139    0.144075
     74          1           0      -14.958570    1.802597    1.885667
     75          1           0       10.282544    2.229848   -0.390999
     76          1           0       -8.679977    0.432328    0.106861
     77          1           0        8.842233    4.177705   -0.274043
     78          1           0        7.260082    4.354430    0.719939
     79          1           0        8.542271    3.722066    1.437119
     80          1           0       -8.388705   -3.234191   -0.415893
     81          1           0       -7.975822   -2.598130   -2.055168
     82          1           0       -6.698593   -3.023225   -1.024454
     83          1           0        7.068150    0.562508   -0.465641
     84          1           0       -6.381818    0.386063   -0.063779
     85          1           0        5.599728    3.200156    0.152108
     86          1           0       -5.093692   -2.042772   -0.886825
     87          1           0        4.618498    0.161805   -0.162202
     88          1           0       -4.116882    0.634411   -0.087393
     89          1           0        3.108143    3.279114    1.502435
     90          1           0        1.696781    3.102538    0.397533
     91          1           0        3.099904    3.809597   -0.224317
     92          1           0       -2.545661   -2.998569   -0.130137
     93          1           0       -2.926507   -2.772337   -1.826678
     94          1           0       -1.362728   -2.474261   -1.084881
     95          1           0        2.471822   -0.314498   -0.320858
     96          1           0       -1.968671    1.019797   -0.026186
     97          1           0        0.382732    1.858150    0.090634
     98          1           0        0.422410   -0.956557   -0.871902
 ---------------------------------------------------------------------

 SCF Done:  E(RCAM-B3LYP) =  -1707.04259042     A.U. after   13 cycles

 Excitation energies and oscillator strengths:

 Excited State   1:      Singlet-A      3.0205 eV  410.48 nm  f=3.7877  <S**2>=0.000
     155 ->158         0.19205
     156 ->157         0.67416
 This state for optimization and/or second-order correction.
 Total Energy, E(TD-HF/TD-DFT) =  -1706.93158891
 Copying the excited state density for this state as the 1-particle RhoCI density.

 The electronic state is 1-A.
 Alpha  occ. eigenvalues --  -19.21455 -19.20760 -10.30247 -10.29797 -10.28068
 Alpha  occ. eigenvalues --  -10.27668 -10.27506 -10.27451 -10.27002 -10.26776
 Alpha  occ. eigenvalues --  -10.26742 -10.26574 -10.26468 -10.26435 -10.26373
 Alpha  occ. eigenvalues --  -10.26285 -10.26268 -10.26216 -10.26039 -10.26012
 Alpha  occ. eigenvalues --  -10.25881 -10.25855 -10.25845 -10.25808 -10.25775
 Alpha  occ. eigenvalues --  -10.25686 -10.25320 -10.25299 -10.25288 -10.25276
 Alpha  occ. eigenvalues --  -10.25263 -10.25210 -10.25185 -10.25179 -10.25143
 Alpha  occ. eigenvalues --  -10.24909 -10.24689 -10.24659 -10.24635 -10.23871
 Alpha  occ. eigenvalues --  -10.23479 -10.22854  -1.08080  -1.07845  -0.94043
 Alpha  occ. eigenvalues --   -0.93991  -0.92704  -0.92040  -0.90974  -0.90048
 Alpha  occ. eigenvalues --   -0.88053  -0.87408  -0.86894  -0.85975  -0.85327
 Alpha  occ. eigenvalues --   -0.83490  -0.82809  -0.80428  -0.79823  -0.78547
 Alpha  occ. eigenvalues --   -0.77070  -0.76984  -0.76778  -0.76230  -0.76152
 Alpha  occ. eigenvalues --   -0.75908  -0.75428  -0.75133  -0.74517  -0.70913
 Alpha  occ. eigenvalues --   -0.68946  -0.67217  -0.65486  -0.64952  -0.64436
 Alpha  occ. eigenvalues --   -0.64275  -0.63175  -0.62520  -0.62036  -0.60081
 Alpha  occ. eigenvalues --   -0.59109  -0.58882  -0.58767  -0.57778  -0.56579
 Alpha  occ. eigenvalues --   -0.55639  -0.55279  -0.55027  -0.54685  -0.54058
 Alpha  occ. eigenvalues --   -0.53333  -0.52841  -0.52446  -0.51904  -0.50930
 Alpha  occ. eigenvalues --   -0.50705  -0.50353  -0.50223  -0.49655  -0.49426
 Alpha  occ. eigenvalues --   -0.49011  -0.48993  -0.48926  -0.48629  -0.48313
 Alpha  occ. eigenvalues --   -0.47761  -0.47453  -0.47317  -0.47081  -0.46903
 Alpha  occ. eigenvalues --   -0.46342  -0.46057  -0.45791  -0.45493  -0.45169
 Alpha  occ. eigenvalues --   -0.44987  -0.44818  -0.44670  -0.43950  -0.43742
 Alpha  occ. eigenvalues --   -0.43391  -0.42967  -0.42456  -0.42136  -0.41923
 Alpha  occ. eigenvalues --   -0.41826  -0.41503  -0.41213  -0.41003  -0.40934
 Alpha  occ. eigenvalues --   -0.40294  -0.39897  -0.39738  -0.39661  -0.39423
 Alpha  occ. eigenvalues --   -0.39115  -0.39098  -0.39028  -0.38442  -0.38202
 Alpha  occ. eigenvalues --   -0.37609  -0.37405  -0.36855  -0.36568  -0.36042
 Alpha  occ. eigenvalues --   -0.35713  -0.35174  -0.33599  -0.32541  -0.32068
 Alpha  occ. eigenvalues --   -0.31193  -0.29969  -0.28691  -0.27345  -0.24210
 Alpha  occ. eigenvalues --   -0.21483
 Alpha virt. eigenvalues --   -0.03632  -0.00149   0.03590   0.06391   0.08284
 Alpha virt. eigenvalues --    0.09372   0.11100   0.11493   0.11981   0.12367
 Alpha virt. eigenvalues --    0.13209   0.13245   0.13495   0.14186   0.14386

 Mulliken charges:
               1
     1  O   -0.574855
     2  O   -0.563095
     3  C   -0.019704
     4  C    0.006234
     5  C   -0.156403
     6  C   -0.186211
     7  C    0.156699
     8  C    0.116177
     9  C    0.019465
    10  C    0.031987
    11  C   -0.219530
    12  C   -0.185908
    13  C    0.119962
    14  C    0.027570
    15  C   -0.310233
    16  C   -0.297680
    17  C   -0.303375
    18  C   -0.297342
    19  C   -0.105221
    20  C   -0.158822
    21  C   -0.355404
    22  C   -0.335680
    23  C   -0.099712
    24  C   -0.076197
    25  C    0.038030
    26  C    0.117786
    27  C   -0.371849
    28  C   -0.369415
    29  C   -0.099225
    30  C   -0.142139
    31  C   -0.085575
    32  C   -0.056943
    33  C   -0.126391
    34  C   -0.119117
    35  C    0.125988
    36  C    0.134149
    37  C   -0.366741
    38  C   -0.379240
    39  C   -0.140969
    40  C   -0.147258
    41  C   -0.051521
    42  C   -0.091173
    43  H    0.104527
    44  H    0.076772
    45  H    0.059593
    46  H    0.095522
    47  H    0.082940
    48  H    0.072212
    49  H    0.125879
    50  H    0.077543
    51  H    0.125251
    52  H    0.099108
    53  H    0.109586
    54  H    0.113488
    55  H    0.108676
    56  H    0.084416
    57  H    0.102699
    58  H    0.099112
    59  H    0.095914
    60  H    0.121863
    61  H    0.099111
    62  H    0.080482
    63  H    0.089334
    64  H    0.116398
    65  H    0.080891
    66  H    0.097059
    67  H    0.095804
    68  H    0.053143
    69  H    0.131751
    70  H    0.105114
    71  H    0.125358
    72  H    0.118669
    73  H    0.301764
    74  H    0.309518
    75  H    0.101847
    76  H    0.082842
    77  H    0.120865
    78  H    0.106408
    79  H    0.124515
    80  H    0.115783
    81  H    0.120067
    82  H    0.109467
    83  H    0.069295
    84  H    0.061709
    85  H    0.084054
    86  H    0.068517
    87  H    0.081666
    88  H    0.081677
    89  H    0.124005
    90  H    0.104689
    91  H    0.122038
    92  H    0.132355
    93  H    0.084229
    94  H    0.120659
    95  H    0.076090
    96  H    0.080747
    97  H    0.077750
    98  H    0.088109
 Sum of Mulliken charges =  -0.00000

 Dipole moment (field-independent basis, Debye):
    X=              1.3355    Y=             -1.9012    Z=              2.0768  Tot=              3.1163
 Quadrupole moment (field-independent basis, Debye-Ang):
   XX=           -300.3122   YY=           -244.4663   ZZ=           -257.3218
   XY=              3.0368   XZ=              7.3243   YZ=              2.5051

 Normal termination of Gaussian 16 at Mon Jul  8 01:27:09 2019.
