 Gaussian 16, Revision A.03,
 Gaussian 16:  ES64L-G16RevA.03 25-Dec-2016

 -------------------------------------
 # td=(NStates=1) CAM-B3LYP/6-31G(d,p)
 -------------------------------------

 --
 TD
 --
 Symbolic Z-matrix:
 Charge =  0 Multiplicity = 1

                         Standard orientation:
 ---------------------------------------------------------------------
 Center     Atomic      Atomic             Coordinates (Angstroms)
 Number     Number       Type             X           Y           Z
 ---------------------------------------------------------------------
      1          8           0       14.613740   -2.342037   -0.567303
      2          8           0      -14.815437    1.993558    0.566830
      3          6           0       11.447291   -1.274296    1.094337
      4          6           0      -12.345025   -0.988117    0.728416
      5          6           0       12.901431   -1.640735    0.908741
      6          6           0      -13.727725   -0.245166    0.702705
      7          6           0       13.284162   -2.016789   -0.557279
      8          6           0      -13.663580    1.245644    0.620237
      9          6           0       10.982806   -0.281151    0.000196
     10          6           0      -11.359624   -0.384770   -0.184982
     11          6           0       12.919904   -0.850735   -1.496554
     12          6           0      -12.787241    1.573595   -0.577199
     13          6           0       11.648515   -0.090189   -1.178239
     14          6           0      -11.615779    0.893528   -0.870235
     15          6           0       11.248881   -0.490782    2.514373
     16          6           0       10.490791   -2.520845    1.231085
     17          6           0      -11.780916   -1.061832    2.178481
     18          6           0      -12.675496   -2.418605    0.283053
     19          6           0        9.656949    0.363139    0.221293
     20          6           0      -10.070904   -1.109097   -0.484632
     21          6           0       11.292032    0.669769   -2.344799
     22          6           0      -10.683123    1.446079   -1.912542
     23          6           0        9.442990    1.659111    0.016587
     24          6           0       -8.828021   -0.665732   -0.134369
     25          6           0        8.082618    2.234620    0.199605
     26          6           0       -7.524289   -1.243072   -0.420844
     27          6           0        8.034244    3.701626    0.590725
     28          6           0       -7.536071   -2.716992   -1.005084
     29          6           0        6.958854    1.557304    0.053899
     30          6           0       -6.408799   -0.538545   -0.176138
     31          6           0        5.565240    2.089765    0.351390
     32          6           0       -5.095080   -0.991733   -0.179367
     33          6           0        4.483729    1.299447    0.143906
     34          6           0       -3.974418   -0.187178   -0.153788
     35          6           0        3.108563    1.725459    0.263818
     36          6           0       -2.630828   -0.564937   -0.416209
     37          6           0        2.906177    3.160662    0.526053
     38          6           0       -2.328039   -1.991557   -0.718849
     39          6           0        2.115894    0.818186   -0.019410
     40          6           0       -1.553169    0.220828   -0.162039
     41          6           0        0.725916    1.062970   -0.010263
     42          6           0       -0.170354    0.009983   -0.275125
     43          1           0       13.517534   -0.787751    1.232126
     44          1           0       13.205587   -2.564684    1.573479
     45          1           0      -14.311081   -0.754734    1.546586
     46          1           0      -14.241121   -0.434899   -0.306490
     47          1           0       12.543286   -2.791314   -0.750824
     48          1           0      -13.018419    1.595443    1.508491
     49          1           0       13.796288   -0.156650   -1.530340
     50          1           0       12.807701   -1.149390   -2.566338
     51          1           0      -13.324918    1.600891   -1.413931
     52          1           0      -12.519697    2.532661   -0.472494
     53          1           0       11.908923   -0.942498    3.449764
     54          1           0       10.222249   -0.423905    2.890957
     55          1           0       11.772735    0.581955    2.656255
     56          1           0       10.732283   -3.172641    0.305429
     57          1           0       10.674855   -2.912770    2.130018
     58          1           0        9.419891   -2.047002    1.131788
     59          1           0      -11.637140   -0.105949    2.662985
     60          1           0      -10.751231   -1.367363    2.179509
     61          1           0      -12.324562   -1.798445    2.852165
     62          1           0      -13.463661   -2.792400    1.037669
     63          1           0      -11.881317   -3.080236    0.444060
     64          1           0      -13.055362   -2.447932   -0.728172
     65          1           0        8.874895   -0.356594    0.914772
     66          1           0      -10.164645   -2.200088   -0.757148
     67          1           0       10.242848    1.014596   -2.129268
     68          1           0       12.057299    1.348778   -2.424676
     69          1           0       11.447223    0.028233   -3.104440
     70          1           0      -11.121000    1.904202   -2.735538
     71          1           0       -9.855957    0.879693   -2.462328
     72          1           0      -10.298306    2.309989   -1.348826
     73          1           0       14.764962   -3.041085    0.090975
     74          1           0      -15.334852    1.674370    1.315333
     75          1           0       10.101353    2.378130   -0.473221
     76          1           0       -8.685776    0.478086    0.171882
     77          1           0        8.678075    4.081457   -0.280913
     78          1           0        7.231069    3.981139    0.327406
     79          1           0        8.497199    3.748265    1.519103
     80          1           0       -7.895042   -3.325806   -0.306932
     81          1           0       -8.211670   -2.601436   -1.913133
     82          1           0       -6.563547   -3.197626   -1.329244
     83          1           0        6.650855    0.601318   -0.654083
     84          1           0       -6.393716    0.444355    0.311677
     85          1           0        5.587272    3.001696    0.703926
     86          1           0       -4.592013   -2.126906   -0.356823
     87          1           0        4.766858    0.205852   -0.083981
     88          1           0       -4.204377    0.913898   -0.037817
     89          1           0        3.336931    3.458127    1.514334
     90          1           0        1.872667    3.568047    0.617699
     91          1           0        3.469782    3.842545   -0.212132
     92          1           0       -2.965114   -2.578879    0.050120
     93          1           0       -2.832907   -2.553712   -1.542118
     94          1           0       -1.343625   -2.326439   -0.737140
     95          1           0        2.469669   -0.300090   -0.330259
     96          1           0       -1.875712    1.136998    0.071682
     97          1           0        0.372033    2.018597    0.255274
     98          1           0        0.226977   -0.955429   -0.578783
 ---------------------------------------------------------------------

 SCF Done:  E(RCAM-B3LYP) =  -1706.96096613     A.U. after   14 cycles

 Excitation energies and oscillator strengths:

 Excited State   1:      Singlet-A      2.5912 eV  478.48 nm  f=3.6354  <S**2>=0.000
     155 ->158         0.14587
     156 ->157         0.68816
 This state for optimization and/or second-order correction.
 Total Energy, E(TD-HF/TD-DFT) =  -1706.86574191
 Copying the excited state density for this state as the 1-particle RhoCI density.

 The electronic state is 1-A.
 Alpha  occ. eigenvalues --  -19.22274 -19.21922 -10.30557 -10.30463 -10.28297
 Alpha  occ. eigenvalues --  -10.27569 -10.27394 -10.27325 -10.27265 -10.27223
 Alpha  occ. eigenvalues --  -10.27009 -10.26960 -10.26797 -10.26722 -10.26676
 Alpha  occ. eigenvalues --  -10.26659 -10.26485 -10.26433 -10.26385 -10.26256
 Alpha  occ. eigenvalues --  -10.26224 -10.26215 -10.26213 -10.25963 -10.25955
 Alpha  occ. eigenvalues --  -10.25945 -10.25831 -10.25803 -10.25712 -10.25608
 Alpha  occ. eigenvalues --  -10.25544 -10.25520 -10.25388 -10.25122 -10.25120
 Alpha  occ. eigenvalues --  -10.24842 -10.24453 -10.24346 -10.24195 -10.23680
 Alpha  occ. eigenvalues --  -10.23201 -10.22409  -1.11902  -1.11454  -0.93729
 Alpha  occ. eigenvalues --   -0.93374  -0.92289  -0.91595  -0.90590  -0.89958
 Alpha  occ. eigenvalues --   -0.88432  -0.87895  -0.87012  -0.85274  -0.84621
 Alpha  occ. eigenvalues --   -0.83027  -0.81924  -0.80980  -0.79798  -0.78362
 Alpha  occ. eigenvalues --   -0.77113  -0.76681  -0.76599  -0.75997  -0.75625
 Alpha  occ. eigenvalues --   -0.75504  -0.75071  -0.73964  -0.73720  -0.70825
 Alpha  occ. eigenvalues --   -0.68975  -0.67943  -0.66353  -0.65123  -0.63977
 Alpha  occ. eigenvalues --   -0.63746  -0.62607  -0.62114  -0.60623  -0.59803
 Alpha  occ. eigenvalues --   -0.59385  -0.58986  -0.58426  -0.57384  -0.56915
 Alpha  occ. eigenvalues --   -0.56124  -0.55543  -0.54895  -0.53839  -0.53615
 Alpha  occ. eigenvalues --   -0.53590  -0.53027  -0.52836  -0.51994  -0.51651
 Alpha  occ. eigenvalues --   -0.51396  -0.51024  -0.50217  -0.49855  -0.49678
 Alpha  occ. eigenvalues --   -0.49460  -0.49102  -0.48861  -0.48245  -0.48021
 Alpha  occ. eigenvalues --   -0.47682  -0.47674  -0.47472  -0.47108  -0.46019
 Alpha  occ. eigenvalues --   -0.45923  -0.45687  -0.45253  -0.44982  -0.44779
 Alpha  occ. eigenvalues --   -0.44564  -0.44283  -0.44075  -0.43593  -0.43230
 Alpha  occ. eigenvalues --   -0.43122  -0.42878  -0.42807  -0.42507  -0.42177
 Alpha  occ. eigenvalues --   -0.42043  -0.41580  -0.41542  -0.41338  -0.40991
 Alpha  occ. eigenvalues --   -0.40928  -0.40536  -0.39822  -0.39472  -0.39334
 Alpha  occ. eigenvalues --   -0.38905  -0.38818  -0.38494  -0.38410  -0.37523
 Alpha  occ. eigenvalues --   -0.37346  -0.37026  -0.36645  -0.36101  -0.35847
 Alpha  occ. eigenvalues --   -0.35589  -0.34632  -0.33880  -0.32016  -0.31889
 Alpha  occ. eigenvalues --   -0.31457  -0.29029  -0.27135  -0.25583  -0.23911
 Alpha  occ. eigenvalues --   -0.20162
 Alpha virt. eigenvalues --   -0.04607   0.00280   0.02773   0.05914   0.07570
 Alpha virt. eigenvalues --    0.09792   0.10834   0.11665   0.12174   0.12277
 Alpha virt. eigenvalues --    0.12660   0.12829   0.13320   0.13597   0.14121

 Mulliken charges:
               1
     1  O   -0.544738
     2  O   -0.536617
     3  C   -0.018602
     4  C   -0.011153
     5  C   -0.202075
     6  C   -0.187689
     7  C    0.192089
     8  C    0.169576
     9  C    0.075797
    10  C    0.022935
    11  C   -0.242915
    12  C   -0.225362
    13  C    0.044244
    14  C    0.066135
    15  C   -0.311847
    16  C   -0.281063
    17  C   -0.315113
    18  C   -0.293833
    19  C   -0.120983
    20  C   -0.159202
    21  C   -0.342036
    22  C   -0.366284
    23  C   -0.089617
    24  C   -0.082989
    25  C   -0.010483
    26  C    0.103067
    27  C   -0.298040
    28  C   -0.361436
    29  C   -0.108860
    30  C   -0.149424
    31  C   -0.071575
    32  C   -0.060886
    33  C   -0.134856
    34  C   -0.126522
    35  C    0.135948
    36  C    0.140964
    37  C   -0.391100
    38  C   -0.405434
    39  C   -0.129925
    40  C   -0.112621
    41  C   -0.073986
    42  C   -0.076043
    43  H    0.106367
    44  H    0.054729
    45  H    0.074343
    46  H    0.086298
    47  H    0.070797
    48  H    0.050824
    49  H    0.114889
    50  H    0.099269
    51  H    0.126833
    52  H    0.115039
    53  H    0.065509
    54  H    0.110109
    55  H    0.088839
    56  H    0.093856
    57  H    0.123717
    58  H    0.087468
    59  H    0.105476
    60  H    0.115505
    61  H    0.087356
    62  H    0.082601
    63  H    0.107168
    64  H    0.109681
    65  H    0.086905
    66  H    0.087116
    67  H    0.113893
    68  H    0.124809
    69  H    0.116973
    70  H    0.116379
    71  H    0.126335
    72  H    0.116120
    73  H    0.310703
    74  H    0.312099
    75  H    0.097858
    76  H    0.073219
    77  H    0.095337
    78  H    0.105126
    79  H    0.137954
    80  H    0.136265
    81  H    0.115824
    82  H    0.107104
    83  H    0.068509
    84  H    0.091695
    85  H    0.070962
    86  H    0.050628
    87  H    0.081665
    88  H    0.070447
    89  H    0.120588
    90  H    0.107978
    91  H    0.118868
    92  H    0.109700
    93  H    0.115379
    94  H    0.116028
    95  H    0.074579
    96  H    0.062301
    97  H    0.089843
    98  H    0.086693
 Sum of Mulliken charges =  -0.00000

 Dipole moment (field-independent basis, Debye):
    X=              0.0722    Y=             -0.6804    Z=              1.1102  Tot=              1.3041
 Quadrupole moment (field-independent basis, Debye-Ang):
   XX=           -254.3170   YY=           -244.2894   ZZ=           -259.8809
   XY=              6.8325   XZ=             -1.6774   YZ=              0.3727

 Normal termination of Gaussian 16 at Thu Jul  4 10:33:16 2019.
