 Gaussian 16, Revision A.03,
 Gaussian 16:  ES64L-G16RevA.03 25-Dec-2016

 -------------------------------------
 # td=(NStates=1) CAM-B3LYP/6-31G(d,p)
 -------------------------------------

 --
 TD
 --
 Symbolic Z-matrix:
 Charge =  0 Multiplicity = 1

                         Standard orientation:
 ---------------------------------------------------------------------
 Center     Atomic      Atomic             Coordinates (Angstroms)
 Number     Number       Type             X           Y           Z
 ---------------------------------------------------------------------
      1          8           0       14.544250   -2.240424   -0.539994
      2          8           0      -14.753757    2.049727    0.637135
      3          6           0       11.480914   -0.951391    1.222848
      4          6           0      -12.258611   -0.923142    0.928531
      5          6           0       12.957885   -1.441935    1.131675
      6          6           0      -13.574935   -0.170885    0.830607
      7          6           0       13.274567   -2.109038   -0.227316
      8          6           0      -13.454467    1.377484    0.756525
      9          6           0       10.900632   -0.259799   -0.013858
     10          6           0      -11.272016   -0.257837   -0.215897
     11          6           0       12.807755   -1.167439   -1.373589
     12          6           0      -12.728988    1.700742   -0.541511
     13          6           0       11.584691   -0.480640   -1.232434
     14          6           0      -11.534620    0.852692   -0.797738
     15          6           0       11.488055   -0.087852    2.555939
     16          6           0       10.614063   -2.236407    1.657827
     17          6           0      -11.673144   -0.885043    2.238692
     18          6           0      -12.598724   -2.420464    0.580603
     19          6           0        9.720443    0.496613    0.305394
     20          6           0      -10.100213   -1.092430   -0.385591
     21          6           0       10.883565    0.114521   -2.571057
     22          6           0      -10.611849    1.461294   -1.925983
     23          6           0        9.380166    1.695159   -0.260045
     24          6           0       -8.881230   -0.523040   -0.400660
     25          6           0        8.129128    2.323119   -0.006819
     26          6           0       -7.576121   -1.338592   -0.644329
     27          6           0        8.242806    3.814790    0.297491
     28          6           0       -7.737720   -2.809750   -0.997013
     29          6           0        6.981739    1.663404   -0.014087
     30          6           0       -6.415280   -0.655315   -0.390295
     31          6           0        5.594800    2.141096    0.154882
     32          6           0       -5.091207   -1.150544   -0.505941
     33          6           0        4.450811    1.348566   -0.040333
     34          6           0       -4.039949   -0.380305   -0.209251
     35          6           0        3.098366    1.685627    0.067013
     36          6           0       -2.584616   -0.798230   -0.403279
     37          6           0        2.849901    3.143840    0.423374
     38          6           0       -2.417662   -2.178222   -0.686538
     39          6           0        2.150464    0.774478   -0.012645
     40          6           0       -1.591839    0.058033   -0.145740
     41          6           0        0.708791    0.867704    0.070938
     42          6           0       -0.230646   -0.210711   -0.190253
     43          1           0       13.653011   -0.653623    1.166309
     44          1           0       13.439459   -2.108308    1.903874
     45          1           0      -14.457464   -0.551985    1.515799
     46          1           0      -14.197313   -0.426618   -0.053095
     47          1           0       12.493445   -3.033500   -0.311069
     48          1           0      -12.847363    1.729126    1.676857
     49          1           0       13.444396   -0.501591   -1.444737
     50          1           0       12.820053   -1.676823   -2.237035
     51          1           0      -13.622903    1.568006   -1.240933
     52          1           0      -12.501752    2.737840   -0.489834
     53          1           0       11.800425   -0.871533    3.246132
     54          1           0       10.493838    0.431047    2.674356
     55          1           0       12.323481    0.821738    2.692801
     56          1           0       10.486768   -2.961574    0.776334
     57          1           0       10.912916   -2.647142    2.679280
     58          1           0        9.679282   -1.777476    2.097122
     59          1           0      -11.355207    0.176167    2.435727
     60          1           0      -10.791990   -1.443103    2.166816
     61          1           0      -12.332781   -1.342620    3.036055
     62          1           0      -13.206102   -2.676135    1.319424
     63          1           0      -11.821197   -3.123573    0.629155
     64          1           0      -12.942951   -2.446784   -0.476951
     65          1           0        9.011703    0.150207    1.104124
     66          1           0      -10.339222   -2.133109   -0.227770
     67          1           0        9.837425    0.586327   -2.365109
     68          1           0       11.627327    0.855429   -2.800537
     69          1           0       10.646555   -0.597304   -3.331059
     70          1           0      -11.126684    1.925108   -2.593708
     71          1           0      -10.140511    0.496685   -2.287471
     72          1           0       -9.856819    2.251240   -1.574978
     73          1           0       14.846109   -2.945198    0.079767
     74          1           0      -15.298047    1.869287    1.423701
     75          1           0       10.113941    2.152738   -1.054675
     76          1           0       -8.809325    0.530008   -0.050988
     77          1           0        8.829099    4.279078   -0.585415
     78          1           0        7.207627    4.497218    0.258500
     79          1           0        8.766231    4.002949    1.434490
     80          1           0       -8.236902   -3.279268   -0.213817
     81          1           0       -8.292595   -2.897724   -1.896281
     82          1           0       -6.668751   -3.160870   -1.150297
     83          1           0        6.938979    0.572066   -0.437634
     84          1           0       -6.580404    0.318003    0.058419
     85          1           0        5.380172    3.155802    0.375319
     86          1           0       -4.894953   -2.071261   -1.036828
     87          1           0        4.746169    0.440152   -0.450204
     88          1           0       -4.385541    0.603853    0.027175
     89          1           0        3.019871    3.577507    1.372487
     90          1           0        1.856221    3.450755    0.424007
     91          1           0        3.230723    3.874902   -0.389022
     92          1           0       -2.964662   -2.877995    0.179677
     93          1           0       -3.194710   -2.398608   -1.662069
     94          1           0       -1.468997   -2.572368   -1.119913
     95          1           0        2.434113   -0.070249   -0.223504
     96          1           0       -1.988854    1.030277    0.220396
     97          1           0        0.344496    1.909665    0.119808
     98          1           0        0.061979   -1.162173   -0.346919
 ---------------------------------------------------------------------

 SCF Done:  E(RCAM-B3LYP) =  -1706.94203957     A.U. after   14 cycles

 Excitation energies and oscillator strengths:

 Excited State   1:      Singlet-A      2.7050 eV  458.35 nm  f=3.5885  <S**2>=0.000
     155 ->158        -0.16148
     156 ->157         0.68262
 This state for optimization and/or second-order correction.
 Total Energy, E(TD-HF/TD-DFT) =  -1706.84263265
 Copying the excited state density for this state as the 1-particle RhoCI density.

 The electronic state is 1-A.
 Alpha  occ. eigenvalues --  -19.23492 -19.21229 -10.31002 -10.30877 -10.28684
 Alpha  occ. eigenvalues --  -10.28112 -10.27717 -10.27636 -10.27516 -10.27317
 Alpha  occ. eigenvalues --  -10.27112 -10.27094 -10.26848 -10.26678 -10.26674
 Alpha  occ. eigenvalues --  -10.26671 -10.26386 -10.26160 -10.26126 -10.26059
 Alpha  occ. eigenvalues --  -10.25910 -10.25892 -10.25864 -10.25711 -10.25663
 Alpha  occ. eigenvalues --  -10.25605 -10.25546 -10.25424 -10.25388 -10.25297
 Alpha  occ. eigenvalues --  -10.25220 -10.25215 -10.25213 -10.24806 -10.24717
 Alpha  occ. eigenvalues --  -10.24579 -10.24403 -10.24070 -10.23989 -10.23960
 Alpha  occ. eigenvalues --  -10.23517 -10.21734  -1.14819  -1.07711  -0.93700
 Alpha  occ. eigenvalues --   -0.92817  -0.92549  -0.91893  -0.90475  -0.89939
 Alpha  occ. eigenvalues --   -0.87909  -0.86960  -0.86795  -0.85433  -0.84423
 Alpha  occ. eigenvalues --   -0.83196  -0.81631  -0.79888  -0.79138  -0.78704
 Alpha  occ. eigenvalues --   -0.77266  -0.76631  -0.76428  -0.75985  -0.75511
 Alpha  occ. eigenvalues --   -0.75150  -0.74829  -0.73733  -0.73483  -0.70449
 Alpha  occ. eigenvalues --   -0.68867  -0.67814  -0.65717  -0.65020  -0.64071
 Alpha  occ. eigenvalues --   -0.63450  -0.63007  -0.61742  -0.61426  -0.60607
 Alpha  occ. eigenvalues --   -0.60184  -0.59195  -0.58342  -0.58098  -0.56193
 Alpha  occ. eigenvalues --   -0.55563  -0.55376  -0.55212  -0.54239  -0.54026
 Alpha  occ. eigenvalues --   -0.52803  -0.52259  -0.52029  -0.51574  -0.50981
 Alpha  occ. eigenvalues --   -0.50683  -0.50070  -0.49826  -0.49378  -0.49293
 Alpha  occ. eigenvalues --   -0.48974  -0.48777  -0.48622  -0.48613  -0.48323
 Alpha  occ. eigenvalues --   -0.47952  -0.47679  -0.47372  -0.47082  -0.46743
 Alpha  occ. eigenvalues --   -0.46351  -0.45767  -0.45586  -0.45227  -0.45014
 Alpha  occ. eigenvalues --   -0.44691  -0.44229  -0.43966  -0.43863  -0.43614
 Alpha  occ. eigenvalues --   -0.42859  -0.42826  -0.42515  -0.41734  -0.41683
 Alpha  occ. eigenvalues --   -0.41328  -0.41151  -0.41020  -0.40577  -0.40539
 Alpha  occ. eigenvalues --   -0.40342  -0.40106  -0.39748  -0.39559  -0.39408
 Alpha  occ. eigenvalues --   -0.39110  -0.38885  -0.38450  -0.38400  -0.37923
 Alpha  occ. eigenvalues --   -0.37440  -0.37062  -0.36646  -0.36507  -0.35766
 Alpha  occ. eigenvalues --   -0.34825  -0.34043  -0.32515  -0.32156  -0.31823
 Alpha  occ. eigenvalues --   -0.31502  -0.30188  -0.28212  -0.25677  -0.24005
 Alpha  occ. eigenvalues --   -0.20771
 Alpha virt. eigenvalues --   -0.04508  -0.00006   0.02310   0.05488   0.08101
 Alpha virt. eigenvalues --    0.10517   0.10984   0.12191   0.12302   0.12403
 Alpha virt. eigenvalues --    0.12883   0.13060   0.13144   0.13615   0.13742

 Mulliken charges:
               1
     1  O   -0.504604
     2  O   -0.571098
     3  C   -0.042180
     4  C   -0.024329
     5  C   -0.178371
     6  C   -0.189841
     7  C    0.142227
     8  C    0.148727
     9  C    0.084273
    10  C    0.065869
    11  C   -0.189656
    12  C   -0.214629
    13  C    0.006195
    14  C    0.018573
    15  C   -0.286112
    16  C   -0.301951
    17  C   -0.272308
    18  C   -0.308967
    19  C   -0.113529
    20  C   -0.135352
    21  C   -0.363193
    22  C   -0.344548
    23  C   -0.128543
    24  C   -0.100644
    25  C    0.087291
    26  C    0.062946
    27  C   -0.338567
    28  C   -0.356374
    29  C   -0.121552
    30  C   -0.122886
    31  C   -0.079151
    32  C   -0.063815
    33  C   -0.125812
    34  C   -0.121186
    35  C    0.144151
    36  C    0.132667
    37  C   -0.395961
    38  C   -0.384371
    39  C   -0.076853
    40  C   -0.095303
    41  C   -0.105577
    42  C   -0.082793
    43  H    0.101692
    44  H    0.066797
    45  H    0.052856
    46  H    0.097064
    47  H    0.037522
    48  H    0.070143
    49  H    0.132624
    50  H    0.114499
    51  H    0.123111
    52  H    0.112530
    53  H    0.102429
    54  H    0.098532
    55  H    0.071158
    56  H    0.107452
    57  H    0.096662
    58  H    0.094732
    59  H    0.095781
    60  H    0.108280
    61  H    0.094334
    62  H    0.107826
    63  H    0.097503
    64  H    0.108761
    65  H    0.103342
    66  H    0.083784
    67  H    0.114452
    68  H    0.118845
    69  H    0.113244
    70  H    0.114398
    71  H    0.117865
    72  H    0.096933
    73  H    0.308429
    74  H    0.306155
    75  H    0.095092
    76  H    0.100120
    77  H    0.111618
    78  H    0.087870
    79  H    0.100232
    80  H    0.133500
    81  H    0.129836
    82  H    0.102569
    83  H    0.077646
    84  H    0.079605
    85  H    0.078787
    86  H    0.076964
    87  H    0.070883
    88  H    0.081112
    89  H    0.131101
    90  H    0.106254
    91  H    0.105522
    92  H    0.115368
    93  H    0.081692
    94  H    0.116974
    95  H    0.043290
    96  H    0.082044
    97  H    0.083960
    98  H    0.085362
 Sum of Mulliken charges =  -0.00000

 Dipole moment (field-independent basis, Debye):
    X=              0.8332    Y=             -2.0789    Z=              1.3477  Tot=              2.6138
 Quadrupole moment (field-independent basis, Debye-Ang):
   XX=           -250.8658   YY=           -244.8872   ZZ=           -260.6337
   XY=              2.9860   XZ=            -11.2201   YZ=              0.8287

 Normal termination of Gaussian 16 at Sun Jul  7 06:34:18 2019.
