 Gaussian 16, Revision A.03,
 Gaussian 16:  ES64L-G16RevA.03 25-Dec-2016

 -------------------------------------
 # td=(NStates=1) CAM-B3LYP/6-31G(d,p)
 -------------------------------------

 --
 TD
 --
 Symbolic Z-matrix:
 Charge =  0 Multiplicity = 1

                         Standard orientation:
 ---------------------------------------------------------------------
 Center     Atomic      Atomic             Coordinates (Angstroms)
 Number     Number       Type             X           Y           Z
 ---------------------------------------------------------------------
      1          8           0       14.737516   -2.182019   -0.591246
      2          8           0      -14.839580    1.946965    0.896440
      3          6           0       11.572859   -1.009940    1.243652
      4          6           0      -12.287583   -0.887506    0.764468
      5          6           0       13.048131   -1.277962    1.012559
      6          6           0      -13.713797   -0.231841    0.729434
      7          6           0       13.358173   -1.858606   -0.348469
      8          6           0      -13.569397    1.225966    0.789728
      9          6           0       10.899241   -0.292994    0.001102
     10          6           0      -11.304852   -0.254877   -0.191086
     11          6           0       12.869276   -0.852305   -1.449562
     12          6           0      -12.922073    1.668358   -0.495982
     13          6           0       11.545858   -0.226618   -1.169744
     14          6           0      -11.647486    0.897510   -0.861135
     15          6           0       11.332027   -0.274731    2.573444
     16          6           0       10.859692   -2.357796    1.541878
     17          6           0      -11.845038   -0.979495    2.241044
     18          6           0      -12.580514   -2.311445    0.322514
     19          6           0        9.601943    0.224223    0.260361
     20          6           0      -10.096659   -1.013067   -0.399251
     21          6           0       10.967915    0.472507   -2.442472
     22          6           0      -10.696196    1.555257   -1.855550
     23          6           0        9.397474    1.595964    0.122988
     24          6           0       -8.833170   -0.448388   -0.322344
     25          6           0        8.010062    2.212950    0.198923
     26          6           0       -7.537375   -1.192001   -0.427825
     27          6           0        8.158429    3.647910    0.540183
     28          6           0       -7.666651   -2.775501   -0.587126
     29          6           0        6.930597    1.548886   -0.062052
     30          6           0       -6.343293   -0.493052   -0.503232
     31          6           0        5.537462    1.983316    0.164078
     32          6           0       -5.059778   -1.058893   -0.572163
     33          6           0        4.416218    1.250059   -0.180129
     34          6           0       -3.924165   -0.341466   -0.447277
     35          6           0        3.116911    1.538276    0.064194
     36          6           0       -2.567037   -0.818158   -0.521724
     37          6           0        2.876275    2.914206    0.618673
     38          6           0       -2.329320   -2.281084   -0.912628
     39          6           0        2.096875    0.706428   -0.162014
     40          6           0       -1.686448    0.192000   -0.335285
     41          6           0        0.702472    0.894131   -0.088951
     42          6           0       -0.310550   -0.048738   -0.252542
     43          1           0       13.593029   -0.406537    1.115376
     44          1           0       13.340606   -1.767638    1.824395
     45          1           0      -14.180672   -0.698569    1.543784
     46          1           0      -13.956620   -0.649839   -0.276821
     47          1           0       12.754623   -2.819010   -0.294100
     48          1           0      -12.891565    1.583165    1.568379
     49          1           0       13.730104   -0.024461   -1.574904
     50          1           0       12.847398   -1.472410   -2.330975
     51          1           0      -13.663803    1.506375   -1.398916
     52          1           0      -12.816198    2.823193   -0.500131
     53          1           0       11.974583   -0.869053    3.369188
     54          1           0       10.312953   -0.105967    2.680915
     55          1           0       11.768096    0.776814    2.552933
     56          1           0       10.857978   -3.097364    0.617814
     57          1           0       11.203714   -3.042020    2.312911
     58          1           0        9.713067   -2.210434    1.784253
     59          1           0      -11.895946   -0.127682    2.884751
     60          1           0      -10.811145   -1.347487    2.296762
     61          1           0      -12.283879   -1.688631    2.994813
     62          1           0      -13.523543   -2.767412    0.592192
     63          1           0      -12.028271   -3.116633    0.766535
     64          1           0      -12.637155   -2.370624   -0.658538
     65          1           0        8.792426   -0.356738    0.594397
     66          1           0      -10.299006   -2.051389   -0.506573
     67          1           0        9.980809    0.961768   -2.265448
     68          1           0       11.841507    1.171049   -2.359518
     69          1           0       11.141799    0.064725   -3.360349
     70          1           0      -11.396061    1.827682   -2.802118
     71          1           0      -10.073843    0.811127   -2.087176
     72          1           0      -10.529115    2.678448   -1.531559
     73          1           0       14.899037   -2.824920    0.133092
     74          1           0      -15.208691    1.665728    1.697833
     75          1           0       10.188558    2.204928   -0.255387
     76          1           0       -8.619489    0.591224   -0.086655
     77          1           0        8.794716    4.099957   -0.290079
     78          1           0        7.224922    4.279752    0.480131
     79          1           0        8.562102    3.927875    1.481189
     80          1           0       -7.866903   -3.194358    0.341986
     81          1           0       -8.364636   -3.096383   -1.471320
     82          1           0       -6.610775   -3.126885   -0.726000
     83          1           0        6.969956    0.564024   -0.358375
     84          1           0       -6.419538    0.662245   -0.324301
     85          1           0        5.350952    3.062552    0.699692
     86          1           0       -4.915050   -2.078141   -0.676678
     87          1           0        4.714672    0.200049   -0.577521
     88          1           0       -4.142522    0.685210   -0.231565
     89          1           0        3.757572    2.890513    1.317935
     90          1           0        1.820222    3.054777    0.954611
     91          1           0        3.425092    3.727670    0.135300
     92          1           0       -2.640101   -2.947946   -0.158336
     93          1           0       -2.833868   -2.475816   -1.729183
     94          1           0       -1.305843   -2.442519   -0.979853
     95          1           0        2.421846   -0.271771   -0.675975
     96          1           0       -2.079087    1.068552    0.012419
     97          1           0        0.326419    1.996108    0.385503
     98          1           0        0.242014   -1.005334   -0.696376
 ---------------------------------------------------------------------

 SCF Done:  E(RCAM-B3LYP) =  -1707.01683870     A.U. after   14 cycles

 Excitation energies and oscillator strengths:

 Excited State   1:      Singlet-A      2.5981 eV  477.21 nm  f=3.8118  <S**2>=0.000
     155 ->158        -0.15698
     156 ->157         0.68568
 This state for optimization and/or second-order correction.
 Total Energy, E(TD-HF/TD-DFT) =  -1706.92135959
 Copying the excited state density for this state as the 1-particle RhoCI density.

 The electronic state is 1-A.
 Alpha  occ. eigenvalues --  -19.21781 -19.20072 -10.30940 -10.29721 -10.28075
 Alpha  occ. eigenvalues --  -10.27967 -10.27922 -10.27626 -10.27535 -10.27349
 Alpha  occ. eigenvalues --  -10.27327 -10.27323 -10.27049 -10.26990 -10.26924
 Alpha  occ. eigenvalues --  -10.26789 -10.26681 -10.26451 -10.26396 -10.26380
 Alpha  occ. eigenvalues --  -10.26379 -10.26236 -10.26169 -10.26097 -10.26072
 Alpha  occ. eigenvalues --  -10.26025 -10.25804 -10.25712 -10.25578 -10.25572
 Alpha  occ. eigenvalues --  -10.25572 -10.25419 -10.25198 -10.25171 -10.25131
 Alpha  occ. eigenvalues --  -10.25085 -10.24945 -10.24324 -10.24288 -10.24216
 Alpha  occ. eigenvalues --  -10.22893 -10.22881  -1.09232  -1.08537  -0.94163
 Alpha  occ. eigenvalues --   -0.93827  -0.93054  -0.92476  -0.90867  -0.89699
 Alpha  occ. eigenvalues --   -0.87651  -0.87337  -0.86605  -0.85847  -0.85249
 Alpha  occ. eigenvalues --   -0.83447  -0.82152  -0.80472  -0.79949  -0.79754
 Alpha  occ. eigenvalues --   -0.77339  -0.76973  -0.76768  -0.76511  -0.76047
 Alpha  occ. eigenvalues --   -0.75567  -0.75241  -0.74725  -0.74463  -0.71056
 Alpha  occ. eigenvalues --   -0.69082  -0.67810  -0.65861  -0.65272  -0.64641
 Alpha  occ. eigenvalues --   -0.63736  -0.63226  -0.61802  -0.60553  -0.60065
 Alpha  occ. eigenvalues --   -0.59530  -0.58728  -0.58137  -0.57551  -0.56599
 Alpha  occ. eigenvalues --   -0.55877  -0.55663  -0.55495  -0.55124  -0.53536
 Alpha  occ. eigenvalues --   -0.53343  -0.52960  -0.52813  -0.52616  -0.51932
 Alpha  occ. eigenvalues --   -0.50970  -0.50686  -0.50232  -0.50072  -0.49564
 Alpha  occ. eigenvalues --   -0.49274  -0.48938  -0.48608  -0.48441  -0.48140
 Alpha  occ. eigenvalues --   -0.48030  -0.47614  -0.47449  -0.46644  -0.46359
 Alpha  occ. eigenvalues --   -0.46056  -0.45864  -0.45800  -0.45433  -0.45247
 Alpha  occ. eigenvalues --   -0.45055  -0.44746  -0.44431  -0.44042  -0.43208
 Alpha  occ. eigenvalues --   -0.43186  -0.42948  -0.42826  -0.42505  -0.42162
 Alpha  occ. eigenvalues --   -0.41899  -0.41593  -0.41363  -0.41143  -0.40918
 Alpha  occ. eigenvalues --   -0.40774  -0.40470  -0.40250  -0.39820  -0.39551
 Alpha  occ. eigenvalues --   -0.39118  -0.38608  -0.38367  -0.38051  -0.37987
 Alpha  occ. eigenvalues --   -0.37941  -0.37269  -0.36901  -0.36614  -0.35768
 Alpha  occ. eigenvalues --   -0.35110  -0.34758  -0.33435  -0.32382  -0.32108
 Alpha  occ. eigenvalues --   -0.31954  -0.29897  -0.28197  -0.26655  -0.24314
 Alpha  occ. eigenvalues --   -0.20498
 Alpha virt. eigenvalues --   -0.04921  -0.00375   0.02732   0.05704   0.07980
 Alpha virt. eigenvalues --    0.09194   0.10873   0.11552   0.12028   0.12496
 Alpha virt. eigenvalues --    0.13128   0.13381   0.13548   0.13828   0.13942

 Mulliken charges:
               1
     1  O   -0.554805
     2  O   -0.564342
     3  C   -0.031353
     4  C   -0.024605
     5  C   -0.176081
     6  C   -0.175810
     7  C    0.152175
     8  C    0.170701
     9  C    0.063295
    10  C    0.063717
    11  C   -0.226664
    12  C   -0.230680
    13  C    0.038006
    14  C    0.052926
    15  C   -0.281310
    16  C   -0.303089
    17  C   -0.328921
    18  C   -0.335931
    19  C   -0.132029
    20  C   -0.152774
    21  C   -0.343170
    22  C   -0.338248
    23  C   -0.115767
    24  C   -0.086824
    25  C    0.095076
    26  C    0.072284
    27  C   -0.376966
    28  C   -0.363186
    29  C   -0.108020
    30  C   -0.130584
    31  C   -0.107625
    32  C   -0.072463
    33  C   -0.122735
    34  C   -0.118480
    35  C    0.182086
    36  C    0.105002
    37  C   -0.383059
    38  C   -0.361884
    39  C   -0.150592
    40  C   -0.101753
    41  C   -0.083266
    42  C   -0.104133
    43  H    0.100451
    44  H    0.078223
    45  H    0.091975
    46  H    0.101951
    47  H    0.071293
    48  H    0.092193
    49  H    0.107815
    50  H    0.125555
    51  H    0.103818
    52  H    0.098592
    53  H    0.085949
    54  H    0.116376
    55  H    0.087546
    56  H    0.081363
    57  H    0.108122
    58  H    0.084603
    59  H    0.100818
    60  H    0.105208
    61  H    0.092265
    62  H    0.100350
    63  H    0.100988
    64  H    0.116046
    65  H    0.102408
    66  H    0.103845
    67  H    0.121530
    68  H    0.110049
    69  H    0.121680
    70  H    0.080257
    71  H    0.130287
    72  H    0.114943
    73  H    0.307798
    74  H    0.296272
    75  H    0.095752
    76  H    0.093700
    77  H    0.112754
    78  H    0.099536
    79  H    0.132722
    80  H    0.135940
    81  H    0.116528
    82  H    0.098454
    83  H    0.077634
    84  H    0.078710
    85  H    0.065392
    86  H    0.072075
    87  H    0.074629
    88  H    0.072525
    89  H    0.116512
    90  H    0.109295
    91  H    0.127065
    92  H    0.129140
    93  H    0.137923
    94  H    0.116634
    95  H    0.069268
    96  H    0.091896
    97  H    0.050690
    98  H    0.076542
 Sum of Mulliken charges =  -0.00000

 Dipole moment (field-independent basis, Debye):
    X=              0.9235    Y=             -2.2323    Z=              2.1762  Tot=              3.2514
 Quadrupole moment (field-independent basis, Debye-Ang):
   XX=           -283.4166   YY=           -245.0250   ZZ=           -260.0617
   XY=             19.5547   XZ=             -2.3746   YZ=              0.0152

 Normal termination of Gaussian 16 at Thu Jun 27 15:43:46 2019.
