 Gaussian 16, Revision A.03,
 Gaussian 16:  ES64L-G16RevA.03 25-Dec-2016

 -------------------------------------
 # td=(NStates=1) CAM-B3LYP/6-31G(d,p)
 -------------------------------------

 --
 TD
 --
 Symbolic Z-matrix:
 Charge =  0 Multiplicity = 1

                         Standard orientation:
 ---------------------------------------------------------------------
 Center     Atomic      Atomic             Coordinates (Angstroms)
 Number     Number       Type             X           Y           Z
 ---------------------------------------------------------------------
      1          8           0       14.680002   -2.362133   -0.397603
      2          8           0      -14.828774    1.741980    0.761168
      3          6           0       11.431735   -1.051248    1.264918
      4          6           0      -12.359866   -1.016859    0.691187
      5          6           0       12.935109   -1.474190    1.060540
      6          6           0      -13.664683   -0.289077    0.675998
      7          6           0       13.251262   -2.019302   -0.259240
      8          6           0      -13.463628    1.233727    0.678462
      9          6           0       10.855034   -0.342548   -0.082589
     10          6           0      -11.385655   -0.292466   -0.245027
     11          6           0       12.980154   -1.039896   -1.331247
     12          6           0      -12.856694    1.717703   -0.495591
     13          6           0       11.462453   -0.429873   -1.197284
     14          6           0      -11.633925    0.940841   -0.716375
     15          6           0       11.394252   -0.283342    2.457334
     16          6           0       10.548128   -2.340268    1.390152
     17          6           0      -11.787683   -1.101031    2.166576
     18          6           0      -12.657746   -2.427674    0.169166
     19          6           0        9.640868    0.406371    0.184102
     20          6           0      -10.035533   -1.003845   -0.416684
     21          6           0       11.049966    0.133863   -2.500037
     22          6           0      -10.759013    1.644159   -1.694326
     23          6           0        9.374569    1.666305   -0.191952
     24          6           0       -8.811933   -0.503563   -0.202838
     25          6           0        8.097531    2.266494   -0.016245
     26          6           0       -7.606308   -1.174736   -0.489026
     27          6           0        8.247469    3.795587    0.462658
     28          6           0       -7.603963   -2.589405   -0.888613
     29          6           0        6.935163    1.728854   -0.154251
     30          6           0       -6.513514   -0.623095   -0.313319
     31          6           0        5.536522    2.246288    0.067152
     32          6           0       -5.083936   -1.187355   -0.417956
     33          6           0        4.519199    1.400775   -0.139411
     34          6           0       -4.014772   -0.299699   -0.250120
     35          6           0        3.134818    1.711679    0.132287
     36          6           0       -2.562632   -0.769453   -0.343783
     37          6           0        2.908971    3.128244    0.506984
     38          6           0       -2.253594   -2.183156   -0.808778
     39          6           0        2.201162    0.752231   -0.004883
     40          6           0       -1.634435    0.143956    0.056916
     41          6           0        0.765870    1.056330    0.111540
     42          6           0       -0.126335    0.124378   -0.075937
     43          1           0       13.709889   -0.692822    1.056541
     44          1           0       13.150329   -2.404823    1.787638
     45          1           0      -14.361806   -0.674183    1.656910
     46          1           0      -14.301675   -0.560603   -0.041581
     47          1           0       12.821994   -2.886705   -0.435808
     48          1           0      -12.937381    1.432163    1.638482
     49          1           0       13.885590   -0.313831   -1.087022
     50          1           0       13.317824   -1.461359   -2.169016
     51          1           0      -13.385945    1.494916   -1.226665
     52          1           0      -12.623948    2.843997   -0.645309
     53          1           0       11.663727   -0.762630    3.329030
     54          1           0       10.522848    0.124681    2.678701
     55          1           0       11.836526    0.774673    2.508143
     56          1           0       10.728757   -2.978334    0.595291
     57          1           0       10.764615   -2.668584    2.464684
     58          1           0        9.357368   -1.946897    1.547005
     59          1           0      -11.545600   -0.112466    2.560058
     60          1           0      -10.963326   -1.848928    2.168529
     61          1           0      -12.370356   -1.794176    2.723350
     62          1           0      -13.342434   -2.803999    0.723129
     63          1           0      -11.847001   -3.217904    0.105816
     64          1           0      -13.138552   -2.104953   -0.783580
     65          1           0        8.780183   -0.058183    0.722423
     66          1           0      -10.127460   -1.998147   -0.932510
     67          1           0        9.961783    0.601875   -2.546005
     68          1           0       11.736242    0.943549   -2.911123
     69          1           0       10.859857   -0.832417   -3.246168
     70          1           0      -11.285754    1.988285   -2.370293
     71          1           0      -10.012527    0.904797   -2.069340
     72          1           0      -10.125036    2.584053   -1.454967
     73          1           0       14.894910   -2.934758    0.375113
     74          1           0      -15.206709    1.699131    1.680321
     75          1           0       10.223726    2.428250   -0.450961
     76          1           0       -8.769307    0.585204    0.126695
     77          1           0        9.058395    4.201671   -0.258485
     78          1           0        7.189732    4.385947    0.045509
     79          1           0        8.324940    3.940053    1.578833
     80          1           0       -8.340136   -3.111836   -0.283559
     81          1           0       -8.134940   -2.728241   -1.895714
     82          1           0       -6.782671   -3.263146   -1.152723
     83          1           0        7.194304    0.797572   -0.662888
     84          1           0       -6.438838    0.559566   -0.388784
     85          1           0        5.306997    3.209718    0.495640
     86          1           0       -5.014587   -2.107878   -0.634660
     87          1           0        4.764225    0.304157   -0.314655
     88          1           0       -4.140128    0.706362    0.079288
     89          1           0        3.408032    3.253949    1.504753
     90          1           0        1.926582    3.626125    0.522755
     91          1           0        3.439809    3.647618   -0.293051
     92          1           0       -2.076247   -3.238789   -0.093940
     93          1           0       -2.895623   -2.500711   -1.588079
     94          1           0       -1.369925   -2.250673   -1.124672
     95          1           0        2.363472   -0.291342   -0.027376
     96          1           0       -1.929361    1.314717    0.389141
     97          1           0        0.511738    2.272256    0.132602
     98          1           0        0.226744   -1.048981   -0.058715
 ---------------------------------------------------------------------

 SCF Done:  E(RCAM-B3LYP) =  -1706.81282874     A.U. after   13 cycles

 Excitation energies and oscillator strengths:

 Excited State   1:      Singlet-A      3.3297 eV  372.36 nm  f=3.3875  <S**2>=0.000
     155 ->158         0.19755
     156 ->157         0.66499
 This state for optimization and/or second-order correction.
 Total Energy, E(TD-HF/TD-DFT) =  -1706.69046396
 Copying the excited state density for this state as the 1-particle RhoCI density.

 The electronic state is 1-A.
 Alpha  occ. eigenvalues --  -19.20439 -19.19878 -10.29934 -10.28745 -10.28387
 Alpha  occ. eigenvalues --  -10.27907 -10.27850 -10.27716 -10.27696 -10.27517
 Alpha  occ. eigenvalues --  -10.27244 -10.27181 -10.27069 -10.26951 -10.26866
 Alpha  occ. eigenvalues --  -10.26707 -10.26609 -10.26533 -10.26482 -10.26342
 Alpha  occ. eigenvalues --  -10.26150 -10.26148 -10.26080 -10.25973 -10.25950
 Alpha  occ. eigenvalues --  -10.25889 -10.25870 -10.25865 -10.25843 -10.25711
 Alpha  occ. eigenvalues --  -10.25599 -10.25436 -10.25395 -10.25382 -10.25138
 Alpha  occ. eigenvalues --  -10.24871 -10.24594 -10.24146 -10.23576 -10.23426
 Alpha  occ. eigenvalues --  -10.23268 -10.22668  -1.07487  -1.07034  -0.94593
 Alpha  occ. eigenvalues --   -0.93956  -0.92799  -0.92661  -0.91037  -0.89887
 Alpha  occ. eigenvalues --   -0.88601  -0.87717  -0.87119  -0.85724  -0.85279
 Alpha  occ. eigenvalues --   -0.83254  -0.82419  -0.80529  -0.80051  -0.78543
 Alpha  occ. eigenvalues --   -0.77625  -0.77179  -0.76841  -0.76509  -0.76259
 Alpha  occ. eigenvalues --   -0.75691  -0.75499  -0.74924  -0.74748  -0.70340
 Alpha  occ. eigenvalues --   -0.68491  -0.67539  -0.66344  -0.65792  -0.64863
 Alpha  occ. eigenvalues --   -0.63393  -0.63053  -0.61826  -0.59999  -0.59913
 Alpha  occ. eigenvalues --   -0.59389  -0.59051  -0.58796  -0.57425  -0.56225
 Alpha  occ. eigenvalues --   -0.55612  -0.55026  -0.54656  -0.54299  -0.53694
 Alpha  occ. eigenvalues --   -0.53296  -0.52687  -0.52373  -0.52044  -0.51530
 Alpha  occ. eigenvalues --   -0.50974  -0.50939  -0.50534  -0.50390  -0.50083
 Alpha  occ. eigenvalues --   -0.49505  -0.49269  -0.48800  -0.48430  -0.48372
 Alpha  occ. eigenvalues --   -0.48096  -0.47894  -0.47617  -0.47174  -0.46087
 Alpha  occ. eigenvalues --   -0.45695  -0.45523  -0.45323  -0.44985  -0.44807
 Alpha  occ. eigenvalues --   -0.44504  -0.44201  -0.43812  -0.43736  -0.43488
 Alpha  occ. eigenvalues --   -0.42811  -0.42408  -0.42124  -0.41965  -0.41832
 Alpha  occ. eigenvalues --   -0.41453  -0.41094  -0.40645  -0.40509  -0.40327
 Alpha  occ. eigenvalues --   -0.39812  -0.39730  -0.39579  -0.39467  -0.39059
 Alpha  occ. eigenvalues --   -0.39017  -0.38262  -0.38060  -0.37890  -0.37547
 Alpha  occ. eigenvalues --   -0.36984  -0.36728  -0.36475  -0.36363  -0.36074
 Alpha  occ. eigenvalues --   -0.35471  -0.34640  -0.33132  -0.32403  -0.31756
 Alpha  occ. eigenvalues --   -0.31003  -0.30318  -0.28793  -0.27518  -0.25173
 Alpha  occ. eigenvalues --   -0.22686
 Alpha virt. eigenvalues --   -0.03137   0.00159   0.03005   0.05623   0.08261
 Alpha virt. eigenvalues --    0.09656   0.10664   0.11189   0.11391   0.11591
 Alpha virt. eigenvalues --    0.12052   0.13041   0.13234   0.13314   0.13659

 Mulliken charges:
               1
     1  O   -0.585083
     2  O   -0.589453
     3  C   -0.001564
     4  C   -0.021952
     5  C   -0.168454
     6  C   -0.169603
     7  C    0.147368
     8  C    0.144117
     9  C    0.076154
    10  C    0.038440
    11  C   -0.203169
    12  C   -0.163993
    13  C    0.045256
    14  C    0.035930
    15  C   -0.305872
    16  C   -0.287375
    17  C   -0.298576
    18  C   -0.301342
    19  C   -0.139401
    20  C   -0.155546
    21  C   -0.355997
    22  C   -0.358081
    23  C   -0.092926
    24  C   -0.085913
    25  C    0.068867
    26  C    0.213015
    27  C   -0.350205
    28  C   -0.403198
    29  C   -0.115122
    30  C   -0.190615
    31  C   -0.103939
    32  C   -0.048467
    33  C   -0.090991
    34  C   -0.108012
    35  C    0.112070
    36  C    0.102282
    37  C   -0.384697
    38  C   -0.347508
    39  C   -0.126092
    40  C   -0.139796
    41  C   -0.061071
    42  C   -0.098266
    43  H    0.108662
    44  H    0.051828
    45  H    0.043926
    46  H    0.109128
    47  H    0.086075
    48  H    0.081428
    49  H    0.098343
    50  H    0.116631
    51  H    0.134131
    52  H    0.105577
    53  H    0.109019
    54  H    0.107532
    55  H    0.092001
    56  H    0.121388
    57  H    0.095828
    58  H    0.077751
    59  H    0.107064
    60  H    0.097870
    61  H    0.100097
    62  H    0.110466
    63  H    0.091352
    64  H    0.097272
    65  H    0.097044
    66  H    0.087988
    67  H    0.101862
    68  H    0.120218
    69  H    0.086539
    70  H    0.116829
    71  H    0.111173
    72  H    0.092609
    73  H    0.298735
    74  H    0.303625
    75  H    0.087476
    76  H    0.092368
    77  H    0.107015
    78  H    0.067720
    79  H    0.127026
    80  H    0.117211
    81  H    0.106422
    82  H    0.122625
    83  H    0.076993
    84  H    0.062249
    85  H    0.102119
    86  H    0.065413
    87  H    0.088098
    88  H    0.092985
    89  H    0.129642
    90  H    0.110885
    91  H    0.128876
    92  H    0.078171
    93  H    0.122887
    94  H    0.129644
    95  H    0.087786
    96  H    0.066319
    97  H    0.074429
    98  H    0.064431
 Sum of Mulliken charges =  -0.00000

 Dipole moment (field-independent basis, Debye):
    X=             -0.4980    Y=             -0.8456    Z=              1.7669  Tot=              2.0211
 Quadrupole moment (field-independent basis, Debye-Ang):
   XX=           -300.8585   YY=           -243.3115   ZZ=           -258.3326
   XY=              8.8238   XZ=              9.2654   YZ=              1.6203

 Normal termination of Gaussian 16 at Sun Jun 30 21:08:59 2019.
