 Gaussian 16, Revision A.03,
 Gaussian 16:  ES64L-G16RevA.03 25-Dec-2016

 -------------------------------------
 # td=(NStates=1) CAM-B3LYP/6-31G(d,p)
 -------------------------------------

 --
 TD
 --
 Symbolic Z-matrix:
 Charge =  0 Multiplicity = 1

                         Standard orientation:
 ---------------------------------------------------------------------
 Center     Atomic      Atomic             Coordinates (Angstroms)
 Number     Number       Type             X           Y           Z
 ---------------------------------------------------------------------
      1          8           0       14.615442   -2.390803   -0.420476
      2          8           0      -14.812210    2.016294    0.762151
      3          6           0       11.459438   -1.022497    1.214828
      4          6           0      -12.292591   -0.946391    0.845763
      5          6           0       12.919379   -1.505733    1.035897
      6          6           0      -13.669670   -0.231964    0.745472
      7          6           0       13.265635   -2.030261   -0.345903
      8          6           0      -13.484579    1.405194    0.695941
      9          6           0       10.983969   -0.322005    0.068751
     10          6           0      -11.317044   -0.269849   -0.182996
     11          6           0       13.007964   -0.965041   -1.290144
     12          6           0      -12.729479    1.816989   -0.620406
     13          6           0       11.660841   -0.298570   -1.107835
     14          6           0      -11.535515    0.862822   -0.927809
     15          6           0       11.362799   -0.080026    2.411399
     16          6           0       10.628233   -2.245141    1.400652
     17          6           0      -11.702797   -0.795859    2.255118
     18          6           0      -12.551212   -2.390000    0.426070
     19          6           0        9.672646    0.408351    0.279397
     20          6           0      -10.071181   -1.070297   -0.441388
     21          6           0       11.259465    0.453126   -2.315643
     22          6           0      -10.544398    1.573163   -1.824261
     23          6           0        9.256390    1.617448   -0.222304
     24          6           0       -8.789606   -0.589397   -0.285349
     25          6           0        8.023254    2.287611    0.075437
     26          6           0       -7.637260   -1.385106   -0.515671
     27          6           0        8.107770    3.877281    0.262333
     28          6           0       -7.701690   -2.801329   -1.014936
     29          6           0        6.796287    1.575400   -0.082438
     30          6           0       -6.387923   -0.754975   -0.301719
     31          6           0        5.512388    2.117315    0.110150
     32          6           0       -5.083650   -1.300580   -0.477353
     33          6           0        4.355380    1.287348   -0.093841
     34          6           0       -3.911399   -0.619768   -0.237498
     35          6           0        2.935535    1.732197    0.111081
     36          6           0       -2.542704   -1.003749   -0.397126
     37          6           0        2.767166    3.171631    0.574386
     38          6           0       -2.322561   -2.339702   -0.752433
     39          6           0        2.089966    0.728748   -0.076771
     40          6           0       -1.554500    0.037006   -0.123741
     41          6           0        0.678868    0.946033    0.075387
     42          6           0       -0.259161   -0.068189   -0.122738
     43          1           0       13.600850   -0.708142    1.203000
     44          1           0       13.112659   -2.314093    1.960806
     45          1           0      -14.290605   -0.369913    1.550812
     46          1           0      -14.191521   -0.377575   -0.063392
     47          1           0       12.462994   -2.886098   -0.718964
     48          1           0      -12.924685    1.713053    1.535374
     49          1           0       13.740282   -0.390757   -1.509791
     50          1           0       12.988272   -1.237440   -2.429403
     51          1           0      -13.384736    1.984589   -1.598467
     52          1           0      -12.335226    2.854251   -0.379179
     53          1           0       11.745921   -0.499541    3.315446
     54          1           0       10.372551    0.297370    2.709004
     55          1           0       11.825381    0.859019    2.249691
     56          1           0       10.738870   -2.809192    0.525647
     57          1           0       11.099412   -2.759915    2.247277
     58          1           0        9.467011   -2.147645    1.861461
     59          1           0      -11.632676    0.144521    2.461926
     60          1           0      -10.724713   -1.307460    2.403078
     61          1           0      -12.532397   -1.332914    2.824751
     62          1           0      -13.528091   -2.528203    1.155574
     63          1           0      -11.903473   -3.082742    0.722599
     64          1           0      -12.661159   -2.402102   -0.672782
     65          1           0        8.866516   -0.222767    0.835016
     66          1           0      -10.359723   -2.005431   -0.736269
     67          1           0       10.106470    0.470621   -2.236899
     68          1           0       11.549460    1.616941   -2.237386
     69          1           0       11.825398   -0.008828   -3.323439
     70          1           0      -11.019029    1.877589   -2.821301
     71          1           0       -9.759392    0.925558   -2.342456
     72          1           0      -10.060748    2.516558   -1.363930
     73          1           0       14.833961   -2.855937    0.491300
     74          1           0      -15.352597    1.628821    1.590831
     75          1           0       10.075298    2.082017   -0.870036
     76          1           0       -8.566519    0.572197   -0.061319
     77          1           0        8.597079    4.363392   -0.403279
     78          1           0        7.225557    4.444703    0.322656
     79          1           0        8.324756    4.099785    1.218360
     80          1           0       -8.588194   -3.360460   -0.522985
     81          1           0       -8.218243   -2.736208   -1.925813
     82          1           0       -6.834573   -3.139129   -1.010405
     83          1           0        6.882773    0.631164   -0.177992
     84          1           0       -6.499654    0.301116   -0.005285
     85          1           0        5.590623    3.253629    0.181973
     86          1           0       -5.137035   -2.479113   -0.612113
     87          1           0        4.627589    0.278178   -0.299447
     88          1           0       -4.034854    0.470739   -0.035763
     89          1           0        3.261032    3.415322    1.432785
     90          1           0        1.535083    3.471039    0.546646
     91          1           0        3.221237    3.894918   -0.150833
     92          1           0       -2.702408   -3.060264   -0.100799
     93          1           0       -2.741873   -2.522935   -1.706043
     94          1           0       -1.200214   -2.399687   -0.836352
     95          1           0        2.461388   -0.273475   -0.330707
     96          1           0       -1.994278    1.075201    0.140578
     97          1           0        0.293480    1.963532    0.229684
     98          1           0        0.394153   -1.159199    0.066602
 ---------------------------------------------------------------------

 SCF Done:  E(RCAM-B3LYP) =  -1706.87649564     A.U. after   15 cycles

 Excitation energies and oscillator strengths:

 Excited State   1:      Singlet-A      2.2150 eV  559.75 nm  f=3.7364  <S**2>=0.000
     155 ->158        -0.14494
     156 ->157         0.69322
 This state for optimization and/or second-order correction.
 Total Energy, E(TD-HF/TD-DFT) =  -1706.79509680
 Copying the excited state density for this state as the 1-particle RhoCI density.

 The electronic state is 1-A.
 Alpha  occ. eigenvalues --  -19.22450 -19.21235 -10.31243 -10.30533 -10.28348
 Alpha  occ. eigenvalues --  -10.27876 -10.27716 -10.27546 -10.27501 -10.27362
 Alpha  occ. eigenvalues --  -10.27281 -10.27220 -10.27173 -10.27136 -10.27098
 Alpha  occ. eigenvalues --  -10.26937 -10.26850 -10.26849 -10.26781 -10.26711
 Alpha  occ. eigenvalues --  -10.26708 -10.26643 -10.26577 -10.26508 -10.26354
 Alpha  occ. eigenvalues --  -10.26214 -10.26162 -10.26156 -10.26119 -10.26076
 Alpha  occ. eigenvalues --  -10.25688 -10.25423 -10.25300 -10.25108 -10.24906
 Alpha  occ. eigenvalues --  -10.24343 -10.24218 -10.24166 -10.23759 -10.23628
 Alpha  occ. eigenvalues --  -10.23541 -10.23450  -1.09639  -1.05817  -0.95117
 Alpha  occ. eigenvalues --   -0.92810  -0.92474  -0.91484  -0.90625  -0.89886
 Alpha  occ. eigenvalues --   -0.87915  -0.87241  -0.86507  -0.85346  -0.84297
 Alpha  occ. eigenvalues --   -0.83113  -0.82243  -0.80529  -0.79609  -0.79504
 Alpha  occ. eigenvalues --   -0.77695  -0.77267  -0.77201  -0.76984  -0.76046
 Alpha  occ. eigenvalues --   -0.75632  -0.75178  -0.75116  -0.73396  -0.70807
 Alpha  occ. eigenvalues --   -0.68711  -0.66831  -0.66120  -0.64835  -0.64324
 Alpha  occ. eigenvalues --   -0.63672  -0.63077  -0.61215  -0.60870  -0.59868
 Alpha  occ. eigenvalues --   -0.59072  -0.58260  -0.58111  -0.57269  -0.56605
 Alpha  occ. eigenvalues --   -0.55955  -0.55208  -0.54546  -0.54430  -0.53762
 Alpha  occ. eigenvalues --   -0.53088  -0.52417  -0.51868  -0.51603  -0.51580
 Alpha  occ. eigenvalues --   -0.51405  -0.51232  -0.50640  -0.50330  -0.50167
 Alpha  occ. eigenvalues --   -0.49878  -0.49820  -0.49102  -0.48838  -0.48204
 Alpha  occ. eigenvalues --   -0.47873  -0.47843  -0.47048  -0.46365  -0.46291
 Alpha  occ. eigenvalues --   -0.46025  -0.45572  -0.45229  -0.45096  -0.45019
 Alpha  occ. eigenvalues --   -0.44829  -0.44654  -0.44333  -0.44068  -0.43459
 Alpha  occ. eigenvalues --   -0.43348  -0.42986  -0.42697  -0.42168  -0.41953
 Alpha  occ. eigenvalues --   -0.41759  -0.41489  -0.41394  -0.41069  -0.40490
 Alpha  occ. eigenvalues --   -0.40365  -0.40096  -0.39936  -0.39375  -0.39304
 Alpha  occ. eigenvalues --   -0.39073  -0.38907  -0.38607  -0.38341  -0.38056
 Alpha  occ. eigenvalues --   -0.37957  -0.37035  -0.36741  -0.36275  -0.35809
 Alpha  occ. eigenvalues --   -0.35391  -0.34823  -0.33553  -0.32106  -0.31922
 Alpha  occ. eigenvalues --   -0.30959  -0.29114  -0.27858  -0.26250  -0.23416
 Alpha  occ. eigenvalues --   -0.19236
 Alpha virt. eigenvalues --   -0.05835  -0.00718   0.02677   0.05600   0.07552
 Alpha virt. eigenvalues --    0.09488   0.10038   0.10604   0.10670   0.10870
 Alpha virt. eigenvalues --    0.11728   0.11872   0.12257   0.12802   0.13123

 Mulliken charges:
               1
     1  O   -0.566015
     2  O   -0.582138
     3  C   -0.031708
     4  C   -0.029863
     5  C   -0.208315
     6  C   -0.185653
     7  C    0.204857
     8  C    0.156542
     9  C    0.097986
    10  C    0.012186
    11  C   -0.200255
    12  C   -0.219210
    13  C    0.054687
    14  C    0.061558
    15  C   -0.318332
    16  C   -0.273590
    17  C   -0.275712
    18  C   -0.289681
    19  C   -0.120553
    20  C   -0.150700
    21  C   -0.371889
    22  C   -0.361704
    23  C   -0.117731
    24  C   -0.087644
    25  C    0.022016
    26  C    0.106000
    27  C   -0.367813
    28  C   -0.328180
    29  C   -0.063562
    30  C   -0.126602
    31  C   -0.084848
    32  C   -0.106204
    33  C   -0.143367
    34  C   -0.114894
    35  C    0.129190
    36  C    0.117282
    37  C   -0.359099
    38  C   -0.382294
    39  C   -0.110989
    40  C   -0.131188
    41  C   -0.101444
    42  C   -0.067400
    43  H    0.115445
    44  H    0.053729
    45  H    0.072632
    46  H    0.119006
    47  H    0.052440
    48  H    0.090227
    49  H    0.126492
    50  H    0.077667
    51  H    0.103675
    52  H    0.105490
    53  H    0.093785
    54  H    0.111121
    55  H    0.110579
    56  H    0.113722
    57  H    0.093463
    58  H    0.077869
    59  H    0.115540
    60  H    0.111273
    61  H    0.082696
    62  H    0.075573
    63  H    0.113329
    64  H    0.111719
    65  H    0.081794
    66  H    0.087057
    67  H    0.126274
    68  H    0.102704
    69  H    0.082800
    70  H    0.097215
    71  H    0.110523
    72  H    0.111387
    73  H    0.312363
    74  H    0.305050
    75  H    0.088731
    76  H    0.090844
    77  H    0.128575
    78  H    0.101591
    79  H    0.132023
    80  H    0.103922
    81  H    0.135335
    82  H    0.096138
    83  H    0.062089
    84  H    0.073531
    85  H    0.077567
    86  H    0.073230
    87  H    0.089425
    88  H    0.072977
    89  H    0.144903
    90  H    0.081134
    91  H    0.124698
    92  H    0.133632
    93  H    0.133595
    94  H    0.100835
    95  H    0.095127
    96  H    0.086338
    97  H    0.080831
    98  H    0.064562
 Sum of Mulliken charges =  -0.00000

 Dipole moment (field-independent basis, Debye):
    X=              0.3165    Y=             -0.5230    Z=              2.2833  Tot=              2.3637
 Quadrupole moment (field-independent basis, Debye-Ang):
   XX=           -280.9639   YY=           -247.1311   ZZ=           -260.0659
   XY=             27.0559   XZ=              5.5857   YZ=              0.0746

 Normal termination of Gaussian 16 at Mon Jul  8 11:39:40 2019.
