 Gaussian 16, Revision A.03,
 Gaussian 16:  ES64L-G16RevA.03 25-Dec-2016

 -------------------------------------
 # td=(NStates=1) CAM-B3LYP/6-31G(d,p)
 -------------------------------------

 --
 TD
 --
 Symbolic Z-matrix:
 Charge =  0 Multiplicity = 1

                         Standard orientation:
 ---------------------------------------------------------------------
 Center     Atomic      Atomic             Coordinates (Angstroms)
 Number     Number       Type             X           Y           Z
 ---------------------------------------------------------------------
      1          8           0       14.771250   -2.152205   -0.236512
      2          8           0      -14.888380    1.941740    0.701729
      3          6           0       11.493418   -1.058325    1.271008
      4          6           0      -12.205068   -0.809825    1.036918
      5          6           0       13.017215   -1.274473    1.226830
      6          6           0      -13.563950   -0.186547    0.886605
      7          6           0       13.306054   -1.891724   -0.196920
      8          6           0      -13.551727    1.277152    0.707603
      9          6           0       10.976992   -0.286092    0.003842
     10          6           0      -11.317396   -0.219283   -0.147308
     11          6           0       13.025892   -0.885399   -1.362233
     12          6           0      -12.839359    1.594193   -0.618586
     13          6           0       11.676700   -0.290887   -1.184671
     14          6           0      -11.664188    0.828882   -0.896539
     15          6           0       11.288416   -0.038314    2.425178
     16          6           0       10.616787   -2.341650    1.369748
     17          6           0      -11.433951   -0.516693    2.369378
     18          6           0      -12.327381   -2.427011    0.865739
     19          6           0        9.703721    0.361085    0.177630
     20          6           0      -10.044526   -0.992162   -0.340612
     21          6           0       11.156184    0.391139   -2.428082
     22          6           0      -10.829786    1.409913   -1.974612
     23          6           0        9.411562    1.648821    0.019302
     24          6           0       -8.776406   -0.530092   -0.249510
     25          6           0        8.018155    2.265233    0.110291
     26          6           0       -7.646022   -1.309679   -0.450962
     27          6           0        8.062587    3.712744    0.531179
     28          6           0       -7.809147   -2.704245   -0.891612
     29          6           0        6.947400    1.572864    0.029864
     30          6           0       -6.481253   -0.614733   -0.386407
     31          6           0        5.494850    2.056463    0.071172
     32          6           0       -5.127126   -1.195117   -0.537372
     33          6           0        4.391583    1.206509   -0.149010
     34          6           0       -4.020099   -0.427265   -0.362776
     35          6           0        3.006416    1.594297   -0.033365
     36          6           0       -2.669343   -0.825809   -0.575908
     37          6           0        2.694378    2.970159    0.443016
     38          6           0       -2.411281   -2.286321   -0.867207
     39          6           0        2.115216    0.595810   -0.250126
     40          6           0       -1.647000   -0.017888   -0.286189
     41          6           0        0.661772    0.820681   -0.185416
     42          6           0       -0.255903   -0.193007   -0.486362
     43          1           0       13.737256   -0.360372    1.205342
     44          1           0       13.182358   -1.980572    2.255657
     45          1           0      -14.268259   -0.453972    1.683623
     46          1           0      -14.102678   -0.810809    0.057455
     47          1           0       12.777995   -2.721924   -0.519178
     48          1           0      -12.875248    1.867408    1.353002
     49          1           0       13.725929   -0.076055   -1.359772
     50          1           0       13.021245   -1.572354   -2.319461
     51          1           0      -13.787707    1.345171   -1.321370
     52          1           0      -12.785660    2.703573   -0.897727
     53          1           0       11.610109   -0.551126    3.284883
     54          1           0       10.322405    0.391423    2.486576
     55          1           0       11.876157    0.863996    2.376896
     56          1           0       10.745377   -3.054229    0.530000
     57          1           0       10.926791   -2.884995    2.329923
     58          1           0        9.525090   -2.222232    1.457452
     59          1           0      -11.256515    0.585677    2.397300
     60          1           0      -10.303400   -0.867069    2.332856
     61          1           0      -12.067297   -0.753729    3.250344
     62          1           0      -13.040366   -2.670644    1.678543
     63          1           0      -11.383132   -2.847111    0.810744
     64          1           0      -12.868954   -2.645876   -0.191920
     65          1           0        8.898878   -0.407285    0.354654
     66          1           0      -10.200049   -1.919397   -0.793340
     67          1           0       10.162125    0.586649   -2.263563
     68          1           0       11.712929    1.283909   -2.686416
     69          1           0       11.357644   -0.313701   -3.409426
     70          1           0      -11.263642    1.260899   -3.042120
     71          1           0       -9.949527    0.723498   -2.019352
     72          1           0      -10.441295    2.630979   -1.677106
     73          1           0       14.896439   -2.562898    0.582876
     74          1           0      -15.007720    1.890203    1.763461
     75          1           0       10.347734    2.213884   -0.395506
     76          1           0       -8.782650    0.552970    0.082136
     77          1           0        8.716162    4.380622   -0.124262
     78          1           0        6.980734    4.222266    0.407265
     79          1           0        8.255937    3.715976    1.715543
     80          1           0       -8.658320   -3.581080   -0.546998
     81          1           0       -8.026580   -2.737122   -1.883248
     82          1           0       -6.816242   -3.198191   -0.798326
     83          1           0        7.122765    0.463912   -0.100303
     84          1           0       -6.583374    0.368309   -0.203408
     85          1           0        5.344287    3.091284    0.367595
     86          1           0       -4.920869   -2.245168   -0.955676
     87          1           0        4.759639    0.155357   -0.296850
     88          1           0       -4.380361    0.652221    0.097742
     89          1           0        3.138443    3.210747    1.494617
     90          1           0        1.639415    3.308139    0.323978
     91          1           0        3.114830    3.578636   -0.318877
     92          1           0       -2.748300   -3.007741   -0.203339
     93          1           0       -2.740992   -2.537826   -1.970057
     94          1           0       -1.412060   -2.610436   -0.927915
     95          1           0        2.497375   -0.380138   -0.465944
     96          1           0       -1.822939    0.962138   -0.107859
     97          1           0        0.322870    1.854150    0.240771
     98          1           0        0.045942   -1.106672   -0.944755
 ---------------------------------------------------------------------

 SCF Done:  E(RCAM-B3LYP) =  -1707.01287071     A.U. after   14 cycles

 Excitation energies and oscillator strengths:

 Excited State   1:      Singlet-A      2.8456 eV  435.70 nm  f=3.6625  <S**2>=0.000
     155 ->158        -0.15916
     156 ->157         0.68457
 This state for optimization and/or second-order correction.
 Total Energy, E(TD-HF/TD-DFT) =  -1706.90829572
 Copying the excited state density for this state as the 1-particle RhoCI density.

 The electronic state is 1-A.
 Alpha  occ. eigenvalues --  -19.22185 -19.19765 -10.30293 -10.30287 -10.28377
 Alpha  occ. eigenvalues --  -10.28197 -10.28197 -10.28094 -10.27860 -10.27647
 Alpha  occ. eigenvalues --  -10.27405 -10.27290 -10.27241 -10.27226 -10.26997
 Alpha  occ. eigenvalues --  -10.26973 -10.26919 -10.26882 -10.26703 -10.26660
 Alpha  occ. eigenvalues --  -10.26528 -10.26502 -10.26455 -10.26388 -10.26309
 Alpha  occ. eigenvalues --  -10.26061 -10.25999 -10.25847 -10.25837 -10.25827
 Alpha  occ. eigenvalues --  -10.25793 -10.25773 -10.25754 -10.25684 -10.25574
 Alpha  occ. eigenvalues --  -10.25494 -10.25490 -10.25167 -10.24999 -10.24838
 Alpha  occ. eigenvalues --  -10.24815 -10.23168  -1.07925  -1.06286  -0.93712
 Alpha  occ. eigenvalues --   -0.93467  -0.92573  -0.92007  -0.91360  -0.90414
 Alpha  occ. eigenvalues --   -0.87013  -0.86915  -0.86651  -0.85462  -0.84742
 Alpha  occ. eigenvalues --   -0.82887  -0.81427  -0.79825  -0.79631  -0.78892
 Alpha  occ. eigenvalues --   -0.77525  -0.77091  -0.76291  -0.75442  -0.75296
 Alpha  occ. eigenvalues --   -0.75102  -0.74908  -0.74714  -0.74006  -0.70653
 Alpha  occ. eigenvalues --   -0.68467  -0.67512  -0.65430  -0.64371  -0.63464
 Alpha  occ. eigenvalues --   -0.62908  -0.62397  -0.62201  -0.60806  -0.60296
 Alpha  occ. eigenvalues --   -0.59500  -0.58306  -0.57787  -0.57418  -0.56458
 Alpha  occ. eigenvalues --   -0.55453  -0.54938  -0.54498  -0.54298  -0.53934
 Alpha  occ. eigenvalues --   -0.52796  -0.52355  -0.51374  -0.51320  -0.51058
 Alpha  occ. eigenvalues --   -0.50330  -0.49905  -0.49540  -0.49305  -0.49012
 Alpha  occ. eigenvalues --   -0.48942  -0.48743  -0.48408  -0.48325  -0.48015
 Alpha  occ. eigenvalues --   -0.47606  -0.47573  -0.46832  -0.46673  -0.46282
 Alpha  occ. eigenvalues --   -0.46030  -0.45635  -0.45369  -0.45223  -0.45085
 Alpha  occ. eigenvalues --   -0.44528  -0.44103  -0.44055  -0.43697  -0.43119
 Alpha  occ. eigenvalues --   -0.42969  -0.42718  -0.42560  -0.42178  -0.42122
 Alpha  occ. eigenvalues --   -0.41885  -0.41509  -0.41226  -0.41126  -0.40935
 Alpha  occ. eigenvalues --   -0.40695  -0.40552  -0.40158  -0.39799  -0.39338
 Alpha  occ. eigenvalues --   -0.39157  -0.38960  -0.38860  -0.38528  -0.38216
 Alpha  occ. eigenvalues --   -0.37520  -0.37297  -0.36545  -0.36307  -0.35840
 Alpha  occ. eigenvalues --   -0.35196  -0.34357  -0.33471  -0.32906  -0.31795
 Alpha  occ. eigenvalues --   -0.31637  -0.29222  -0.27956  -0.26994  -0.24796
 Alpha  occ. eigenvalues --   -0.21251
 Alpha virt. eigenvalues --   -0.04333   0.00124   0.03264   0.06024   0.07223
 Alpha virt. eigenvalues --    0.08554   0.10613   0.10958   0.11065   0.11614
 Alpha virt. eigenvalues --    0.12326   0.12680   0.12942   0.13383   0.13496

 Mulliken charges:
               1
     1  O   -0.567063
     2  O   -0.558884
     3  C   -0.005273
     4  C   -0.000213
     5  C   -0.194408
     6  C   -0.176436
     7  C    0.141535
     8  C    0.128910
     9  C    0.031056
    10  C   -0.001220
    11  C   -0.212722
    12  C   -0.248059
    13  C    0.040957
    14  C    0.140813
    15  C   -0.307531
    16  C   -0.312213
    17  C   -0.305912
    18  C   -0.300946
    19  C   -0.119054
    20  C   -0.172474
    21  C   -0.346097
    22  C   -0.351833
    23  C   -0.107116
    24  C   -0.095054
    25  C    0.097007
    26  C    0.145457
    27  C   -0.354239
    28  C   -0.385099
    29  C   -0.111842
    30  C   -0.122628
    31  C   -0.109213
    32  C   -0.095264
    33  C   -0.117575
    34  C   -0.106076
    35  C    0.117331
    36  C    0.107091
    37  C   -0.374885
    38  C   -0.386056
    39  C   -0.111719
    40  C   -0.102272
    41  C   -0.110559
    42  C   -0.081451
    43  H    0.118942
    44  H    0.064418
    45  H    0.075628
    46  H    0.101491
    47  H    0.099162
    48  H    0.095491
    49  H    0.128192
    50  H    0.101771
    51  H    0.094577
    52  H    0.102084
    53  H    0.091399
    54  H    0.112269
    55  H    0.106873
    56  H    0.112605
    57  H    0.089100
    58  H    0.116351
    59  H    0.098253
    60  H    0.109944
    61  H    0.099784
    62  H    0.106421
    63  H    0.119511
    64  H    0.079539
    65  H    0.088178
    66  H    0.093325
    67  H    0.125125
    68  H    0.115429
    69  H    0.075170
    70  H    0.108681
    71  H    0.111929
    72  H    0.074284
    73  H    0.297080
    74  H    0.306975
    75  H    0.089953
    76  H    0.087921
    77  H    0.114586
    78  H    0.086888
    79  H    0.117968
    80  H    0.091873
    81  H    0.149205
    82  H    0.109487
    83  H    0.070928
    84  H    0.082231
    85  H    0.082710
    86  H    0.088643
    87  H    0.087007
    88  H    0.072021
    89  H    0.125375
    90  H    0.107863
    91  H    0.134655
    92  H    0.133890
    93  H    0.100988
    94  H    0.112161
    95  H    0.088890
    96  H    0.073140
    97  H    0.088222
    98  H    0.084640
 Sum of Mulliken charges =  -0.00000

 Dipole moment (field-independent basis, Debye):
    X=              0.7543    Y=             -0.9785    Z=              2.1073  Tot=              2.4427
 Quadrupole moment (field-independent basis, Debye-Ang):
   XX=           -331.0545   YY=           -246.2578   ZZ=           -259.6846
   XY=             17.9988   XZ=              0.1215   YZ=              4.3283

 Normal termination of Gaussian 16 at Thu Jul  4 13:34:06 2019.
