 Gaussian 16, Revision A.03,
 Gaussian 16:  ES64L-G16RevA.03 25-Dec-2016

 -------------------------------------
 # td=(NStates=1) CAM-B3LYP/6-31G(d,p)
 -------------------------------------

 --
 TD
 --
 Symbolic Z-matrix:
 Charge =  0 Multiplicity = 1

                         Standard orientation:
 ---------------------------------------------------------------------
 Center     Atomic      Atomic             Coordinates (Angstroms)
 Number     Number       Type             X           Y           Z
 ---------------------------------------------------------------------
      1          8           0       14.734611   -2.327779   -0.533062
      2          8           0      -14.881046    1.872171    0.686068
      3          6           0       11.411539   -1.172931    1.139836
      4          6           0      -12.305028   -0.998356    0.822322
      5          6           0       12.955554   -1.541241    0.950131
      6          6           0      -13.754261   -0.310172    0.845448
      7          6           0       13.264025   -1.929861   -0.416305
      8          6           0      -13.628492    1.290666    0.659780
      9          6           0       10.857095   -0.266510    0.002480
     10          6           0      -11.354888   -0.297645   -0.181768
     11          6           0       12.999802   -0.709874   -1.356569
     12          6           0      -12.979395    1.552267   -0.730092
     13          6           0       11.591070   -0.194358   -1.124166
     14          6           0      -11.643286    0.820448   -0.853965
     15          6           0       11.372894   -0.480008    2.538195
     16          6           0       10.576887   -2.536547    1.206085
     17          6           0      -11.765394   -0.722841    2.283137
     18          6           0      -12.388039   -2.490649    0.678330
     19          6           0        9.573968    0.318886    0.287700
     20          6           0      -10.055737   -1.049104   -0.359776
     21          6           0       11.253082    0.573571   -2.391820
     22          6           0      -10.750800    1.469207   -1.956088
     23          6           0        9.405356    1.644190   -0.002967
     24          6           0       -8.854978   -0.554030   -0.371241
     25          6           0        8.043108    2.268720    0.205086
     26          6           0       -7.560088   -1.301492   -0.571943
     27          6           0        8.040317    3.743520    0.474379
     28          6           0       -7.627680   -2.752553   -1.103076
     29          6           0        6.953373    1.556656    0.007562
     30          6           0       -6.379853   -0.581767   -0.401248
     31          6           0        5.582597    2.091031    0.352970
     32          6           0       -5.071450   -1.006305   -0.549322
     33          6           0        4.533178    1.305901    0.098635
     34          6           0       -4.016367   -0.285280   -0.192541
     35          6           0        3.079254    1.719011    0.172046
     36          6           0       -2.574095   -0.680255   -0.346453
     37          6           0        2.804448    3.175658    0.641496
     38          6           0       -2.330799   -2.098721   -0.793394
     39          6           0        2.189724    0.787760   -0.073198
     40          6           0       -1.592369    0.152517   -0.124740
     41          6           0        0.684226    0.929140   -0.011880
     42          6           0       -0.146639   -0.047193   -0.239699
     43          1           0       13.511833   -0.594437    1.341294
     44          1           0       13.271508   -2.280451    1.598010
     45          1           0      -14.155377   -0.589702    1.744790
     46          1           0      -14.471761   -0.620800    0.049197
     47          1           0       12.619951   -2.887535   -0.671981
     48          1           0      -12.896217    1.762185    1.244047
     49          1           0       13.792691   -0.054161   -0.953651
     50          1           0       13.300073   -1.091394   -2.369886
     51          1           0      -13.738497    1.306820   -1.565811
     52          1           0      -12.599847    2.543262   -0.775696
     53          1           0       11.747513   -1.113347    3.307419
     54          1           0       10.422660   -0.030481    2.766159
     55          1           0       12.006811    0.404722    2.505906
     56          1           0       10.602299   -3.092106    0.108446
     57          1           0       10.851588   -3.395913    2.126709
     58          1           0        9.513265   -2.404939    1.473761
     59          1           0      -11.740979    0.434863    2.490640
     60          1           0      -10.648449   -1.167241    2.285144
     61          1           0      -12.425961   -1.274793    2.879345
     62          1           0      -13.052043   -2.870128    1.466931
     63          1           0      -11.501432   -3.162803    1.034925
     64          1           0      -12.516699   -2.931050   -0.399830
     65          1           0        8.773242   -0.294382    0.654743
     66          1           0      -10.347654   -2.050344   -0.514778
     67          1           0       10.319556    0.919342   -2.198892
     68          1           0       11.992746    1.503540   -2.372257
     69          1           0       11.281488    0.087204   -3.316856
     70          1           0      -11.309291    1.913987   -2.671992
     71          1           0       -9.941492    0.868237   -2.478188
     72          1           0      -10.103068    2.118242   -1.468405
     73          1           0       14.912943   -3.221859   -0.099432
     74          1           0      -15.263476    1.880794    1.625861
     75          1           0       10.272806    2.242211   -0.523711
     76          1           0       -8.564071    0.513970   -0.141380
     77          1           0        8.498779    4.197359   -0.457471
     78          1           0        7.228662    4.225628    0.300929
     79          1           0        8.645418    4.126246    1.310211
     80          1           0       -7.961955   -3.420999   -0.165399
     81          1           0       -8.150455   -2.635314   -2.056753
     82          1           0       -6.743863   -3.139593   -1.485431
     83          1           0        7.011173    0.664229   -0.308005
     84          1           0       -6.662380    0.406243   -0.085876
     85          1           0        5.469927    3.196356    0.601576
     86          1           0       -5.004859   -1.917102   -0.945815
     87          1           0        4.735095    0.371256   -0.362618
     88          1           0       -4.369636    0.835646    0.117940
     89          1           0        3.279499    3.215948    1.637258
     90          1           0        1.859804    3.438711    0.645328
     91          1           0        3.223789    3.767388   -0.094641
     92          1           0       -2.677359   -2.810609   -0.150437
     93          1           0       -3.170011   -2.393140   -1.630316
     94          1           0       -1.273431   -2.051650   -1.236841
     95          1           0        2.580759   -0.150263   -0.164423
     96          1           0       -1.927933    1.129753    0.166709
     97          1           0        0.200357    1.804823    0.216670
     98          1           0        0.112283   -0.936325   -0.537421
 ---------------------------------------------------------------------

 SCF Done:  E(RCAM-B3LYP) =  -1706.99541415     A.U. after   13 cycles

 Excitation energies and oscillator strengths:

 Excited State   1:      Singlet-A      3.4551 eV  358.84 nm  f=3.6757  <S**2>=0.000
     155 ->158        -0.21665
     156 ->157         0.65600
 This state for optimization and/or second-order correction.
 Total Energy, E(TD-HF/TD-DFT) =  -1706.86844115
 Copying the excited state density for this state as the 1-particle RhoCI density.

 The electronic state is 1-A.
 Alpha  occ. eigenvalues --  -19.21717 -19.20210 -10.30599 -10.30155 -10.28326
 Alpha  occ. eigenvalues --  -10.27977 -10.27634 -10.27471 -10.27335 -10.27033
 Alpha  occ. eigenvalues --  -10.26972 -10.26964 -10.26873 -10.26687 -10.26556
 Alpha  occ. eigenvalues --  -10.26379 -10.26309 -10.26209 -10.26200 -10.26082
 Alpha  occ. eigenvalues --  -10.26064 -10.25959 -10.25740 -10.25735 -10.25724
 Alpha  occ. eigenvalues --  -10.25492 -10.25205 -10.25084 -10.25028 -10.25011
 Alpha  occ. eigenvalues --  -10.24853 -10.24844 -10.24764 -10.24576 -10.24519
 Alpha  occ. eigenvalues --  -10.24371 -10.24319 -10.24294 -10.24249 -10.24232
 Alpha  occ. eigenvalues --  -10.23725 -10.23692  -1.09658  -1.04640  -0.93383
 Alpha  occ. eigenvalues --   -0.92438  -0.92130  -0.91481  -0.90534  -0.89569
 Alpha  occ. eigenvalues --   -0.87346  -0.86518  -0.86278  -0.85755  -0.84967
 Alpha  occ. eigenvalues --   -0.82987  -0.82118  -0.80684  -0.79595  -0.78764
 Alpha  occ. eigenvalues --   -0.77641  -0.76530  -0.76278  -0.75687  -0.75444
 Alpha  occ. eigenvalues --   -0.75244  -0.75167  -0.74085  -0.73912  -0.70141
 Alpha  occ. eigenvalues --   -0.68666  -0.67397  -0.65796  -0.64318  -0.64051
 Alpha  occ. eigenvalues --   -0.63967  -0.63041  -0.62353  -0.61474  -0.60472
 Alpha  occ. eigenvalues --   -0.59485  -0.58953  -0.58130  -0.57886  -0.56344
 Alpha  occ. eigenvalues --   -0.55261  -0.55062  -0.54670  -0.53763  -0.53580
 Alpha  occ. eigenvalues --   -0.52850  -0.52311  -0.51959  -0.51571  -0.50928
 Alpha  occ. eigenvalues --   -0.50360  -0.50130  -0.50040  -0.49698  -0.49479
 Alpha  occ. eigenvalues --   -0.49177  -0.48983  -0.48815  -0.48617  -0.48276
 Alpha  occ. eigenvalues --   -0.48021  -0.47451  -0.47178  -0.47125  -0.46831
 Alpha  occ. eigenvalues --   -0.46157  -0.46125  -0.45688  -0.45149  -0.44982
 Alpha  occ. eigenvalues --   -0.44701  -0.44172  -0.43875  -0.43270  -0.43226
 Alpha  occ. eigenvalues --   -0.43150  -0.42840  -0.42419  -0.42219  -0.41895
 Alpha  occ. eigenvalues --   -0.41564  -0.41426  -0.41058  -0.41045  -0.40871
 Alpha  occ. eigenvalues --   -0.39944  -0.39845  -0.39654  -0.39411  -0.39284
 Alpha  occ. eigenvalues --   -0.39228  -0.38763  -0.38376  -0.37943  -0.37868
 Alpha  occ. eigenvalues --   -0.37613  -0.37439  -0.35778  -0.35484  -0.35289
 Alpha  occ. eigenvalues --   -0.34893  -0.34356  -0.33953  -0.32640  -0.31721
 Alpha  occ. eigenvalues --   -0.31644  -0.29902  -0.28381  -0.27022  -0.24573
 Alpha  occ. eigenvalues --   -0.22172
 Alpha virt. eigenvalues --   -0.02184   0.00402   0.03429   0.06561   0.08461
 Alpha virt. eigenvalues --    0.09706   0.11257   0.11811   0.12066   0.12455
 Alpha virt. eigenvalues --    0.12732   0.13302   0.13334   0.14354   0.14464

 Mulliken charges:
               1
     1  O   -0.595679
     2  O   -0.557597
     3  C   -0.024281
     4  C   -0.015071
     5  C   -0.150851
     6  C   -0.182211
     7  C    0.139585
     8  C    0.173374
     9  C    0.073774
    10  C    0.049933
    11  C   -0.211297
    12  C   -0.219598
    13  C    0.018610
    14  C    0.010040
    15  C   -0.313907
    16  C   -0.291089
    17  C   -0.284300
    18  C   -0.322977
    19  C   -0.102507
    20  C   -0.120179
    21  C   -0.346868
    22  C   -0.362803
    23  C   -0.121804
    24  C   -0.087424
    25  C    0.069908
    26  C    0.067390
    27  C   -0.360091
    28  C   -0.361783
    29  C   -0.081737
    30  C   -0.130346
    31  C   -0.099138
    32  C   -0.026572
    33  C   -0.115786
    34  C   -0.121768
    35  C    0.088232
    36  C    0.106791
    37  C   -0.352310
    38  C   -0.364511
    39  C   -0.133767
    40  C   -0.138580
    41  C   -0.083635
    42  C   -0.029983
    43  H    0.085211
    44  H    0.088090
    45  H    0.080539
    46  H    0.098693
    47  H    0.071120
    48  H    0.080731
    49  H    0.131399
    50  H    0.113826
    51  H    0.108963
    52  H    0.110619
    53  H    0.107673
    54  H    0.103845
    55  H    0.102292
    56  H    0.084161
    57  H    0.064777
    58  H    0.105561
    59  H    0.092474
    60  H    0.094393
    61  H    0.103559
    62  H    0.100361
    63  H    0.091605
    64  H    0.104025
    65  H    0.109119
    66  H    0.097460
    67  H    0.113886
    68  H    0.096170
    69  H    0.121076
    70  H    0.116303
    71  H    0.108938
    72  H    0.124499
    73  H    0.303892
    74  H    0.310469
    75  H    0.102250
    76  H    0.079710
    77  H    0.103332
    78  H    0.114699
    79  H    0.123255
    80  H    0.113006
    81  H    0.128425
    82  H    0.113828
    83  H    0.060413
    84  H    0.062663
    85  H    0.090313
    86  H    0.057529
    87  H    0.083717
    88  H    0.069892
    89  H    0.126420
    90  H    0.113900
    91  H    0.126446
    92  H    0.140386
    93  H    0.083993
    94  H    0.110390
    95  H    0.076798
    96  H    0.070771
    97  H    0.075341
    98  H    0.059608
 Sum of Mulliken charges =  -0.00000

 Dipole moment (field-independent basis, Debye):
    X=             -0.9205    Y=             -0.4518    Z=              1.3934  Tot=              1.7300
 Quadrupole moment (field-independent basis, Debye-Ang):
   XX=           -292.1076   YY=           -239.9968   ZZ=           -258.3823
   XY=              8.1906   XZ=            -10.2918   YZ=              1.9102

 Normal termination of Gaussian 16 at Sat Jul  6 19:33:57 2019.
