 Gaussian 16, Revision A.03,
 Gaussian 16:  ES64L-G16RevA.03 25-Dec-2016

 -------------------------------------
 # td=(NStates=1) CAM-B3LYP/6-31G(d,p)
 -------------------------------------

 --
 TD
 --
 Symbolic Z-matrix:
 Charge =  0 Multiplicity = 1

                         Standard orientation:
 ---------------------------------------------------------------------
 Center     Atomic      Atomic             Coordinates (Angstroms)
 Number     Number       Type             X           Y           Z
 ---------------------------------------------------------------------
      1          8           0       14.755607   -2.311078   -0.592179
      2          8           0      -14.786861    1.943288    0.940361
      3          6           0       11.473945   -1.140091    1.201439
      4          6           0      -12.293386   -0.896300    0.867972
      5          6           0       12.959067   -1.526799    1.018981
      6          6           0      -13.644832   -0.241971    1.024403
      7          6           0       13.277496   -1.956779   -0.332085
      8          6           0      -13.493444    1.329451    0.782547
      9          6           0       10.959905   -0.287347    0.012115
     10          6           0      -11.353512   -0.364152   -0.250046
     11          6           0       12.967577   -0.845692   -1.315772
     12          6           0      -13.030396    1.607220   -0.563904
     13          6           0       11.668253   -0.217892   -1.174959
     14          6           0      -11.754610    0.848611   -0.915118
     15          6           0       11.322801   -0.397520    2.575615
     16          6           0       10.620842   -2.412228    1.220267
     17          6           0      -11.478567   -0.944140    2.289137
     18          6           0      -12.523618   -2.389155    0.527647
     19          6           0        9.642526    0.382251    0.300445
     20          6           0      -10.109374   -0.986328   -0.490497
     21          6           0       11.116591    0.587834   -2.349791
     22          6           0      -11.095617    1.308695   -2.149274
     23          6           0        9.383217    1.723915    0.060487
     24          6           0       -8.917983   -0.364354   -0.355295
     25          6           0        8.109669    2.298837    0.206347
     26          6           0       -7.657141   -1.163184   -0.562896
     27          6           0        8.177535    3.816852    0.520164
     28          6           0       -7.755559   -2.568362   -0.795654
     29          6           0        6.964786    1.656383    0.166946
     30          6           0       -6.432108   -0.544573   -0.508847
     31          6           0        5.597001    2.075787    0.167195
     32          6           0       -5.058300   -1.054699   -0.547146
     33          6           0        4.506481    1.268921   -0.027086
     34          6           0       -3.952767   -0.353947   -0.379523
     35          6           0        3.093877    1.673860   -0.000594
     36          6           0       -2.489723   -0.819204   -0.318160
     37          6           0        2.807121    3.075007    0.602297
     38          6           0       -2.330149   -2.239496   -0.703731
     39          6           0        2.142734    0.671078   -0.165353
     40          6           0       -1.557661    0.095042   -0.317548
     41          6           0        0.672627    0.911724   -0.070365
     42          6           0       -0.158631   -0.134580   -0.368143
     43          1           0       13.481603   -0.791098    1.330345
     44          1           0       13.113534   -2.263138    1.724334
     45          1           0      -14.160275   -0.599456    2.068200
     46          1           0      -14.526645   -0.484666    0.270000
     47          1           0       12.617626   -2.747546   -0.818898
     48          1           0      -12.809255    1.584185    1.706684
     49          1           0       13.834777   -0.213751   -1.243447
     50          1           0       13.002162   -1.193324   -2.338980
     51          1           0      -14.022909    1.181260   -1.180129
     52          1           0      -12.835011    2.781267   -0.703657
     53          1           0       11.823715   -0.972486    3.465013
     54          1           0       10.388158   -0.158555    2.928476
     55          1           0       11.757036    0.471146    2.521223
     56          1           0       10.627428   -2.978963    0.363891
     57          1           0       11.088500   -2.965414    2.079567
     58          1           0        9.559768   -2.448818    1.438572
     59          1           0      -11.585471    0.216419    2.446343
     60          1           0      -10.518491   -1.065835    2.201685
     61          1           0      -12.135313   -1.446324    2.969399
     62          1           0      -13.335438   -2.770043    1.161267
     63          1           0      -11.564210   -3.142292    0.761077
     64          1           0      -12.854560   -2.695010   -0.455077
     65          1           0        8.789919   -0.212785    0.501552
     66          1           0      -10.113378   -1.839797   -0.934746
     67          1           0       10.067961    0.888057   -2.405980
     68          1           0       11.817085    1.503421   -2.406273
     69          1           0       11.132359   -0.099668   -3.226312
     70          1           0      -11.593757    1.333396   -3.219482
     71          1           0      -10.113205    0.402278   -2.354180
     72          1           0      -10.314815    2.260753   -2.081544
     73          1           0       14.885561   -2.833578    0.390083
     74          1           0      -15.212394    1.663123    1.826363
     75          1           0       10.129612    2.255858   -0.359717
     76          1           0       -8.787814    0.503583    0.035749
     77          1           0        8.759098    4.242193   -0.486096
     78          1           0        7.123406    4.249922    0.722520
     79          1           0        8.897359    4.057687    1.285475
     80          1           0       -8.332742   -3.132173   -0.046638
     81          1           0       -8.533804   -2.609392   -1.654269
     82          1           0       -6.737071   -2.868199   -1.125504
     83          1           0        7.290632    0.600489   -0.254431
     84          1           0       -6.389218    0.575858   -0.469351
     85          1           0        5.368805    3.166558    0.542204
     86          1           0       -5.016852   -2.241456   -0.904230
     87          1           0        4.802074    0.220961   -0.331082
     88          1           0       -4.092223    0.712499   -0.082204
     89          1           0        3.540753    3.257517    1.454736
     90          1           0        1.597079    3.056142    0.801663
     91          1           0        3.126663    3.605784   -0.312034
     92          1           0       -2.872203   -2.921818   -0.234505
     93          1           0       -2.487077   -2.240181   -1.797311
     94          1           0       -1.241188   -2.602886   -0.624394
     95          1           0        2.569524   -0.450423   -0.415118
     96          1           0       -1.767006    1.216461    0.064544
     97          1           0        0.446796    2.049453    0.002024
     98          1           0        0.303322   -1.020907   -0.676154
 ---------------------------------------------------------------------

 SCF Done:  E(RCAM-B3LYP) =  -1706.87686696     A.U. after   14 cycles

 Excitation energies and oscillator strengths:

 Excited State   1:      Singlet-A      2.9835 eV  415.56 nm  f=3.4481  <S**2>=0.000
     155 ->158         0.18453
     156 ->157         0.67219
 This state for optimization and/or second-order correction.
 Total Energy, E(TD-HF/TD-DFT) =  -1706.76722492
 Copying the excited state density for this state as the 1-particle RhoCI density.

 The electronic state is 1-A.
 Alpha  occ. eigenvalues --  -19.22579 -19.21311 -10.31222 -10.30722 -10.28504
 Alpha  occ. eigenvalues --  -10.28111 -10.28064 -10.28020 -10.28010 -10.27973
 Alpha  occ. eigenvalues --  -10.27903 -10.27670 -10.27661 -10.27546 -10.27537
 Alpha  occ. eigenvalues --  -10.27433 -10.27389 -10.27292 -10.27161 -10.27146
 Alpha  occ. eigenvalues --  -10.26916 -10.26802 -10.26790 -10.26605 -10.26578
 Alpha  occ. eigenvalues --  -10.26486 -10.26429 -10.26230 -10.26205 -10.25893
 Alpha  occ. eigenvalues --  -10.25871 -10.25830 -10.25777 -10.25643 -10.25260
 Alpha  occ. eigenvalues --  -10.25163 -10.24972 -10.24632 -10.24294 -10.23952
 Alpha  occ. eigenvalues --  -10.23805 -10.23692  -1.07754  -1.04583  -0.93986
 Alpha  occ. eigenvalues --   -0.93586  -0.92295  -0.91864  -0.91208  -0.90043
 Alpha  occ. eigenvalues --   -0.87630  -0.87481  -0.86293  -0.85980  -0.85151
 Alpha  occ. eigenvalues --   -0.83617  -0.82432  -0.80031  -0.79869  -0.78218
 Alpha  occ. eigenvalues --   -0.77756  -0.77286  -0.76570  -0.76175  -0.75651
 Alpha  occ. eigenvalues --   -0.75371  -0.74892  -0.74325  -0.73832  -0.70024
 Alpha  occ. eigenvalues --   -0.68914  -0.67707  -0.65835  -0.64759  -0.64534
 Alpha  occ. eigenvalues --   -0.63653  -0.62661  -0.62308  -0.60782  -0.59016
 Alpha  occ. eigenvalues --   -0.58817  -0.58658  -0.57893  -0.57082  -0.56256
 Alpha  occ. eigenvalues --   -0.55826  -0.55471  -0.54813  -0.54176  -0.53655
 Alpha  occ. eigenvalues --   -0.53059  -0.52704  -0.52284  -0.51675  -0.51395
 Alpha  occ. eigenvalues --   -0.50833  -0.50562  -0.50033  -0.49702  -0.49597
 Alpha  occ. eigenvalues --   -0.49248  -0.48993  -0.48305  -0.48243  -0.47946
 Alpha  occ. eigenvalues --   -0.47723  -0.47342  -0.46929  -0.46662  -0.46498
 Alpha  occ. eigenvalues --   -0.46092  -0.45873  -0.45689  -0.45176  -0.44875
 Alpha  occ. eigenvalues --   -0.44588  -0.44407  -0.44042  -0.43937  -0.43749
 Alpha  occ. eigenvalues --   -0.43137  -0.43025  -0.42955  -0.42797  -0.42712
 Alpha  occ. eigenvalues --   -0.41990  -0.41581  -0.41528  -0.41448  -0.40920
 Alpha  occ. eigenvalues --   -0.40414  -0.39950  -0.39761  -0.39681  -0.39338
 Alpha  occ. eigenvalues --   -0.38910  -0.38782  -0.38250  -0.37885  -0.37587
 Alpha  occ. eigenvalues --   -0.37119  -0.36973  -0.36881  -0.36581  -0.36199
 Alpha  occ. eigenvalues --   -0.35619  -0.34396  -0.33103  -0.32586  -0.31740
 Alpha  occ. eigenvalues --   -0.30797  -0.28870  -0.27457  -0.26522  -0.24599
 Alpha  occ. eigenvalues --   -0.21687
 Alpha virt. eigenvalues --   -0.03808  -0.00493   0.02234   0.04780   0.06567
 Alpha virt. eigenvalues --    0.08528   0.09809   0.10240   0.10468   0.11118
 Alpha virt. eigenvalues --    0.11785   0.12115   0.12294   0.12842   0.13202

 Mulliken charges:
               1
     1  O   -0.565845
     2  O   -0.574742
     3  C   -0.036661
     4  C   -0.006457
     5  C   -0.168092
     6  C   -0.209566
     7  C    0.135032
     8  C    0.179403
     9  C    0.025366
    10  C    0.050342
    11  C   -0.229275
    12  C   -0.194154
    13  C    0.050748
    14  C    0.080048
    15  C   -0.309568
    16  C   -0.297784
    17  C   -0.282565
    18  C   -0.301501
    19  C   -0.123274
    20  C   -0.130038
    21  C   -0.354531
    22  C   -0.358484
    23  C   -0.086026
    24  C   -0.017969
    25  C    0.103133
    26  C    0.104558
    27  C   -0.351155
    28  C   -0.370450
    29  C   -0.122109
    30  C   -0.149063
    31  C   -0.102734
    32  C   -0.069569
    33  C   -0.093698
    34  C   -0.122034
    35  C    0.054014
    36  C    0.097068
    37  C   -0.343916
    38  C   -0.368471
    39  C   -0.119595
    40  C   -0.117478
    41  C   -0.101862
    42  C   -0.066546
    43  H    0.113878
    44  H    0.087857
    45  H    0.068487
    46  H    0.093851
    47  H    0.093385
    48  H    0.071504
    49  H    0.124241
    50  H    0.106584
    51  H    0.105415
    52  H    0.111676
    53  H    0.075862
    54  H    0.118608
    55  H    0.117341
    56  H    0.110620
    57  H    0.085622
    58  H    0.105123
    59  H    0.075426
    60  H    0.121903
    61  H    0.110620
    62  H    0.095597
    63  H    0.066181
    64  H    0.108835
    65  H    0.095836
    66  H    0.084803
    67  H    0.125706
    68  H    0.109926
    69  H    0.102260
    70  H    0.114566
    71  H    0.056447
    72  H    0.090937
    73  H    0.296507
    74  H    0.308629
    75  H    0.084356
    76  H    0.074271
    77  H    0.085757
    78  H    0.102969
    79  H    0.127972
    80  H    0.128639
    81  H    0.109118
    82  H    0.105350
    83  H    0.061428
    84  H    0.073512
    85  H    0.068360
    86  H    0.061597
    87  H    0.079779
    88  H    0.078968
    89  H    0.132279
    90  H    0.092874
    91  H    0.137715
    92  H    0.132136
    93  H    0.134072
    94  H    0.092650
    95  H    0.077432
    96  H    0.078258
    97  H    0.096252
    98  H    0.095523
 Sum of Mulliken charges =  -0.00000

 Dipole moment (field-independent basis, Debye):
    X=             -0.3040    Y=             -1.3112    Z=              2.1160  Tot=              2.5078
 Quadrupole moment (field-independent basis, Debye-Ang):
   XX=           -294.5401   YY=           -253.0804   ZZ=           -260.5163
   XY=             23.0429   XZ=              4.6601   YZ=              0.0696

 Normal termination of Gaussian 16 at Thu Jul  4 00:27:18 2019.
