 Gaussian 16, Revision A.03,
 Gaussian 16:  ES64L-G16RevA.03 25-Dec-2016

 -------------------------------------
 # td=(NStates=1) CAM-B3LYP/6-31G(d,p)
 -------------------------------------

 --
 TD
 --
 Symbolic Z-matrix:
 Charge =  0 Multiplicity = 1

                         Standard orientation:
 ---------------------------------------------------------------------
 Center     Atomic      Atomic             Coordinates (Angstroms)
 Number     Number       Type             X           Y           Z
 ---------------------------------------------------------------------
      1          8           0       14.678511   -2.343148   -0.587634
      2          8           0      -14.792801    1.808225    0.721093
      3          6           0       11.503103   -1.114577    1.174317
      4          6           0      -12.311959   -0.967134    0.620381
      5          6           0       12.934018   -1.506681    0.962227
      6          6           0      -13.635249   -0.295092    0.603242
      7          6           0       13.291548   -1.959080   -0.472234
      8          6           0      -13.476709    1.191261    0.708824
      9          6           0       10.978271   -0.307941    0.007468
     10          6           0      -11.294852   -0.335346   -0.219290
     11          6           0       12.887016   -0.982384   -1.499212
     12          6           0      -12.734016    1.743349   -0.508279
     13          6           0       11.683002   -0.251312   -1.136981
     14          6           0      -11.548051    0.933073   -0.807501
     15          6           0       11.406339   -0.295018    2.439450
     16          6           0       10.597945   -2.328821    1.443113
     17          6           0      -11.810170   -1.199447    2.186601
     18          6           0      -12.603611   -2.439194    0.076694
     19          6           0        9.723526    0.228752    0.294784
     20          6           0      -10.021736   -1.085185   -0.383135
     21          6           0       11.169400    0.493116   -2.460677
     22          6           0      -10.635780    1.634937   -1.845868
     23          6           0        9.370373    1.541532   -0.055225
     24          6           0       -8.834719   -0.477690   -0.258014
     25          6           0        8.012749    2.169120    0.087128
     26          6           0       -7.606704   -1.243043   -0.463559
     27          6           0        8.096090    3.740007    0.294304
     28          6           0       -7.687265   -2.637162   -0.984459
     29          6           0        6.858924    1.534605   -0.031199
     30          6           0       -6.462551   -0.476580   -0.339426
     31          6           0        5.490952    2.105504    0.228666
     32          6           0       -5.130982   -1.026586   -0.363248
     33          6           0        4.455502    1.349588    0.046179
     34          6           0       -3.987181   -0.246186   -0.213363
     35          6           0        3.093883    1.705628    0.251090
     36          6           0       -2.668302   -0.637603   -0.339223
     37          6           0        2.838816    3.126030    0.570119
     38          6           0       -2.348371   -2.115876   -0.519764
     39          6           0        2.114272    0.761939    0.029518
     40          6           0       -1.626078    0.236061    0.025436
     41          6           0        0.649040    1.034491    0.015232
     42          6           0       -0.232523   -0.019916   -0.111985
     43          1           0       13.404649   -0.669140    1.207367
     44          1           0       13.220647   -2.260535    1.769718
     45          1           0      -14.321327   -0.533253    1.595512
     46          1           0      -14.109554   -0.610358   -0.308051
     47          1           0       12.801411   -2.745061   -0.704019
     48          1           0      -12.899221    1.745280    1.515426
     49          1           0       13.769287   -0.314417   -1.518864
     50          1           0       12.852127   -1.502396   -2.624084
     51          1           0      -13.432913    1.680733   -1.343456
     52          1           0      -12.514193    2.877720   -0.130652
     53          1           0       11.829612   -0.668450    3.437843
     54          1           0       10.304565    0.219132    2.367217
     55          1           0       11.996128    0.562917    2.189883
     56          1           0       10.576591   -2.834085    0.584245
     57          1           0       11.089080   -2.991424    2.131506
     58          1           0        9.693967   -1.763099    1.747179
     59          1           0      -11.589639   -0.255413    2.767577
     60          1           0      -10.998200   -1.807627    2.154719
     61          1           0      -12.520474   -1.578323    2.904746
     62          1           0      -13.390842   -2.842636    0.667693
     63          1           0      -11.730962   -3.125631    0.236447
     64          1           0      -12.945968   -2.320967   -0.866058
     65          1           0        8.819726   -0.283314    0.725086
     66          1           0      -10.207901   -2.076932   -0.723955
     67          1           0       10.162327    1.032646   -2.316783
     68          1           0       11.794070    1.350095   -2.777033
     69          1           0       10.923248   -0.490553   -3.117511
     70          1           0      -11.426922    1.966554   -2.692307
     71          1           0       -9.815050    1.033902   -2.293060
     72          1           0      -10.112688    2.560404   -1.490274
     73          1           0       15.014762   -2.822358    0.341544
     74          1           0      -15.277925    1.315327    1.401270
     75          1           0       10.381420    2.138699   -0.342409
     76          1           0       -8.781832    0.424177    0.167490
     77          1           0        8.931086    4.348292   -0.297254
     78          1           0        7.159725    4.071079    0.079546
     79          1           0        8.290684    3.814477    1.520143
     80          1           0       -8.289911   -3.217789   -0.326987
     81          1           0       -8.093383   -2.847393   -2.000166
     82          1           0       -6.652125   -3.033711   -1.188280
     83          1           0        6.962519    0.464806   -0.343180
     84          1           0       -6.409833    0.438116    0.252699
     85          1           0        5.359797    3.130235    0.719799
     86          1           0       -5.020435   -2.189412   -0.681105
     87          1           0        4.425888    0.105078   -0.111020
     88          1           0       -4.059995    0.632416   -0.032173
     89          1           0        2.952589    3.205442    1.724455
     90          1           0        1.798204    3.343296    0.406672
     91          1           0        3.503244    3.989818    0.083241
     92          1           0       -2.554810   -2.954511    0.229876
     93          1           0       -2.631481   -2.575492   -1.589916
     94          1           0       -1.176012   -2.459079   -0.464424
     95          1           0        2.380809   -0.177154   -0.217652
     96          1           0       -1.999637    1.147337    0.196871
     97          1           0        0.370585    2.065680    0.392440
     98          1           0        0.121044   -0.920600   -0.398003
 ---------------------------------------------------------------------

 SCF Done:  E(RCAM-B3LYP) =  -1706.90757711     A.U. after   14 cycles

 Excitation energies and oscillator strengths:

 Excited State   1:      Singlet-A      2.5803 eV  480.51 nm  f=3.6436  <S**2>=0.000
     155 ->158        -0.15450
     156 ->157         0.68624
 This state for optimization and/or second-order correction.
 Total Energy, E(TD-HF/TD-DFT) =  -1706.81275344
 Copying the excited state density for this state as the 1-particle RhoCI density.

 The electronic state is 1-A.
 Alpha  occ. eigenvalues --  -19.21143 -19.20239 -10.29966 -10.28250 -10.27856
 Alpha  occ. eigenvalues --  -10.27742 -10.27619 -10.27547 -10.27512 -10.27511
 Alpha  occ. eigenvalues --  -10.27511 -10.27457 -10.27433 -10.27412 -10.27087
 Alpha  occ. eigenvalues --  -10.27035 -10.26946 -10.26896 -10.26722 -10.26611
 Alpha  occ. eigenvalues --  -10.26386 -10.26386 -10.26370 -10.26323 -10.26308
 Alpha  occ. eigenvalues --  -10.26297 -10.26281 -10.26225 -10.26185 -10.26010
 Alpha  occ. eigenvalues --  -10.25860 -10.25732 -10.25696 -10.25645 -10.25643
 Alpha  occ. eigenvalues --  -10.25199 -10.24839 -10.24276 -10.24255 -10.24247
 Alpha  occ. eigenvalues --  -10.23973 -10.22686  -1.08084  -1.06204  -0.95019
 Alpha  occ. eigenvalues --   -0.93956  -0.92593  -0.92089  -0.90914  -0.89563
 Alpha  occ. eigenvalues --   -0.87742  -0.87584  -0.86471  -0.85905  -0.85083
 Alpha  occ. eigenvalues --   -0.83096  -0.81565  -0.79705  -0.79266  -0.78048
 Alpha  occ. eigenvalues --   -0.76919  -0.76855  -0.76558  -0.75895  -0.75498
 Alpha  occ. eigenvalues --   -0.75355  -0.75271  -0.75106  -0.74003  -0.71010
 Alpha  occ. eigenvalues --   -0.69164  -0.67788  -0.66105  -0.65136  -0.63891
 Alpha  occ. eigenvalues --   -0.63491  -0.63231  -0.62573  -0.61604  -0.60332
 Alpha  occ. eigenvalues --   -0.58809  -0.58230  -0.58190  -0.57836  -0.56394
 Alpha  occ. eigenvalues --   -0.55745  -0.55439  -0.54846  -0.54561  -0.53965
 Alpha  occ. eigenvalues --   -0.53176  -0.52922  -0.52636  -0.51850  -0.51293
 Alpha  occ. eigenvalues --   -0.50794  -0.50421  -0.50344  -0.49711  -0.49634
 Alpha  occ. eigenvalues --   -0.48912  -0.48772  -0.48455  -0.48152  -0.47636
 Alpha  occ. eigenvalues --   -0.47396  -0.47028  -0.46882  -0.46321  -0.46149
 Alpha  occ. eigenvalues --   -0.45848  -0.45461  -0.45102  -0.44817  -0.44786
 Alpha  occ. eigenvalues --   -0.44612  -0.44341  -0.44275  -0.43833  -0.43613
 Alpha  occ. eigenvalues --   -0.43496  -0.43222  -0.42635  -0.42110  -0.42011
 Alpha  occ. eigenvalues --   -0.41948  -0.41876  -0.41700  -0.41071  -0.41029
 Alpha  occ. eigenvalues --   -0.40510  -0.39800  -0.39670  -0.39571  -0.39323
 Alpha  occ. eigenvalues --   -0.38849  -0.38510  -0.38365  -0.38259  -0.37819
 Alpha  occ. eigenvalues --   -0.37631  -0.37132  -0.36929  -0.36136  -0.35655
 Alpha  occ. eigenvalues --   -0.35381  -0.34072  -0.33524  -0.32050  -0.31810
 Alpha  occ. eigenvalues --   -0.31662  -0.30015  -0.28020  -0.26326  -0.24243
 Alpha  occ. eigenvalues --   -0.20585
 Alpha virt. eigenvalues --   -0.05040  -0.00607   0.02137   0.04989   0.07172
 Alpha virt. eigenvalues --    0.08729   0.10263   0.10751   0.11045   0.11368
 Alpha virt. eigenvalues --    0.11714   0.12399   0.12573   0.13082   0.13704

 Mulliken charges:
               1
     1  O   -0.596401
     2  O   -0.572060
     3  C   -0.073990
     4  C   -0.033422
     5  C   -0.205726
     6  C   -0.181764
     7  C    0.224226
     8  C    0.159681
     9  C    0.124861
    10  C    0.057814
    11  C   -0.236888
    12  C   -0.219146
    13  C    0.030138
    14  C    0.044614
    15  C   -0.303987
    16  C   -0.260259
    17  C   -0.315777
    18  C   -0.317831
    19  C   -0.158284
    20  C   -0.131418
    21  C   -0.349395
    22  C   -0.346450
    23  C   -0.126693
    24  C   -0.058812
    25  C    0.061533
    26  C    0.106082
    27  C   -0.338251
    28  C   -0.373883
    29  C   -0.117211
    30  C   -0.135504
    31  C   -0.130748
    32  C   -0.098011
    33  C   -0.068103
    34  C   -0.055908
    35  C    0.131175
    36  C    0.121369
    37  C   -0.382954
    38  C   -0.379976
    39  C   -0.128986
    40  C   -0.119285
    41  C   -0.094656
    42  C   -0.056004
    43  H    0.104160
    44  H    0.064415
    45  H    0.056694
    46  H    0.110898
    47  H    0.088121
    48  H    0.088066
    49  H    0.127626
    50  H    0.096225
    51  H    0.122303
    52  H    0.096872
    53  H    0.099826
    54  H    0.094271
    55  H    0.100531
    56  H    0.101326
    57  H    0.093300
    58  H    0.096777
    59  H    0.091699
    60  H    0.112804
    61  H    0.099801
    62  H    0.109044
    63  H    0.095013
    64  H    0.112854
    65  H    0.110403
    66  H    0.098110
    67  H    0.109633
    68  H    0.122012
    69  H    0.101261
    70  H    0.087674
    71  H    0.117714
    72  H    0.112277
    73  H    0.306682
    74  H    0.298102
    75  H    0.084453
    76  H    0.087400
    77  H    0.108539
    78  H    0.119809
    79  H    0.094158
    80  H    0.128891
    81  H    0.125459
    82  H    0.105409
    83  H    0.087935
    84  H    0.092641
    85  H    0.106820
    86  H    0.076776
    87  H    0.063897
    88  H    0.034321
    89  H    0.117022
    90  H    0.110830
    91  H    0.112205
    92  H    0.123585
    93  H    0.098671
    94  H    0.075847
    95  H    0.074798
    96  H    0.073351
    97  H    0.087429
    98  H    0.089549
 Sum of Mulliken charges =  -0.00000

 Dipole moment (field-independent basis, Debye):
    X=             -0.9068    Y=             -1.4370    Z=              2.0822  Tot=              2.6875
 Quadrupole moment (field-independent basis, Debye-Ang):
   XX=           -291.9150   YY=           -247.9707   ZZ=           -262.3146
   XY=             25.6563   XZ=              6.5037   YZ=              0.8659

 Normal termination of Gaussian 16 at Sat Jun 29 08:30:13 2019.
