 Gaussian 16, Revision A.03,
 Gaussian 16:  ES64L-G16RevA.03 25-Dec-2016

 -------------------------------------
 # td=(NStates=1) CAM-B3LYP/6-31G(d,p)
 -------------------------------------

 --
 TD
 --
 Symbolic Z-matrix:
 Charge =  0 Multiplicity = 1

                         Standard orientation:
 ---------------------------------------------------------------------
 Center     Atomic      Atomic             Coordinates (Angstroms)
 Number     Number       Type             X           Y           Z
 ---------------------------------------------------------------------
      1          8           0       14.678925   -2.170388   -0.543970
      2          8           0      -14.702686    2.125960    0.630199
      3          6           0       11.430255   -1.095666    1.107836
      4          6           0      -12.357870   -0.792461    0.703349
      5          6           0       12.952327   -1.438046    1.000113
      6          6           0      -13.600179   -0.091591    0.528951
      7          6           0       13.353450   -1.827700   -0.356895
      8          6           0      -13.434558    1.419448    0.590797
      9          6           0       10.904962   -0.284536   -0.146861
     10          6           0      -11.286948   -0.203039   -0.234904
     11          6           0       13.062609   -0.753775   -1.359116
     12          6           0      -12.652165    1.847712   -0.654610
     13          6           0       11.654399   -0.117521   -1.230720
     14          6           0      -11.480627    0.911709   -0.840132
     15          6           0       11.239313   -0.138331    2.287261
     16          6           0       10.671395   -2.323821    1.366657
     17          6           0      -11.745308   -0.818544    2.127624
     18          6           0      -12.649108   -2.231400    0.427133
     19          6           0        9.651485    0.270407    0.029581
     20          6           0      -10.091342   -1.108541   -0.530136
     21          6           0       11.317934    0.727689   -2.340454
     22          6           0      -10.564397    1.530720   -1.876227
     23          6           0        9.297035    1.589092   -0.017616
     24          6           0       -8.841473   -0.603135   -0.203501
     25          6           0        7.949336    2.185826    0.071129
     26          6           0       -7.585919   -1.373715   -0.389108
     27          6           0        8.096645    3.668762    0.523573
     28          6           0       -7.756516   -2.737747   -0.843363
     29          6           0        6.818559    1.478414    0.029257
     30          6           0       -6.407817   -0.829350   -0.153879
     31          6           0        5.454174    2.019142    0.269067
     32          6           0       -5.079226   -1.312815   -0.299628
     33          6           0        4.462175    1.186782   -0.016474
     34          6           0       -4.043941   -0.502371   -0.103179
     35          6           0        3.032539    1.535796    0.239105
     36          6           0       -2.680821   -1.008951   -0.271375
     37          6           0        2.734692    2.985454    0.643194
     38          6           0       -2.279741   -2.448007   -0.642285
     39          6           0        2.032530    0.670218    0.008608
     40          6           0       -1.653523   -0.053720   -0.068247
     41          6           0        0.573000    0.830226    0.000062
     42          6           0       -0.336556   -0.206925   -0.229636
     43          1           0       13.557177   -0.468629    1.030345
     44          1           0       13.197626   -2.303124    1.683381
     45          1           0      -14.204058   -0.174021    1.499637
     46          1           0      -14.195056   -0.383001   -0.468017
     47          1           0       12.561366   -2.694254   -0.618602
     48          1           0      -12.895332    1.704978    1.445350
     49          1           0       13.684816    0.126347   -1.213298
     50          1           0       13.171065   -1.172620   -2.233377
     51          1           0      -13.346014    2.043988   -1.538659
     52          1           0      -12.265056    2.812794   -0.346023
     53          1           0       11.497081   -0.843113    3.291662
     54          1           0       10.172866    0.144779    2.320555
     55          1           0       11.951770    0.606550    2.279037
     56          1           0       10.759191   -3.191539    0.726265
     57          1           0       10.919153   -2.650338    2.507361
     58          1           0        9.593301   -2.038404    1.251708
     59          1           0      -11.583276    0.236764    2.427525
     60          1           0      -10.744179   -1.216616    2.102597
     61          1           0      -12.287114   -1.498340    2.708173
     62          1           0      -13.356790   -2.705461    1.262157
     63          1           0      -11.863040   -2.913479    0.452950
     64          1           0      -13.119723   -2.488222   -0.574157
     65          1           0        8.959452   -0.377848    0.519264
     66          1           0      -10.186247   -2.164139   -1.125756
     67          1           0       10.319751    1.317101   -2.326965
     68          1           0       12.230181    1.552638   -2.484794
     69          1           0       11.421231    0.159900   -3.422235
     70          1           0      -11.054142    2.071916   -2.649892
     71          1           0       -9.864656    0.896479   -2.690721
     72          1           0       -9.948792    2.261856   -1.430322
     73          1           0       15.013820   -2.865305    0.201917
     74          1           0      -15.144811    1.966668    1.453700
     75          1           0       10.028647    2.541361   -0.214605
     76          1           0       -8.529402    0.313987    0.235703
     77          1           0        8.658919    4.197931   -0.251754
     78          1           0        7.215607    4.167641    0.643747
     79          1           0        8.732279    3.691535    1.397689
     80          1           0       -8.556126   -3.294935   -0.129453
     81          1           0       -8.147981   -2.750928   -1.934863
     82          1           0       -6.910358   -3.466765   -0.905596
     83          1           0        6.972773    0.522469   -0.263126
     84          1           0       -6.400077    0.308948    0.098935
     85          1           0        5.435414    3.092034    0.378051
     86          1           0       -4.871648   -2.261001   -0.495100
     87          1           0        4.505581    0.214522   -0.302706
     88          1           0       -4.175957    0.530391    0.305085
     89          1           0        3.401709    3.183175    1.515387
     90          1           0        1.839549    3.158487    1.084847
     91          1           0        3.034168    3.856193   -0.027239
     92          1           0       -2.918257   -3.223460    0.116727
     93          1           0       -2.648816   -2.493032   -1.676804
     94          1           0       -1.204080   -2.644205   -0.717673
     95          1           0        2.365353   -0.262268   -0.276305
     96          1           0       -2.060159    1.082145   -0.085893
     97          1           0        0.320480    1.997343    0.067676
     98          1           0        0.186232   -1.194571   -0.163036
 ---------------------------------------------------------------------

 SCF Done:  E(RCAM-B3LYP) =  -1707.00164170     A.U. after   14 cycles

 Excitation energies and oscillator strengths:

 Excited State   1:      Singlet-A      2.7090 eV  457.68 nm  f=3.5939  <S**2>=0.000
     155 ->158         0.15723
     156 ->157         0.68564
 This state for optimization and/or second-order correction.
 Total Energy, E(TD-HF/TD-DFT) =  -1706.90208848
 Copying the excited state density for this state as the 1-particle RhoCI density.

 The electronic state is 1-A.
 Alpha  occ. eigenvalues --  -19.22576 -19.20190 -10.30138 -10.29218 -10.28152
 Alpha  occ. eigenvalues --  -10.28019 -10.27969 -10.27855 -10.27317 -10.27270
 Alpha  occ. eigenvalues --  -10.27180 -10.27179 -10.26630 -10.26586 -10.26538
 Alpha  occ. eigenvalues --  -10.26522 -10.26506 -10.26503 -10.26244 -10.26230
 Alpha  occ. eigenvalues --  -10.26189 -10.26080 -10.25882 -10.25801 -10.25784
 Alpha  occ. eigenvalues --  -10.25628 -10.25554 -10.25425 -10.25344 -10.25236
 Alpha  occ. eigenvalues --  -10.25167 -10.25113 -10.25056 -10.25010 -10.24903
 Alpha  occ. eigenvalues --  -10.24811 -10.24798 -10.24797 -10.24657 -10.24653
 Alpha  occ. eigenvalues --  -10.23846 -10.23697  -1.09522  -1.08084  -0.94587
 Alpha  occ. eigenvalues --   -0.94463  -0.92353  -0.91661  -0.90682  -0.89693
 Alpha  occ. eigenvalues --   -0.87947  -0.87767  -0.87394  -0.86164  -0.84647
 Alpha  occ. eigenvalues --   -0.83717  -0.82043  -0.80412  -0.79503  -0.78202
 Alpha  occ. eigenvalues --   -0.77129  -0.76337  -0.76194  -0.76117  -0.75898
 Alpha  occ. eigenvalues --   -0.75817  -0.75226  -0.74951  -0.73898  -0.70876
 Alpha  occ. eigenvalues --   -0.68732  -0.67331  -0.65640  -0.64709  -0.64241
 Alpha  occ. eigenvalues --   -0.63088  -0.62681  -0.62027  -0.60665  -0.60473
 Alpha  occ. eigenvalues --   -0.58968  -0.58422  -0.57989  -0.57575  -0.56665
 Alpha  occ. eigenvalues --   -0.55988  -0.55846  -0.55639  -0.54809  -0.53939
 Alpha  occ. eigenvalues --   -0.53208  -0.53066  -0.52311  -0.51803  -0.51040
 Alpha  occ. eigenvalues --   -0.50828  -0.50589  -0.49970  -0.49712  -0.49413
 Alpha  occ. eigenvalues --   -0.48828  -0.48606  -0.48476  -0.48403  -0.48229
 Alpha  occ. eigenvalues --   -0.47701  -0.47268  -0.46802  -0.46312  -0.46034
 Alpha  occ. eigenvalues --   -0.45914  -0.45811  -0.45517  -0.45443  -0.45215
 Alpha  occ. eigenvalues --   -0.44698  -0.44300  -0.43773  -0.43414  -0.43137
 Alpha  occ. eigenvalues --   -0.42856  -0.42594  -0.41986  -0.41944  -0.41866
 Alpha  occ. eigenvalues --   -0.41487  -0.41314  -0.41139  -0.40519  -0.40379
 Alpha  occ. eigenvalues --   -0.40221  -0.40134  -0.39734  -0.39617  -0.39194
 Alpha  occ. eigenvalues --   -0.39083  -0.38995  -0.38700  -0.38461  -0.38218
 Alpha  occ. eigenvalues --   -0.38067  -0.37613  -0.36673  -0.36540  -0.36056
 Alpha  occ. eigenvalues --   -0.34844  -0.34132  -0.33534  -0.32265  -0.31617
 Alpha  occ. eigenvalues --   -0.31508  -0.30091  -0.29022  -0.26846  -0.24360
 Alpha  occ. eigenvalues --   -0.20638
 Alpha virt. eigenvalues --   -0.04470  -0.00022   0.02853   0.06425   0.08491
 Alpha virt. eigenvalues --    0.09353   0.10156   0.10877   0.11896   0.12230
 Alpha virt. eigenvalues --    0.12416   0.13002   0.13270   0.13530   0.13720

 Mulliken charges:
               1
     1  O   -0.559944
     2  O   -0.577618
     3  C   -0.028598
     4  C    0.007960
     5  C   -0.173882
     6  C   -0.169682
     7  C    0.191315
     8  C    0.153172
     9  C    0.091968
    10  C    0.048946
    11  C   -0.193646
    12  C   -0.223814
    13  C    0.065233
    14  C    0.062909
    15  C   -0.261883
    16  C   -0.286126
    17  C   -0.304822
    18  C   -0.308189
    19  C   -0.177972
    20  C   -0.167977
    21  C   -0.362142
    22  C   -0.358169
    23  C   -0.082420
    24  C   -0.051845
    25  C    0.063925
    26  C    0.152780
    27  C   -0.372637
    28  C   -0.390515
    29  C   -0.102788
    30  C   -0.162733
    31  C   -0.090432
    32  C   -0.044129
    33  C   -0.070210
    34  C   -0.096434
    35  C    0.097860
    36  C    0.077058
    37  C   -0.383588
    38  C   -0.356015
    39  C   -0.135005
    40  C   -0.113615
    41  C   -0.082896
    42  C   -0.095692
    43  H    0.085486
    44  H    0.074917
    45  H    0.062494
    46  H    0.097460
    47  H    0.029928
    48  H    0.086787
    49  H    0.113455
    50  H    0.120121
    51  H    0.121638
    52  H    0.111684
    53  H    0.052855
    54  H    0.111539
    55  H    0.113647
    56  H    0.112171
    57  H    0.079948
    58  H    0.091798
    59  H    0.093921
    60  H    0.117026
    61  H    0.104256
    62  H    0.079963
    63  H    0.104916
    64  H    0.089802
    65  H    0.094678
    66  H    0.110278
    67  H    0.120183
    68  H    0.084357
    69  H    0.086575
    70  H    0.112043
    71  H    0.081126
    72  H    0.121367
    73  H    0.308352
    74  H    0.299427
    75  H    0.069719
    76  H    0.084682
    77  H    0.115178
    78  H    0.108019
    79  H    0.131536
    80  H    0.097968
    81  H    0.112592
    82  H    0.105987
    83  H    0.073077
    84  H    0.060157
    85  H    0.098850
    86  H    0.069677
    87  H    0.081029
    88  H    0.093426
    89  H    0.108852
    90  H    0.116606
    91  H    0.113740
    92  H    0.095860
    93  H    0.135196
    94  H    0.121809
    95  H    0.062456
    96  H    0.072066
    97  H    0.078208
    98  H    0.091406
 Sum of Mulliken charges =  -0.00000

 Dipole moment (field-independent basis, Debye):
    X=              1.0209    Y=             -1.2316    Z=              1.5297  Tot=              2.2134
 Quadrupole moment (field-independent basis, Debye-Ang):
   XX=           -283.9990   YY=           -244.1410   ZZ=           -262.1189
   XY=              9.5704   XZ=              1.7539   YZ=              1.9069

 Normal termination of Gaussian 16 at Thu Jul 11 19:16:17 2019.
