 Gaussian 16, Revision A.03,
 Gaussian 16:  ES64L-G16RevA.03 25-Dec-2016

 -------------------------------------
 # td=(NStates=1) CAM-B3LYP/6-31G(d,p)
 -------------------------------------

 --
 TD
 --
 Symbolic Z-matrix:
 Charge =  0 Multiplicity = 1

                         Standard orientation:
 ---------------------------------------------------------------------
 Center     Atomic      Atomic             Coordinates (Angstroms)
 Number     Number       Type             X           Y           Z
 ---------------------------------------------------------------------
      1          8           0       14.703118   -2.259548   -0.446390
      2          8           0      -14.515972    2.068667    0.904531
      3          6           0       11.431141   -1.126888    1.119839
      4          6           0      -12.304701   -0.923661    0.841851
      5          6           0       12.931419   -1.451803    1.063476
      6          6           0      -13.618519   -0.093980    0.774708
      7          6           0       13.342237   -1.889527   -0.243831
      8          6           0      -13.205902    1.359691    0.727377
      9          6           0       10.905062   -0.337006   -0.019924
     10          6           0      -11.376159   -0.372753   -0.235265
     11          6           0       13.017873   -0.857333   -1.299693
     12          6           0      -12.674946    1.752674   -0.622675
     13          6           0       11.727713   -0.235366   -1.104017
     14          6           0      -11.533974    0.878170   -0.849747
     15          6           0       11.127096   -0.286759    2.478571
     16          6           0       10.697114   -2.425854    1.315678
     17          6           0      -11.684584   -0.739696    2.161588
     18          6           0      -12.622264   -2.356663    0.603725
     19          6           0        9.591055    0.256692    0.092048
     20          6           0      -10.144367   -1.209782   -0.491192
     21          6           0       11.256209    0.578738   -2.285584
     22          6           0      -10.768398    1.312498   -2.034808
     23          6           0        9.313815    1.618330   -0.005489
     24          6           0       -8.887250   -0.748349   -0.282888
     25          6           0        8.041628    2.310711    0.242930
     26          6           0       -7.598931   -1.324432   -0.493218
     27          6           0        8.042173    3.751138    0.500865
     28          6           0       -7.439148   -2.852346   -0.827868
     29          6           0        6.913670    1.564756   -0.022286
     30          6           0       -6.508810   -0.600479   -0.158385
     31          6           0        5.595696    1.926009    0.176065
     32          6           0       -5.129002   -1.047929   -0.344012
     33          6           0        4.444035    1.221888   -0.182086
     34          6           0       -4.015766   -0.331207   -0.276630
     35          6           0        3.073271    1.691469    0.023259
     36          6           0       -2.685018   -0.713905   -0.431060
     37          6           0        2.856574    3.099235    0.546508
     38          6           0       -2.474860   -2.259122   -0.764464
     39          6           0        2.078905    0.728005   -0.203962
     40          6           0       -1.704281    0.230161   -0.269834
     41          6           0        0.702599    0.953324   -0.150038
     42          6           0       -0.365465    0.008391   -0.416441
     43          1           0       13.423612   -0.570985    1.536768
     44          1           0       13.145360   -2.365059    1.673792
     45          1           0      -14.311224   -0.234368    1.730283
     46          1           0      -14.459442   -0.500183   -0.025324
     47          1           0       12.632638   -2.722652   -0.711351
     48          1           0      -12.555719    1.611998    1.523092
     49          1           0       13.712883   -0.000704   -1.265928
     50          1           0       13.113016   -1.331123   -2.344285
     51          1           0      -13.435030    1.509770   -1.512140
     52          1           0      -12.262042    2.783206   -0.771489
     53          1           0       11.578869   -0.872716    3.518130
     54          1           0       10.162152   -0.169215    2.606169
     55          1           0       11.642422    0.675287    2.366412
     56          1           0       10.572753   -3.054044    0.408989
     57          1           0       10.813575   -3.026810    2.195448
     58          1           0        9.876544   -2.252306    1.603752
     59          1           0      -11.684013    0.295453    2.460996
     60          1           0      -10.643768   -1.154400    2.126256
     61          1           0      -12.186263   -1.106127    3.097978
     62          1           0      -13.522825   -2.587443    1.080987
     63          1           0      -11.725747   -3.027001    0.498648
     64          1           0      -13.330468   -2.548043   -0.584057
     65          1           0        8.980213   -0.346497    0.580384
     66          1           0      -10.535454   -2.221482   -0.800871
     67          1           0       10.150369    0.689253   -2.222723
     68          1           0       11.651177    1.769319   -2.342931
     69          1           0       11.242223    0.095681   -3.059223
     70          1           0      -11.335318    1.496553   -3.009693
     71          1           0       -9.943648    0.479728   -2.310152
     72          1           0      -10.198955    2.412939   -1.878103
     73          1           0       14.915835   -2.911409    0.123924
     74          1           0      -14.901771    1.766270    1.709988
     75          1           0       10.188991    2.151596   -0.231321
     76          1           0       -8.910383    0.383482    0.075164
     77          1           0        8.651573    4.408305   -0.230692
     78          1           0        6.948073    4.223673    0.543860
     79          1           0        8.508005    3.818301    1.311269
     80          1           0       -8.338510   -3.434348   -0.167157
     81          1           0       -7.826055   -2.870676   -1.837356
     82          1           0       -6.552771   -3.312991   -0.703144
     83          1           0        7.030485    0.474071   -0.512962
     84          1           0       -6.763827    0.372214    0.055827
     85          1           0        5.626972    3.028836    0.577059
     86          1           0       -4.869664   -2.157762   -0.697707
     87          1           0        4.642300    0.238537   -0.516488
     88          1           0       -4.175456    0.532008    0.225969
     89          1           0        3.371103    3.093538    1.512868
     90          1           0        1.827073    3.445547    0.825146
     91          1           0        3.260393    3.932419   -0.145860
     92          1           0       -3.229077   -2.875882   -0.133889
     93          1           0       -2.859805   -2.321566   -1.905295
     94          1           0       -1.362399   -2.584893   -0.503526
     95          1           0        2.309964   -0.203760   -0.605397
     96          1           0       -2.028661    1.329434   -0.124476
     97          1           0        0.320424    1.782111    0.403847
     98          1           0        0.070464   -0.850283   -0.803143
 ---------------------------------------------------------------------

 SCF Done:  E(RCAM-B3LYP) =  -1706.85260245     A.U. after   15 cycles

 Excitation energies and oscillator strengths:

 Excited State   1:      Singlet-A      2.2417 eV  553.07 nm  f=3.7095  <S**2>=0.000
     155 ->158        -0.14945
     156 ->157         0.69093
 This state for optimization and/or second-order correction.
 Total Energy, E(TD-HF/TD-DFT) =  -1706.77022035
 Copying the excited state density for this state as the 1-particle RhoCI density.

 The electronic state is 1-A.
 Alpha  occ. eigenvalues --  -19.20591 -19.19199 -10.30386 -10.30338 -10.28854
 Alpha  occ. eigenvalues --  -10.28682 -10.27801 -10.27502 -10.27475 -10.27416
 Alpha  occ. eigenvalues --  -10.27329 -10.27309 -10.27250 -10.27050 -10.27020
 Alpha  occ. eigenvalues --  -10.26902 -10.26887 -10.26760 -10.26757 -10.26730
 Alpha  occ. eigenvalues --  -10.26698 -10.26642 -10.26574 -10.26533 -10.26423
 Alpha  occ. eigenvalues --  -10.26351 -10.26190 -10.26038 -10.26019 -10.25998
 Alpha  occ. eigenvalues --  -10.25972 -10.25903 -10.25835 -10.25398 -10.25366
 Alpha  occ. eigenvalues --  -10.25295 -10.24987 -10.24774 -10.24703 -10.24210
 Alpha  occ. eigenvalues --  -10.23614 -10.21808  -1.10780  -1.06827  -0.94805
 Alpha  occ. eigenvalues --   -0.94649  -0.92358  -0.91938  -0.90854  -0.90129
 Alpha  occ. eigenvalues --   -0.88429  -0.87639  -0.87280  -0.86367  -0.85013
 Alpha  occ. eigenvalues --   -0.83731  -0.81738  -0.81392  -0.79919  -0.78250
 Alpha  occ. eigenvalues --   -0.78126  -0.76931  -0.76811  -0.76518  -0.76329
 Alpha  occ. eigenvalues --   -0.75720  -0.75091  -0.74422  -0.73719  -0.71355
 Alpha  occ. eigenvalues --   -0.69514  -0.67705  -0.66161  -0.65352  -0.64803
 Alpha  occ. eigenvalues --   -0.63786  -0.63383  -0.62177  -0.60944  -0.59828
 Alpha  occ. eigenvalues --   -0.59346  -0.58907  -0.58332  -0.57926  -0.56059
 Alpha  occ. eigenvalues --   -0.55846  -0.55196  -0.54951  -0.54633  -0.53851
 Alpha  occ. eigenvalues --   -0.53472  -0.53175  -0.52798  -0.52553  -0.51103
 Alpha  occ. eigenvalues --   -0.50551  -0.50324  -0.50034  -0.50006  -0.49545
 Alpha  occ. eigenvalues --   -0.49201  -0.49069  -0.48979  -0.48736  -0.48221
 Alpha  occ. eigenvalues --   -0.47847  -0.47769  -0.47430  -0.47101  -0.46787
 Alpha  occ. eigenvalues --   -0.45974  -0.45554  -0.45240  -0.45216  -0.45134
 Alpha  occ. eigenvalues --   -0.44929  -0.44258  -0.44164  -0.44057  -0.43528
 Alpha  occ. eigenvalues --   -0.43071  -0.42889  -0.42338  -0.42194  -0.41812
 Alpha  occ. eigenvalues --   -0.41751  -0.41373  -0.41283  -0.40911  -0.40693
 Alpha  occ. eigenvalues --   -0.40180  -0.39980  -0.39620  -0.39429  -0.39179
 Alpha  occ. eigenvalues --   -0.38778  -0.38739  -0.38469  -0.38141  -0.37805
 Alpha  occ. eigenvalues --   -0.37548  -0.36910  -0.36798  -0.36229  -0.35779
 Alpha  occ. eigenvalues --   -0.35251  -0.34558  -0.33789  -0.32723  -0.32361
 Alpha  occ. eigenvalues --   -0.31397  -0.29396  -0.28062  -0.26227  -0.23990
 Alpha  occ. eigenvalues --   -0.19611
 Alpha virt. eigenvalues --   -0.05914  -0.00995   0.02194   0.05542   0.06748
 Alpha virt. eigenvalues --    0.08893   0.10571   0.10865   0.11983   0.12242
 Alpha virt. eigenvalues --    0.12715   0.12754   0.12981   0.13202   0.13490

 Mulliken charges:
               1
     1  O   -0.546813
     2  O   -0.586310
     3  C   -0.055857
     4  C    0.019276
     5  C   -0.166194
     6  C   -0.195369
     7  C    0.166864
     8  C    0.161033
     9  C    0.091739
    10  C    0.032791
    11  C   -0.214936
    12  C   -0.188810
    13  C    0.025726
    14  C    0.076597
    15  C   -0.301029
    16  C   -0.277761
    17  C   -0.294906
    18  C   -0.287356
    19  C   -0.112880
    20  C   -0.170477
    21  C   -0.335624
    22  C   -0.357545
    23  C   -0.097951
    24  C   -0.096966
    25  C    0.071651
    26  C    0.118668
    27  C   -0.356066
    28  C   -0.339993
    29  C   -0.099819
    30  C   -0.117585
    31  C   -0.076272
    32  C   -0.109700
    33  C   -0.125538
    34  C   -0.081284
    35  C    0.109553
    36  C    0.107863
    37  C   -0.373263
    38  C   -0.362505
    39  C   -0.117876
    40  C   -0.124817
    41  C   -0.095312
    42  C   -0.088719
    43  H    0.099268
    44  H    0.082749
    45  H    0.059390
    46  H    0.095620
    47  H    0.065329
    48  H    0.108754
    49  H    0.116048
    50  H    0.104283
    51  H    0.116148
    52  H    0.108147
    53  H    0.059704
    54  H    0.118334
    55  H    0.103796
    56  H    0.095384
    57  H    0.090092
    58  H    0.098154
    59  H    0.099368
    60  H    0.110623
    61  H    0.095225
    62  H    0.126187
    63  H    0.111796
    64  H    0.018379
    65  H    0.081726
    66  H    0.100388
    67  H    0.108454
    68  H    0.081659
    69  H    0.109341
    70  H    0.112280
    71  H    0.103113
    72  H    0.075077
    73  H    0.291057
    74  H    0.291241
    75  H    0.084912
    76  H    0.090297
    77  H    0.116555
    78  H    0.101892
    79  H    0.143243
    80  H    0.080755
    81  H    0.128531
    82  H    0.124595
    83  H    0.074658
    84  H    0.079373
    85  H    0.060627
    86  H    0.058279
    87  H    0.086869
    88  H    0.075255
    89  H    0.131919
    90  H    0.113727
    91  H    0.119315
    92  H    0.118853
    93  H    0.120102
    94  H    0.109140
    95  H    0.080898
    96  H    0.090474
    97  H    0.072005
    98  H    0.074384
 Sum of Mulliken charges =  -0.00000

 Dipole moment (field-independent basis, Debye):
    X=              0.6362    Y=             -1.0567    Z=              2.3038  Tot=              2.6132
 Quadrupole moment (field-independent basis, Debye-Ang):
   XX=           -300.3928   YY=           -246.9339   ZZ=           -259.7936
   XY=             18.2812   XZ=              2.6415   YZ=              2.0947

 Normal termination of Gaussian 16 at Fri Jun 28 09:30:55 2019.
