 Gaussian 16, Revision A.03,
 Gaussian 16:  ES64L-G16RevA.03 25-Dec-2016

 -------------------------------------
 # td=(NStates=1) CAM-B3LYP/6-31G(d,p)
 -------------------------------------

 --
 TD
 --
 Symbolic Z-matrix:
 Charge =  0 Multiplicity = 1

                         Standard orientation:
 ---------------------------------------------------------------------
 Center     Atomic      Atomic             Coordinates (Angstroms)
 Number     Number       Type             X           Y           Z
 ---------------------------------------------------------------------
      1          8           0       14.681537   -2.153482   -0.306083
      2          8           0      -14.704959    2.086388    0.937051
      3          6           0       11.422190   -1.136225    1.319487
      4          6           0      -12.265656   -0.961149    0.732382
      5          6           0       12.898011   -1.455176    1.101057
      6          6           0      -13.643535   -0.149546    0.730635
      7          6           0       13.267574   -1.917859   -0.267209
      8          6           0      -13.516025    1.344587    0.931484
      9          6           0       11.035811   -0.326206   -0.016103
     10          6           0      -11.324990   -0.267841   -0.153617
     11          6           0       13.061652   -0.875651   -1.293588
     12          6           0      -12.678238    1.832431   -0.216362
     13          6           0       11.726649   -0.212339   -1.133772
     14          6           0      -11.578093    0.927263   -0.710750
     15          6           0       11.274783   -0.267126    2.508720
     16          6           0       10.603422   -2.358586    1.408431
     17          6           0      -11.741296   -1.015019    2.115805
     18          6           0      -12.572249   -2.481423    0.272402
     19          6           0        9.677943    0.425572    0.118810
     20          6           0      -10.144498   -1.037481   -0.519925
     21          6           0       11.178438    0.516648   -2.308588
     22          6           0      -10.721972    1.621422   -1.864898
     23          6           0        9.346519    1.655223   -0.209915
     24          6           0       -8.899546   -0.597613   -0.308047
     25          6           0        8.030306    2.263037    0.088959
     26          6           0       -7.698419   -1.201420   -0.605403
     27          6           0        8.194148    3.798312    0.436368
     28          6           0       -7.661951   -2.699349   -1.079915
     29          6           0        6.839797    1.538910   -0.173246
     30          6           0       -6.467090   -0.621444   -0.352029
     31          6           0        5.548959    1.984524    0.085611
     32          6           0       -5.069998   -1.091674   -0.511016
     33          6           0        4.461628    1.096005    0.009654
     34          6           0       -3.997915   -0.335430   -0.241566
     35          6           0        3.041459    1.550745    0.165158
     36          6           0       -2.655625   -0.752395   -0.377449
     37          6           0        2.874626    3.005012    0.431618
     38          6           0       -2.352185   -2.069121   -0.954826
     39          6           0        2.100556    0.583096   -0.063431
     40          6           0       -1.621790    0.069117   -0.042222
     41          6           0        0.629331    0.794973   -0.014306
     42          6           0       -0.274061   -0.174790   -0.326889
     43          1           0       13.490577   -0.632960    1.506204
     44          1           0       13.024930   -2.313605    1.958343
     45          1           0      -14.382299   -0.629985    1.443062
     46          1           0      -14.113772   -0.594426   -0.160623
     47          1           0       12.725076   -2.768855   -0.514812
     48          1           0      -13.027953    1.406214    1.784589
     49          1           0       13.858061   -0.024180   -1.092449
     50          1           0       13.200492   -1.225346   -2.378856
     51          1           0      -13.415757    1.989378   -1.167836
     52          1           0      -12.369976    2.822418   -0.155490
     53          1           0       11.951482   -0.631430    3.244576
     54          1           0       10.201588   -0.030684    2.939292
     55          1           0       11.932589    0.663676    2.069285
     56          1           0       10.742015   -2.947850    0.575987
     57          1           0       10.766715   -2.957128    2.366392
     58          1           0        9.562998   -2.117338    1.382487
     59          1           0      -11.473589   -0.090563    2.454906
     60          1           0      -10.854419   -1.722781    1.987065
     61          1           0      -12.401842   -1.561254    2.830486
     62          1           0      -13.375610   -2.872170    0.724538
     63          1           0      -11.768560   -3.098559    0.581298
     64          1           0      -12.621096   -2.607482   -0.642900
     65          1           0        9.191654   -0.195618    0.583050
     66          1           0      -10.427657   -2.186341   -0.525916
     67          1           0       10.239538    0.868860   -2.176539
     68          1           0       11.672635    1.421919   -2.597734
     69          1           0       11.374290   -0.135824   -3.325404
     70          1           0      -11.493866    1.968700   -2.600623
     71          1           0      -10.034349    0.781305   -2.177254
     72          1           0      -10.299714    2.476488   -1.486668
     73          1           0       14.932656   -2.643254    0.437635
     74          1           0      -15.190291    1.608762    1.611077
     75          1           0       10.214669    2.284064   -0.647283
     76          1           0       -8.617734    0.405457   -0.065750
     77          1           0        8.725361    4.285154   -0.453633
     78          1           0        7.228014    4.158448    0.346066
     79          1           0        8.686416    3.814898    1.296767
     80          1           0       -7.641497   -3.112593    0.046698
     81          1           0       -8.598653   -2.902313   -1.683737
     82          1           0       -6.560841   -3.035650   -1.530196
     83          1           0        6.904780    0.508823   -0.562942
     84          1           0       -6.557426    0.384879   -0.022046
     85          1           0        5.246404    3.109580    0.260645
     86          1           0       -4.952415   -2.134852   -1.037763
     87          1           0        4.665387   -0.045677   -0.050610
     88          1           0       -4.186076    0.721021    0.077722
     89          1           0        3.726341    3.660553    1.154182
     90          1           0        1.788371    3.039054    1.070051
     91          1           0        2.892776    3.660857   -0.668430
     92          1           0       -2.924185   -2.990834   -0.449775
     93          1           0       -2.818315   -2.213207   -1.959694
     94          1           0       -1.403203   -2.432847   -1.337184
     95          1           0        2.444104   -0.387257   -0.461710
     96          1           0       -1.912333    1.096217    0.318046
     97          1           0        0.149975    1.798586    0.262619
     98          1           0        0.098895   -1.167791   -0.696012
 ---------------------------------------------------------------------

 SCF Done:  E(RCAM-B3LYP) =  -1706.93531971     A.U. after   14 cycles

 Excitation energies and oscillator strengths:

 Excited State   1:      Singlet-A      2.6252 eV  472.28 nm  f=3.7744  <S**2>=0.000
     155 ->158        -0.17997
     156 ->157         0.67937
 This state for optimization and/or second-order correction.
 Total Energy, E(TD-HF/TD-DFT) =  -1706.83884460
 Copying the excited state density for this state as the 1-particle RhoCI density.

 The electronic state is 1-A.
 Alpha  occ. eigenvalues --  -19.21517 -19.20211 -10.30822 -10.29807 -10.29244
 Alpha  occ. eigenvalues --  -10.28108 -10.28071 -10.27746 -10.27245 -10.27242
 Alpha  occ. eigenvalues --  -10.27190 -10.27187 -10.27114 -10.27049 -10.26928
 Alpha  occ. eigenvalues --  -10.26825 -10.26800 -10.26441 -10.26368 -10.26331
 Alpha  occ. eigenvalues --  -10.26317 -10.26296 -10.26169 -10.26148 -10.26147
 Alpha  occ. eigenvalues --  -10.26083 -10.26005 -10.25889 -10.25822 -10.25703
 Alpha  occ. eigenvalues --  -10.25466 -10.25293 -10.25146 -10.24986 -10.24945
 Alpha  occ. eigenvalues --  -10.24929 -10.24730 -10.24279 -10.24097 -10.23811
 Alpha  occ. eigenvalues --  -10.23784 -10.22478  -1.10928  -1.09733  -0.94338
 Alpha  occ. eigenvalues --   -0.94246  -0.92518  -0.91026  -0.90671  -0.89564
 Alpha  occ. eigenvalues --   -0.88281  -0.87287  -0.86737  -0.85622  -0.84849
 Alpha  occ. eigenvalues --   -0.83218  -0.82113  -0.80581  -0.79755  -0.78551
 Alpha  occ. eigenvalues --   -0.77771  -0.77543  -0.76214  -0.76060  -0.75443
 Alpha  occ. eigenvalues --   -0.75293  -0.75196  -0.74328  -0.73729  -0.70771
 Alpha  occ. eigenvalues --   -0.69566  -0.67782  -0.66276  -0.65628  -0.64853
 Alpha  occ. eigenvalues --   -0.63503  -0.62599  -0.61450  -0.60260  -0.59548
 Alpha  occ. eigenvalues --   -0.59364  -0.59246  -0.58593  -0.57323  -0.56297
 Alpha  occ. eigenvalues --   -0.55898  -0.55252  -0.54983  -0.54015  -0.53563
 Alpha  occ. eigenvalues --   -0.53217  -0.53107  -0.52720  -0.52000  -0.51482
 Alpha  occ. eigenvalues --   -0.51106  -0.50904  -0.50436  -0.49914  -0.49406
 Alpha  occ. eigenvalues --   -0.49265  -0.48755  -0.48095  -0.48017  -0.47826
 Alpha  occ. eigenvalues --   -0.47423  -0.47038  -0.46691  -0.46648  -0.46375
 Alpha  occ. eigenvalues --   -0.46250  -0.46055  -0.45630  -0.45292  -0.45156
 Alpha  occ. eigenvalues --   -0.44973  -0.44597  -0.44114  -0.43750  -0.43625
 Alpha  occ. eigenvalues --   -0.43326  -0.42878  -0.42326  -0.42251  -0.41963
 Alpha  occ. eigenvalues --   -0.41748  -0.41545  -0.41363  -0.40845  -0.40817
 Alpha  occ. eigenvalues --   -0.40603  -0.40327  -0.39715  -0.39649  -0.39151
 Alpha  occ. eigenvalues --   -0.39123  -0.38925  -0.38500  -0.38468  -0.38116
 Alpha  occ. eigenvalues --   -0.37478  -0.37135  -0.36595  -0.36181  -0.35247
 Alpha  occ. eigenvalues --   -0.35062  -0.34693  -0.33791  -0.32744  -0.32558
 Alpha  occ. eigenvalues --   -0.32337  -0.29586  -0.28301  -0.26457  -0.23528
 Alpha  occ. eigenvalues --   -0.20436
 Alpha virt. eigenvalues --   -0.04510  -0.00658   0.02935   0.06238   0.08206
 Alpha virt. eigenvalues --    0.09689   0.10612   0.11295   0.11444   0.11582
 Alpha virt. eigenvalues --    0.12414   0.12649   0.12918   0.13499   0.13630

 Mulliken charges:
               1
     1  O   -0.560348
     2  O   -0.543681
     3  C    0.005404
     4  C   -0.059452
     5  C   -0.213118
     6  C   -0.221172
     7  C    0.191542
     8  C    0.193481
     9  C   -0.022106
    10  C    0.091433
    11  C   -0.212585
    12  C   -0.225880
    13  C    0.081410
    14  C    0.036214
    15  C   -0.292180
    16  C   -0.295886
    17  C   -0.270657
    18  C   -0.321304
    19  C   -0.021556
    20  C   -0.190055
    21  C   -0.363239
    22  C   -0.348364
    23  C   -0.122304
    24  C   -0.046670
    25  C    0.010806
    26  C    0.099237
    27  C   -0.342128
    28  C   -0.349984
    29  C   -0.111099
    30  C   -0.142266
    31  C   -0.072019
    32  C   -0.081298
    33  C   -0.134828
    34  C   -0.110769
    35  C    0.142722
    36  C    0.159910
    37  C   -0.348959
    38  C   -0.403228
    39  C   -0.139926
    40  C   -0.144820
    41  C   -0.099211
    42  C   -0.060517
    43  H    0.104869
    44  H    0.053882
    45  H    0.056657
    46  H    0.098717
    47  H    0.094447
    48  H    0.089547
    49  H    0.110215
    50  H    0.100793
    51  H    0.091364
    52  H    0.111847
    53  H    0.107520
    54  H    0.104245
    55  H    0.085421
    56  H    0.110753
    57  H    0.091540
    58  H    0.106741
    59  H    0.108839
    60  H    0.089180
    61  H    0.091976
    62  H    0.109195
    63  H    0.102844
    64  H    0.119128
    65  H    0.041403
    66  H    0.079405
    67  H    0.129451
    68  H    0.112658
    69  H    0.076248
    70  H    0.106507
    71  H    0.119704
    72  H    0.124915
    73  H    0.294117
    74  H    0.302414
    75  H    0.089005
    76  H    0.085296
    77  H    0.113182
    78  H    0.115702
    79  H    0.141560
    80  H    0.117068
    81  H    0.115933
    82  H    0.092639
    83  H    0.092424
    84  H    0.063998
    85  H    0.079431
    86  H    0.073709
    87  H    0.081076
    88  H    0.087797
    89  H    0.097333
    90  H    0.093072
    91  H    0.109700
    92  H    0.102170
    93  H    0.116049
    94  H    0.117856
    95  H    0.092282
    96  H    0.078452
    97  H    0.085708
    98  H    0.091467
 Sum of Mulliken charges =  -0.00000

 Dipole moment (field-independent basis, Debye):
    X=              0.1699    Y=             -1.2917    Z=              1.7870  Tot=              2.2115
 Quadrupole moment (field-independent basis, Debye-Ang):
   XX=           -278.0623   YY=           -247.3059   ZZ=           -260.6871
   XY=             18.3979   XZ=              2.1078   YZ=             -0.0514

 Normal termination of Gaussian 16 at Sun Jul  7 14:33:24 2019.
