 Gaussian 16, Revision A.03,
 Gaussian 16:  ES64L-G16RevA.03 25-Dec-2016

 -------------------------------------
 # td=(NStates=1) CAM-B3LYP/6-31G(d,p)
 -------------------------------------

 --
 TD
 --
 Symbolic Z-matrix:
 Charge =  0 Multiplicity = 1

                         Standard orientation:
 ---------------------------------------------------------------------
 Center     Atomic      Atomic             Coordinates (Angstroms)
 Number     Number       Type             X           Y           Z
 ---------------------------------------------------------------------
      1          8           0       14.651796   -2.421623   -0.428837
      2          8           0      -14.733369    2.076020    0.764993
      3          6           0       11.494629   -1.168970    1.189735
      4          6           0      -12.359377   -0.864353    0.866878
      5          6           0       12.951341   -1.384707    1.034672
      6          6           0      -13.743252   -0.202265    0.752302
      7          6           0       13.321764   -2.012204   -0.366480
      8          6           0      -13.491870    1.314989    0.704462
      9          6           0       10.939598   -0.384141   -0.054133
     10          6           0      -11.274332   -0.349673   -0.123655
     11          6           0       12.984807   -0.905211   -1.336131
     12          6           0      -12.860288    1.584916   -0.682573
     13          6           0       11.653634   -0.254915   -1.198558
     14          6           0      -11.656053    0.778924   -0.949574
     15          6           0       11.330285   -0.162108    2.447998
     16          6           0       10.672592   -2.352325    1.438871
     17          6           0      -11.699221   -0.803434    2.306790
     18          6           0      -12.643362   -2.406779    0.478018
     19          6           0        9.676788    0.230740    0.220222
     20          6           0      -10.098863   -1.140951   -0.307575
     21          6           0       11.213421    0.641682   -2.371354
     22          6           0      -10.845450    1.297019   -2.062014
     23          6           0        9.345414    1.518424    0.018058
     24          6           0       -8.880810   -0.542970   -0.218467
     25          6           0        8.088461    2.278041    0.106550
     26          6           0       -7.574435   -1.304342   -0.454682
     27          6           0        8.199299    3.735384    0.475511
     28          6           0       -7.624814   -2.753565   -0.715514
     29          6           0        6.884520    1.701860   -0.035497
     30          6           0       -6.482276   -0.623913   -0.424719
     31          6           0        5.549081    2.224552    0.226592
     32          6           0       -5.107728   -1.081167   -0.517963
     33          6           0        4.556362    1.308937   -0.035086
     34          6           0       -4.015655   -0.291659   -0.286665
     35          6           0        3.112598    1.684379    0.176417
     36          6           0       -2.605726   -0.686694   -0.453014
     37          6           0        2.698666    3.104428    0.611696
     38          6           0       -2.311154   -2.276187   -0.768848
     39          6           0        2.176503    0.697502   -0.132712
     40          6           0       -1.594773    0.139914   -0.284894
     41          6           0        0.701645    0.875195    0.106013
     42          6           0       -0.231028   -0.042045   -0.356792
     43          1           0       13.401471   -0.539596    1.265359
     44          1           0       13.232586   -2.192416    1.692881
     45          1           0      -14.523291   -0.578664    1.792170
     46          1           0      -14.134391   -0.374113   -0.296209
     47          1           0       12.655580   -2.871328   -0.773872
     48          1           0      -12.886393    1.789021    1.384214
     49          1           0       13.882046   -0.133860   -1.238398
     50          1           0       13.234568   -1.300833   -2.334184
     51          1           0      -13.555083    1.391295   -1.508086
     52          1           0      -12.592739    2.678582   -0.812428
     53          1           0       11.632257   -0.862713    3.282235
     54          1           0       10.315159    0.319406    2.583204
     55          1           0       11.971620    0.658411    2.223119
     56          1           0       10.949452   -3.075467    0.603604
     57          1           0       11.025658   -2.617917    2.234722
     58          1           0        9.584906   -2.350221    1.421715
     59          1           0      -11.548106    0.305058    2.684798
     60          1           0      -10.766852   -1.377261    2.323294
     61          1           0      -12.364495   -1.459274    2.820971
     62          1           0      -13.432657   -2.584293    1.268033
     63          1           0      -11.724811   -2.922321    0.515186
     64          1           0      -12.865942   -2.572988   -0.602721
     65          1           0        8.822688   -0.583295    0.576012
     66          1           0      -10.244888   -2.095073   -0.459029
     67          1           0       10.141290    0.632878   -2.338716
     68          1           0       11.487142    1.615072   -2.520824
     69          1           0       11.372836   -0.045851   -3.426139
     70          1           0      -11.335479    1.500716   -2.975380
     71          1           0       -9.823337    0.716306   -2.321662
     72          1           0      -10.312983    2.302468   -1.857003
     73          1           0       15.018233   -2.876451    0.328344
     74          1           0      -14.942176    2.257562    1.690388
     75          1           0       10.201820    2.273788   -0.401597
     76          1           0       -8.730857    0.564469   -0.144709
     77          1           0        8.801013    4.259244   -0.438722
     78          1           0        7.281718    4.200574    0.516874
     79          1           0        8.619391    4.160923    1.324579
     80          1           0       -7.920348   -3.440928    0.201780
     81          1           0       -8.406521   -2.967411   -1.564174
     82          1           0       -6.650200   -3.109584   -1.226896
     83          1           0        6.808734    0.688082   -0.442783
     84          1           0       -6.739601    0.361227   -0.179531
     85          1           0        5.587257    3.248794    0.548125
     86          1           0       -4.948323   -2.138321   -0.453826
     87          1           0        4.701977    0.365026   -0.489014
     88          1           0       -4.196358    0.691763   -0.084927
     89          1           0        3.197535    3.297928    1.644070
     90          1           0        1.604921    3.033906    0.876267
     91          1           0        3.109289    3.707172   -0.152129
     92          1           0       -2.634508   -2.691982    0.363859
     93          1           0       -3.151434   -2.594262   -1.510575
     94          1           0       -1.305797   -2.297305   -1.226766
     95          1           0        2.508034   -0.312545   -0.523761
     96          1           0       -1.839321    1.127139   -0.091331
     97          1           0        0.268748    1.901295    0.441829
     98          1           0        0.105910   -1.050854   -1.044792
 ---------------------------------------------------------------------

 SCF Done:  E(RCAM-B3LYP) =  -1706.94529492     A.U. after   14 cycles

 Excitation energies and oscillator strengths:

 Excited State   1:      Singlet-A      2.9236 eV  424.08 nm  f=3.5940  <S**2>=0.000
     155 ->158        -0.17010
     156 ->157         0.67615
 This state for optimization and/or second-order correction.
 Total Energy, E(TD-HF/TD-DFT) =  -1706.83785523
 Copying the excited state density for this state as the 1-particle RhoCI density.

 The electronic state is 1-A.
 Alpha  occ. eigenvalues --  -19.21010 -19.20074 -10.30900 -10.29932 -10.28298
 Alpha  occ. eigenvalues --  -10.28183 -10.27982 -10.27926 -10.27864 -10.27742
 Alpha  occ. eigenvalues --  -10.27530 -10.27484 -10.27366 -10.27244 -10.27039
 Alpha  occ. eigenvalues --  -10.27013 -10.26980 -10.26904 -10.26819 -10.26814
 Alpha  occ. eigenvalues --  -10.26788 -10.26740 -10.26545 -10.26453 -10.26400
 Alpha  occ. eigenvalues --  -10.26240 -10.26166 -10.25432 -10.25431 -10.25384
 Alpha  occ. eigenvalues --  -10.25360 -10.25313 -10.25270 -10.25165 -10.25151
 Alpha  occ. eigenvalues --  -10.25065 -10.25037 -10.24722 -10.24680 -10.24604
 Alpha  occ. eigenvalues --  -10.23880 -10.22477  -1.09879  -1.07624  -0.94055
 Alpha  occ. eigenvalues --   -0.93134  -0.92026  -0.91385  -0.90862  -0.89252
 Alpha  occ. eigenvalues --   -0.87408  -0.86926  -0.86461  -0.85692  -0.84911
 Alpha  occ. eigenvalues --   -0.83278  -0.81321  -0.80152  -0.79960  -0.77624
 Alpha  occ. eigenvalues --   -0.77288  -0.76390  -0.76106  -0.75686  -0.75479
 Alpha  occ. eigenvalues --   -0.74870  -0.74586  -0.74282  -0.73612  -0.70848
 Alpha  occ. eigenvalues --   -0.69338  -0.67906  -0.66466  -0.64915  -0.63812
 Alpha  occ. eigenvalues --   -0.63245  -0.62385  -0.61692  -0.60398  -0.59841
 Alpha  occ. eigenvalues --   -0.59331  -0.59024  -0.58090  -0.57479  -0.56323
 Alpha  occ. eigenvalues --   -0.55961  -0.55435  -0.54959  -0.54654  -0.54205
 Alpha  occ. eigenvalues --   -0.53489  -0.52406  -0.51989  -0.51588  -0.51187
 Alpha  occ. eigenvalues --   -0.50258  -0.50162  -0.49616  -0.49464  -0.49329
 Alpha  occ. eigenvalues --   -0.48924  -0.48523  -0.48437  -0.48264  -0.48012
 Alpha  occ. eigenvalues --   -0.47661  -0.47445  -0.47343  -0.46637  -0.46473
 Alpha  occ. eigenvalues --   -0.46034  -0.45447  -0.45429  -0.45112  -0.45036
 Alpha  occ. eigenvalues --   -0.44461  -0.44325  -0.44077  -0.43902  -0.43749
 Alpha  occ. eigenvalues --   -0.43560  -0.43185  -0.42410  -0.42200  -0.42038
 Alpha  occ. eigenvalues --   -0.41878  -0.41689  -0.41557  -0.41081  -0.40657
 Alpha  occ. eigenvalues --   -0.40167  -0.40102  -0.39917  -0.39475  -0.39132
 Alpha  occ. eigenvalues --   -0.38833  -0.38573  -0.38219  -0.37931  -0.37436
 Alpha  occ. eigenvalues --   -0.37056  -0.36854  -0.36327  -0.36145  -0.35797
 Alpha  occ. eigenvalues --   -0.34706  -0.33820  -0.32955  -0.31990  -0.31895
 Alpha  occ. eigenvalues --   -0.31232  -0.29290  -0.27773  -0.25967  -0.24274
 Alpha  occ. eigenvalues --   -0.21441
 Alpha virt. eigenvalues --   -0.03927  -0.00126   0.02926   0.05349   0.07338
 Alpha virt. eigenvalues --    0.09299   0.09995   0.10574   0.10694   0.11681
 Alpha virt. eigenvalues --    0.12993   0.13050   0.13144   0.13415   0.13742

 Mulliken charges:
               1
     1  O   -0.571603
     2  O   -0.577760
     3  C   -0.035814
     4  C   -0.045028
     5  C   -0.186115
     6  C   -0.157444
     7  C    0.193540
     8  C    0.174467
     9  C    0.061340
    10  C    0.032945
    11  C   -0.226243
    12  C   -0.248540
    13  C    0.067434
    14  C    0.085266
    15  C   -0.311548
    16  C   -0.261680
    17  C   -0.290015
    18  C   -0.308495
    19  C   -0.133587
    20  C   -0.101109
    21  C   -0.357096
    22  C   -0.378925
    23  C   -0.089375
    24  C   -0.106733
    25  C    0.070147
    26  C    0.142957
    27  C   -0.363779
    28  C   -0.384784
    29  C   -0.112191
    30  C   -0.114904
    31  C   -0.067787
    32  C   -0.106285
    33  C   -0.111207
    34  C   -0.088655
    35  C    0.071401
    36  C    0.064394
    37  C   -0.349594
    38  C   -0.342830
    39  C   -0.125726
    40  C   -0.100008
    41  C   -0.122875
    42  C   -0.069943
    43  H    0.112812
    44  H    0.069810
    45  H    0.048518
    46  H    0.115305
    47  H    0.072315
    48  H    0.088859
    49  H    0.091734
    50  H    0.101938
    51  H    0.121173
    52  H    0.105612
    53  H    0.088762
    54  H    0.113322
    55  H    0.107770
    56  H    0.086140
    57  H    0.097364
    58  H    0.105360
    59  H    0.097376
    60  H    0.113025
    61  H    0.096448
    62  H    0.103306
    63  H    0.100235
    64  H    0.106823
    65  H    0.079464
    66  H    0.085533
    67  H    0.128889
    68  H    0.130337
    69  H    0.062011
    70  H    0.118222
    71  H    0.098044
    72  H    0.097304
    73  H    0.310652
    74  H    0.301093
    75  H    0.064788
    76  H    0.094517
    77  H    0.089072
    78  H    0.107430
    79  H    0.129786
    80  H    0.112319
    81  H    0.104572
    82  H    0.106714
    83  H    0.074473
    84  H    0.067145
    85  H    0.094247
    86  H    0.090422
    87  H    0.098328
    88  H    0.077574
    89  H    0.110619
    90  H    0.109484
    91  H    0.139861
    92  H    0.115215
    93  H    0.110908
    94  H    0.113817
    95  H    0.088314
    96  H    0.072879
    97  H    0.091954
    98  H    0.063794
 Sum of Mulliken charges =  -0.00000

 Dipole moment (field-independent basis, Debye):
    X=              0.1905    Y=              0.0131    Z=              2.2278  Tot=              2.2360
 Quadrupole moment (field-independent basis, Debye-Ang):
   XX=           -296.2927   YY=           -246.0448   ZZ=           -260.4458
   XY=              7.2547   XZ=              4.4746   YZ=              2.3459

 Normal termination of Gaussian 16 at Fri Jul  5 01:27:13 2019.
