 Gaussian 16, Revision A.03,
 Gaussian 16:  ES64L-G16RevA.03 25-Dec-2016

 -------------------------------------
 # td=(NStates=1) CAM-B3LYP/6-31G(d,p)
 -------------------------------------

 --
 TD
 --
 Symbolic Z-matrix:
 Charge =  0 Multiplicity = 1

                         Standard orientation:
 ---------------------------------------------------------------------
 Center     Atomic      Atomic             Coordinates (Angstroms)
 Number     Number       Type             X           Y           Z
 ---------------------------------------------------------------------
      1          8           0       14.736091   -2.259061   -0.347251
      2          8           0      -14.861828    1.982009    0.685608
      3          6           0       11.341625   -1.200637    1.158499
      4          6           0      -12.374590   -1.056439    0.705323
      5          6           0       12.932143   -1.432407    0.998529
      6          6           0      -13.787487   -0.203468    0.646073
      7          6           0       13.301308   -1.963684   -0.413158
      8          6           0      -13.604961    1.264531    0.635678
      9          6           0       10.885333   -0.366897   -0.102057
     10          6           0      -11.343295   -0.313403   -0.176407
     11          6           0       13.029139   -0.826213   -1.375613
     12          6           0      -12.781166    1.768258   -0.582920
     13          6           0       11.597814   -0.198464   -1.215668
     14          6           0      -11.531547    0.855847   -0.738149
     15          6           0       10.984494   -0.486831    2.426635
     16          6           0       10.593055   -2.504256    1.150269
     17          6           0      -11.877570   -1.010951    2.160874
     18          6           0      -12.647535   -2.392875    0.241803
     19          6           0        9.565406    0.296255    0.142472
     20          6           0      -10.092109   -1.040447   -0.395229
     21          6           0       11.173011    0.503493   -2.388411
     22          6           0      -10.642718    1.530398   -1.895264
     23          6           0        9.426496    1.618710    0.021674
     24          6           0       -8.784811   -0.608427   -0.301018
     25          6           0        8.163084    2.312116    0.115487
     26          6           0       -7.494075   -1.272617   -0.487226
     27          6           0        8.270521    3.755495    0.623899
     28          6           0       -7.666746   -2.726983   -0.858031
     29          6           0        7.022232    1.653174   -0.079401
     30          6           0       -6.473927   -0.578306   -0.273026
     31          6           0        5.533786    2.079355    0.160105
     32          6           0       -5.030035   -1.047788   -0.347674
     33          6           0        4.464102    1.250837    0.068549
     34          6           0       -3.961997   -0.243027   -0.162597
     35          6           0        3.161019    1.753826    0.196979
     36          6           0       -2.514741   -0.675690   -0.346637
     37          6           0        2.844030    3.197294    0.603387
     38          6           0       -2.442259   -2.098711   -0.702916
     39          6           0        2.196886    0.704343   -0.021136
     40          6           0       -1.499681    0.262963   -0.155304
     41          6           0        0.867632    0.877983    0.039479
     42          6           0       -0.138065    0.048695   -0.284260
     43          1           0       13.375589   -0.505208    1.107047
     44          1           0       13.310498   -2.216025    1.809424
     45          1           0      -14.431879   -0.685229    1.625627
     46          1           0      -14.209970   -0.584862   -0.376812
     47          1           0       12.589513   -2.784052   -0.472991
     48          1           0      -13.151621    1.833856    1.335523
     49          1           0       13.811659   -0.175393   -1.190291
     50          1           0       13.213325   -1.060691   -2.631033
     51          1           0      -13.417840    1.839477   -1.509222
     52          1           0      -12.504793    2.780459   -0.260826
     53          1           0       11.656727   -1.077480    3.258275
     54          1           0        9.857025   -0.458108    2.745829
     55          1           0       11.545207    0.647588    2.489459
     56          1           0       10.600131   -3.157015    0.208096
     57          1           0       11.050104   -3.213985    1.822099
     58          1           0        9.580378   -2.243228    1.338578
     59          1           0      -11.603942   -0.033390    2.455509
     60          1           0      -10.883108   -1.695009    2.172690
     61          1           0      -12.480686   -1.597258    2.857718
     62          1           0      -13.384366   -2.875314    0.917256
     63          1           0      -11.676467   -3.122201    0.555998
     64          1           0      -12.880894   -2.387184   -0.800143
     65          1           0        8.649880   -0.357120    0.592306
     66          1           0      -10.104824   -2.182687   -0.375684
     67          1           0       10.063179    0.678564   -2.468743
     68          1           0       11.836811    1.332572   -2.548614
     69          1           0       11.185246    0.001706   -3.342887
     70          1           0      -11.430321    1.650923   -2.776779
     71          1           0       -9.856654    0.864472   -2.057531
     72          1           0      -10.156533    2.323612   -1.533568
     73          1           0       14.898698   -2.981440    0.219935
     74          1           0      -15.188788    1.649637    1.459910
     75          1           0       10.327671    2.217867    0.031953
     76          1           0       -8.638348    0.511164   -0.035222
     77          1           0        8.759716    4.424002    0.046718
     78          1           0        7.203708    4.112287    0.603479
     79          1           0        8.702900    3.773568    1.547378
     80          1           0       -8.540201   -3.254192   -0.290475
     81          1           0       -8.045439   -2.849182   -1.820180
     82          1           0       -6.789340   -3.285154   -0.777991
     83          1           0        7.088714    0.624614   -0.511762
     84          1           0       -6.570836    0.387845    0.037719
     85          1           0        5.469005    3.105539    0.435850
     86          1           0       -5.021832   -2.158534   -0.466590
     87          1           0        4.832685    0.263059   -0.145568
     88          1           0       -4.145945    0.718503    0.236058
     89          1           0        3.365636    3.314171    1.466270
     90          1           0        1.707340    3.186521    0.882011
     91          1           0        3.305638    3.839860   -0.173308
     92          1           0       -2.866546   -2.869384   -0.033443
     93          1           0       -2.708429   -2.269135   -1.830890
     94          1           0       -1.478128   -2.566338   -0.665051
     95          1           0        2.483669   -0.234843   -0.360695
     96          1           0       -1.925979    1.162249   -0.005185
     97          1           0        0.566267    1.909714    0.480877
     98          1           0        0.079876   -0.968093   -0.746636
 ---------------------------------------------------------------------

 SCF Done:  E(RCAM-B3LYP) =  -1706.97691539     A.U. after   14 cycles

 Excitation energies and oscillator strengths:

 Excited State   1:      Singlet-A      2.6773 eV  463.09 nm  f=3.4934  <S**2>=0.000
     155 ->158        -0.13949
     156 ->157         0.68916
 This state for optimization and/or second-order correction.
 Total Energy, E(TD-HF/TD-DFT) =  -1706.87852502
 Copying the excited state density for this state as the 1-particle RhoCI density.

 The electronic state is 1-A.
 Alpha  occ. eigenvalues --  -19.21016 -19.19297 -10.30863 -10.28938 -10.28332
 Alpha  occ. eigenvalues --  -10.27958 -10.27958 -10.27855 -10.27660 -10.27641
 Alpha  occ. eigenvalues --  -10.26836 -10.26810 -10.26787 -10.26632 -10.26612
 Alpha  occ. eigenvalues --  -10.26605 -10.26536 -10.26494 -10.26448 -10.26251
 Alpha  occ. eigenvalues --  -10.26201 -10.26150 -10.26137 -10.26068 -10.25907
 Alpha  occ. eigenvalues --  -10.25901 -10.25856 -10.25854 -10.25773 -10.25689
 Alpha  occ. eigenvalues --  -10.25636 -10.25540 -10.25381 -10.25356 -10.25278
 Alpha  occ. eigenvalues --  -10.25263 -10.25145 -10.24695 -10.24580 -10.24277
 Alpha  occ. eigenvalues --  -10.24243 -10.24102  -1.09739  -1.08748  -0.93523
 Alpha  occ. eigenvalues --   -0.93494  -0.92420  -0.91971  -0.90790  -0.90151
 Alpha  occ. eigenvalues --   -0.87558  -0.87404  -0.86838  -0.85058  -0.84734
 Alpha  occ. eigenvalues --   -0.83310  -0.81838  -0.80974  -0.79849  -0.79198
 Alpha  occ. eigenvalues --   -0.77900  -0.77333  -0.76410  -0.76079  -0.75806
 Alpha  occ. eigenvalues --   -0.75559  -0.74741  -0.74459  -0.74174  -0.70665
 Alpha  occ. eigenvalues --   -0.68500  -0.67380  -0.65627  -0.64799  -0.63879
 Alpha  occ. eigenvalues --   -0.63082  -0.62238  -0.61550  -0.61208  -0.60854
 Alpha  occ. eigenvalues --   -0.59597  -0.59171  -0.58378  -0.57121  -0.56423
 Alpha  occ. eigenvalues --   -0.55649  -0.55314  -0.54696  -0.54466  -0.53876
 Alpha  occ. eigenvalues --   -0.53451  -0.53031  -0.52385  -0.51749  -0.51073
 Alpha  occ. eigenvalues --   -0.50864  -0.50399  -0.50247  -0.50125  -0.49699
 Alpha  occ. eigenvalues --   -0.49652  -0.49113  -0.49003  -0.48740  -0.48195
 Alpha  occ. eigenvalues --   -0.48044  -0.47580  -0.47344  -0.46512  -0.46478
 Alpha  occ. eigenvalues --   -0.46050  -0.45957  -0.45643  -0.45595  -0.45496
 Alpha  occ. eigenvalues --   -0.44718  -0.44679  -0.44417  -0.43986  -0.43948
 Alpha  occ. eigenvalues --   -0.43238  -0.42733  -0.42329  -0.42064  -0.41884
 Alpha  occ. eigenvalues --   -0.41353  -0.41339  -0.41161  -0.40623  -0.40404
 Alpha  occ. eigenvalues --   -0.40213  -0.40136  -0.39658  -0.39410  -0.39142
 Alpha  occ. eigenvalues --   -0.39131  -0.38597  -0.38386  -0.38110  -0.37991
 Alpha  occ. eigenvalues --   -0.37750  -0.37582  -0.37352  -0.36249  -0.35042
 Alpha  occ. eigenvalues --   -0.34290  -0.34086  -0.33753  -0.32458  -0.31812
 Alpha  occ. eigenvalues --   -0.31677  -0.30425  -0.28930  -0.26513  -0.24765
 Alpha  occ. eigenvalues --   -0.20422
 Alpha virt. eigenvalues --   -0.04552   0.00421   0.02535   0.06144   0.08769
 Alpha virt. eigenvalues --    0.10036   0.10789   0.11475   0.11891   0.12320
 Alpha virt. eigenvalues --    0.12494   0.13139   0.13518   0.13617   0.14175

 Mulliken charges:
               1
     1  O   -0.564293
     2  O   -0.564385
     3  C   -0.015276
     4  C   -0.015918
     5  C   -0.185539
     6  C   -0.185756
     7  C    0.161372
     8  C    0.170927
     9  C    0.050114
    10  C    0.109065
    11  C   -0.206952
    12  C   -0.227195
    13  C    0.078064
    14  C   -0.023096
    15  C   -0.275813
    16  C   -0.291989
    17  C   -0.288649
    18  C   -0.288007
    19  C   -0.141497
    20  C   -0.147514
    21  C   -0.380344
    22  C   -0.330563
    23  C   -0.082438
    24  C   -0.123609
    25  C    0.090663
    26  C    0.193596
    27  C   -0.364571
    28  C   -0.382925
    29  C   -0.153226
    30  C   -0.148439
    31  C   -0.113734
    32  C   -0.087463
    33  C   -0.067163
    34  C   -0.129260
    35  C    0.052822
    36  C    0.102047
    37  C   -0.354872
    38  C   -0.390761
    39  C   -0.093764
    40  C   -0.088621
    41  C   -0.062632
    42  C   -0.105400
    43  H    0.108440
    44  H    0.058242
    45  H    0.056519
    46  H    0.098656
    47  H    0.090349
    48  H    0.095722
    49  H    0.133378
    50  H    0.065489
    51  H    0.113557
    52  H    0.112209
    53  H    0.077429
    54  H    0.107207
    55  H    0.076223
    56  H    0.095317
    57  H    0.103662
    58  H    0.102774
    59  H    0.116813
    60  H    0.077916
    61  H    0.100288
    62  H    0.105036
    63  H    0.067003
    64  H    0.117083
    65  H    0.086201
    66  H    0.064201
    67  H    0.115976
    68  H    0.118093
    69  H    0.112701
    70  H    0.100654
    71  H    0.117243
    72  H    0.124256
    73  H    0.302932
    74  H    0.290816
    75  H    0.087742
    76  H    0.063127
    77  H    0.128025
    78  H    0.096235
    79  H    0.132092
    80  H    0.106468
    81  H    0.139235
    82  H    0.110331
    83  H    0.076016
    84  H    0.073903
    85  H    0.068579
    86  H    0.083854
    87  H    0.089148
    88  H    0.083620
    89  H    0.144340
    90  H    0.110256
    91  H    0.136292
    92  H    0.123303
    93  H    0.117686
    94  H    0.104454
    95  H    0.078670
    96  H    0.072090
    97  H    0.057303
    98  H    0.077844
 Sum of Mulliken charges =  -0.00000

 Dipole moment (field-independent basis, Debye):
    X=              1.2312    Y=             -1.6838    Z=              1.9130  Tot=              2.8303
 Quadrupole moment (field-independent basis, Debye-Ang):
   XX=           -302.0728   YY=           -242.8613   ZZ=           -260.7949
   XY=             18.5185   XZ=             -2.2397   YZ=              1.4676

 Normal termination of Gaussian 16 at Thu Jul 11 11:39:25 2019.
