 Gaussian 16, Revision A.03,
 Gaussian 16:  ES64L-G16RevA.03 25-Dec-2016

 -------------------------------------
 # td=(NStates=1) CAM-B3LYP/6-31G(d,p)
 -------------------------------------

 --
 TD
 --
 Symbolic Z-matrix:
 Charge =  0 Multiplicity = 1

                         Standard orientation:
 ---------------------------------------------------------------------
 Center     Atomic      Atomic             Coordinates (Angstroms)
 Number     Number       Type             X           Y           Z
 ---------------------------------------------------------------------
      1          8           0       14.629562   -2.238422   -0.434671
      2          8           0      -14.694953    2.042601    0.642641
      3          6           0       11.400969   -1.043834    1.237549
      4          6           0      -12.322695   -0.954251    0.810949
      5          6           0       12.914721   -1.503665    1.111493
      6          6           0      -13.563573   -0.189814    0.779566
      7          6           0       13.292011   -1.982795   -0.316116
      8          6           0      -13.417416    1.311245    0.759791
      9          6           0       10.888304   -0.247807   -0.015632
     10          6           0      -11.214615   -0.256479   -0.153996
     11          6           0       13.010325   -0.848222   -1.308746
     12          6           0      -12.756224    1.798664   -0.478233
     13          6           0       11.654711   -0.170852   -1.122799
     14          6           0      -11.511374    0.876009   -0.844381
     15          6           0       11.208891   -0.335111    2.462764
     16          6           0       10.630116   -2.366449    1.235710
     17          6           0      -11.675387   -0.863028    2.249506
     18          6           0      -12.585376   -2.349050    0.367223
     19          6           0        9.626755    0.388749    0.187687
     20          6           0       -9.997248   -1.064927   -0.398396
     21          6           0       11.251028    0.555190   -2.400401
     22          6           0      -10.627851    1.516916   -1.887607
     23          6           0        9.387515    1.681973   -0.108354
     24          6           0       -8.824626   -0.571616   -0.401463
     25          6           0        7.951852    2.214040   -0.014220
     26          6           0       -7.466540   -1.345144   -0.561425
     27          6           0        7.960958    3.680077    0.546761
     28          6           0       -7.684267   -2.830270   -0.763532
     29          6           0        6.786663    1.580209   -0.098345
     30          6           0       -6.379976   -0.693125   -0.396076
     31          6           0        5.514103    2.027351    0.246495
     32          6           0       -5.102404   -1.234957   -0.507800
     33          6           0        4.342293    1.280844   -0.066773
     34          6           0       -3.990133   -0.448389   -0.353799
     35          6           0        3.027701    1.677033    0.101396
     36          6           0       -2.618098   -0.772133   -0.398806
     37          6           0        2.805698    3.017078    0.717346
     38          6           0       -2.344780   -2.238291   -0.672266
     39          6           0        2.057441    0.741799   -0.057507
     40          6           0       -1.649505    0.125793   -0.115746
     41          6           0        0.692277    1.019862   -0.082059
     42          6           0       -0.188280   -0.094818   -0.298210
     43          1           0       13.659368   -0.362541    1.022655
     44          1           0       13.323021   -2.098906    1.936272
     45          1           0      -14.147479   -0.452293    1.687813
     46          1           0      -14.073839   -0.618638   -0.094372
     47          1           0       12.586813   -2.786204   -0.533841
     48          1           0      -12.888483    1.670373    1.704415
     49          1           0       13.854564   -0.021086   -1.093408
     50          1           0       13.036204   -1.335629   -2.378197
     51          1           0      -13.317222    1.709611   -1.361811
     52          1           0      -12.563323    2.856730   -0.465563
     53          1           0       11.699670   -0.741187    3.498311
     54          1           0       10.244566   -0.010890    2.678330
     55          1           0       12.002691    0.484496    2.403274
     56          1           0       10.834424   -2.965888    0.426882
     57          1           0       10.603297   -2.965188    2.212449
     58          1           0        9.488746   -2.142191    1.168094
     59          1           0      -11.334821   -0.007638    2.484176
     60          1           0      -10.704000   -1.324798    2.308580
     61          1           0      -12.073678   -1.443871    2.964113
     62          1           0      -13.310427   -2.711725    0.975793
     63          1           0      -11.824809   -3.047391    0.561744
     64          1           0      -12.798630   -2.527934   -0.631491
     65          1           0        8.776587   -0.412845    0.234625
     66          1           0      -10.087012   -2.130700   -0.478423
     67          1           0       10.081060    0.832232   -2.347359
     68          1           0       11.699490    1.494494   -2.690119
     69          1           0       11.403431   -0.155019   -3.180231
     70          1           0      -11.449784    1.887157   -2.553074
     71          1           0      -10.070312    0.639272   -2.562730
     72          1           0       -9.880768    2.353433   -1.498667
     73          1           0       14.914607   -3.132066   -0.018025
     74          1           0      -15.232677    1.802661    1.451821
     75          1           0       10.122216    2.395484   -0.443671
     76          1           0       -8.494482    0.814453   -0.648201
     77          1           0        8.995550    4.312925    0.088600
     78          1           0        6.855282    4.216074   -0.178133
     79          1           0        7.966931    3.626301    1.843460
     80          1           0       -8.443987   -3.436335   -0.194547
     81          1           0       -8.033828   -2.733903   -1.773597
     82          1           0       -6.875814   -3.437581   -0.540584
     83          1           0        6.761492    0.670901   -0.699136
     84          1           0       -6.314799    0.401102   -0.217056
     85          1           0        5.271168    3.033325    0.754576
     86          1           0       -5.155399   -2.253152   -0.815005
     87          1           0        4.588226    0.411650   -0.489043
     88          1           0       -4.380953    0.604358   -0.159156
     89          1           0        3.334650    3.061490    1.840521
     90          1           0        1.765323    3.572444    1.130392
     91          1           0        3.138300    3.883857    0.097340
     92          1           0       -2.625165   -3.051805    0.116673
     93          1           0       -3.008962   -2.605251   -1.559199
     94          1           0       -1.335368   -2.615187   -0.624889
     95          1           0        2.478096   -0.354817   -0.274530
     96          1           0       -2.024247    1.131299   -0.295234
     97          1           0        0.205007    2.011078    0.224624
     98          1           0        0.378845   -0.954787   -0.629295
 ---------------------------------------------------------------------

 SCF Done:  E(RCAM-B3LYP) =  -1706.82306522     A.U. after   15 cycles

 Excitation energies and oscillator strengths:

 Excited State   1:      Singlet-A      2.5032 eV  495.31 nm  f=3.4174  <S**2>=0.000
     155 ->158         0.13742
     156 ->157         0.69263
 This state for optimization and/or second-order correction.
 Total Energy, E(TD-HF/TD-DFT) =  -1706.73107500
 Copying the excited state density for this state as the 1-particle RhoCI density.

 The electronic state is 1-A.
 Alpha  occ. eigenvalues --  -19.22053 -19.20814 -10.31133 -10.30555 -10.30184
 Alpha  occ. eigenvalues --  -10.28299 -10.27990 -10.27623 -10.27491 -10.27388
 Alpha  occ. eigenvalues --  -10.27207 -10.27167 -10.27078 -10.27061 -10.26990
 Alpha  occ. eigenvalues --  -10.26885 -10.26870 -10.26832 -10.26690 -10.26686
 Alpha  occ. eigenvalues --  -10.26665 -10.26514 -10.26487 -10.26409 -10.26374
 Alpha  occ. eigenvalues --  -10.26312 -10.26257 -10.25834 -10.25782 -10.25586
 Alpha  occ. eigenvalues --  -10.25580 -10.25018 -10.24974 -10.24955 -10.24931
 Alpha  occ. eigenvalues --  -10.24645 -10.24634 -10.24459 -10.24349 -10.24214
 Alpha  occ. eigenvalues --  -10.22901 -10.21811  -1.10290  -1.07011  -0.93535
 Alpha  occ. eigenvalues --   -0.93385  -0.92649  -0.92303  -0.90557  -0.89612
 Alpha  occ. eigenvalues --   -0.87673  -0.86954  -0.86479  -0.85850  -0.84703
 Alpha  occ. eigenvalues --   -0.83004  -0.81296  -0.80432  -0.79254  -0.79121
 Alpha  occ. eigenvalues --   -0.77732  -0.76850  -0.76561  -0.76241  -0.75418
 Alpha  occ. eigenvalues --   -0.74693  -0.74176  -0.73456  -0.72919  -0.69884
 Alpha  occ. eigenvalues --   -0.67987  -0.67219  -0.66243  -0.63905  -0.63717
 Alpha  occ. eigenvalues --   -0.62806  -0.62068  -0.61699  -0.61454  -0.60326
 Alpha  occ. eigenvalues --   -0.59497  -0.58889  -0.57571  -0.57308  -0.56054
 Alpha  occ. eigenvalues --   -0.55157  -0.55138  -0.54365  -0.54271  -0.53582
 Alpha  occ. eigenvalues --   -0.53408  -0.52660  -0.52204  -0.52048  -0.51521
 Alpha  occ. eigenvalues --   -0.50771  -0.50204  -0.50155  -0.49738  -0.49375
 Alpha  occ. eigenvalues --   -0.48874  -0.48222  -0.48108  -0.47813  -0.47735
 Alpha  occ. eigenvalues --   -0.47661  -0.47429  -0.46874  -0.46373  -0.45530
 Alpha  occ. eigenvalues --   -0.45236  -0.45024  -0.44916  -0.44678  -0.44412
 Alpha  occ. eigenvalues --   -0.44241  -0.44067  -0.43858  -0.43328  -0.42502
 Alpha  occ. eigenvalues --   -0.42333  -0.42137  -0.42000  -0.41820  -0.41595
 Alpha  occ. eigenvalues --   -0.41314  -0.41293  -0.40824  -0.40576  -0.40254
 Alpha  occ. eigenvalues --   -0.40122  -0.39789  -0.39703  -0.39095  -0.39006
 Alpha  occ. eigenvalues --   -0.38800  -0.38251  -0.37749  -0.37527  -0.36856
 Alpha  occ. eigenvalues --   -0.36486  -0.36426  -0.36165  -0.35445  -0.34759
 Alpha  occ. eigenvalues --   -0.34236  -0.33535  -0.33428  -0.32463  -0.31923
 Alpha  occ. eigenvalues --   -0.31620  -0.29688  -0.28246  -0.27155  -0.24616
 Alpha  occ. eigenvalues --   -0.20219
 Alpha virt. eigenvalues --   -0.05121  -0.00062   0.03401   0.05691   0.07747
 Alpha virt. eigenvalues --    0.08887   0.09374   0.09773   0.10568   0.11418
 Alpha virt. eigenvalues --    0.12249   0.12291   0.12313   0.12481   0.13262

 Mulliken charges:
               1
     1  O   -0.550147
     2  O   -0.570945
     3  C    0.017057
     4  C   -0.000584
     5  C   -0.169375
     6  C   -0.178806
     7  C    0.184073
     8  C    0.155417
     9  C    0.051224
    10  C    0.038892
    11  C   -0.211666
    12  C   -0.199575
    13  C    0.052601
    14  C    0.015051
    15  C   -0.300355
    16  C   -0.303306
    17  C   -0.311965
    18  C   -0.324856
    19  C   -0.113274
    20  C   -0.144479
    21  C   -0.362062
    22  C   -0.335460
    23  C   -0.092398
    24  C   -0.042310
    25  C    0.044330
    26  C    0.061237
    27  C   -0.297604
    28  C   -0.371229
    29  C   -0.096767
    30  C   -0.096418
    31  C   -0.090192
    32  C   -0.052631
    33  C   -0.117536
    34  C   -0.145642
    35  C    0.153707
    36  C    0.157572
    37  C   -0.383926
    38  C   -0.374926
    39  C   -0.133826
    40  C   -0.165207
    41  C   -0.078215
    42  C   -0.094441
    43  H    0.025056
    44  H    0.089309
    45  H    0.077250
    46  H    0.102906
    47  H    0.074135
    48  H    0.085024
    49  H    0.112726
    50  H    0.094198
    51  H    0.128307
    52  H    0.117728
    53  H    0.075679
    54  H    0.115812
    55  H    0.097832
    56  H    0.110012
    57  H    0.092220
    58  H    0.076648
    59  H    0.114857
    60  H    0.096410
    61  H    0.099569
    62  H    0.107874
    63  H    0.100541
    64  H    0.116444
    65  H    0.104911
    66  H    0.091440
    67  H    0.095213
    68  H    0.121240
    69  H    0.109389
    70  H    0.097834
    71  H    0.092491
    72  H    0.111458
    73  H    0.310905
    74  H    0.296016
    75  H    0.104820
    76  H    0.032399
    77  H    0.076291
    78  H    0.060364
    79  H    0.105805
    80  H    0.116709
    81  H    0.140460
    82  H    0.116077
    83  H    0.079476
    84  H    0.076785
    85  H    0.089213
    86  H    0.075082
    87  H    0.066952
    88  H    0.072254
    89  H    0.105831
    90  H    0.089989
    91  H    0.125297
    92  H    0.101148
    93  H    0.112190
    94  H    0.112726
    95  H    0.083688
    96  H    0.097376
    97  H    0.099695
    98  H    0.096901
 Sum of Mulliken charges =  -0.00000

 Dipole moment (field-independent basis, Debye):
    X=             -1.0462    Y=             -3.5849    Z=              1.1105  Tot=              3.8960
 Quadrupole moment (field-independent basis, Debye-Ang):
   XX=           -272.3418   YY=           -242.3012   ZZ=           -261.0942
   XY=              5.4711   XZ=            -10.0896   YZ=              1.3666

 Normal termination of Gaussian 16 at Sat Jun 29 14:14:05 2019.
