 Gaussian 16, Revision A.03,
 Gaussian 16:  ES64L-G16RevA.03 25-Dec-2016

 -------------------------------------
 # td=(NStates=1) CAM-B3LYP/6-31G(d,p)
 -------------------------------------

 --
 TD
 --
 Symbolic Z-matrix:
 Charge =  0 Multiplicity = 1

                         Standard orientation:
 ---------------------------------------------------------------------
 Center     Atomic      Atomic             Coordinates (Angstroms)
 Number     Number       Type             X           Y           Z
 ---------------------------------------------------------------------
      1          8           0       14.569798   -2.327551   -0.387813
      2          8           0      -14.801310    1.967104    0.576849
      3          6           0       11.500892   -1.082940    1.173227
      4          6           0      -12.288982   -1.028574    0.844562
      5          6           0       12.938866   -1.467179    0.989730
      6          6           0      -13.701697   -0.273874    0.786990
      7          6           0       13.245747   -2.084441   -0.278148
      8          6           0      -13.626269    1.321715    0.743145
      9          6           0       10.975485   -0.463362   -0.028577
     10          6           0      -11.371144   -0.377146   -0.180867
     11          6           0       12.984142   -1.015527   -1.366182
     12          6           0      -12.793658    1.634957   -0.555888
     13          6           0       11.676618   -0.360484   -1.238664
     14          6           0      -11.572535    0.779069   -0.788762
     15          6           0       11.290688   -0.191668    2.407832
     16          6           0       10.581023   -2.390686    1.528336
     17          6           0      -11.779804   -1.054033    2.216587
     18          6           0      -12.624964   -2.464383    0.372978
     19          6           0        9.657430    0.347617    0.192781
     20          6           0      -10.084262   -1.145778   -0.335525
     21          6           0       11.128285    0.420140   -2.475752
     22          6           0      -10.649844    1.445005   -1.779873
     23          6           0        9.374080    1.624671   -0.084210
     24          6           0       -8.912949   -0.554708   -0.213393
     25          6           0        8.151264    2.209922    0.187895
     26          6           0       -7.585217   -1.302558   -0.370725
     27          6           0        8.156475    3.775888    0.542637
     28          6           0       -7.588921   -2.804870   -0.813355
     29          6           0        6.976877    1.653261    0.068379
     30          6           0       -6.408086   -0.570709   -0.305446
     31          6           0        5.560948    2.091091    0.212529
     32          6           0       -5.046660   -1.099444   -0.464950
     33          6           0        4.503557    1.242712    0.057018
     34          6           0       -3.973999   -0.307553   -0.383415
     35          6           0        3.071042    1.782269    0.197838
     36          6           0       -2.545400   -0.654646   -0.570099
     37          6           0        2.842978    3.179912    0.485792
     38          6           0       -2.211571   -2.001695   -0.887192
     39          6           0        2.120579    0.908090   -0.124548
     40          6           0       -1.701748    0.355852   -0.259574
     41          6           0        0.626961    1.084864   -0.047131
     42          6           0       -0.232768    0.142324   -0.373712
     43          1           0       13.712086   -0.742765    1.218147
     44          1           0       13.328856   -2.229722    1.735012
     45          1           0      -14.298228   -0.516989    1.881514
     46          1           0      -14.455331   -0.507643   -0.123817
     47          1           0       12.583015   -2.988540   -0.435061
     48          1           0      -13.079765    1.756625    1.581871
     49          1           0       14.004648   -0.295890   -1.331533
     50          1           0       12.807416   -1.518304   -2.345193
     51          1           0      -13.492573    1.765478   -1.413886
     52          1           0      -12.386518    2.681352   -0.427658
     53          1           0       11.822296   -0.593724    3.326086
     54          1           0       10.265687   -0.080816    2.666164
     55          1           0       11.734315    0.809588    2.103212
     56          1           0       10.874366   -3.183008    0.555073
     57          1           0       10.815436   -2.954945    2.332182
     58          1           0        9.459140   -2.336776    1.625574
     59          1           0      -11.666243   -0.008328    2.658806
     60          1           0      -10.830486   -1.429264    2.345518
     61          1           0      -12.553262   -1.695828    2.792729
     62          1           0      -13.455198   -2.969456    1.047810
     63          1           0      -11.737203   -2.988667    0.469192
     64          1           0      -12.973633   -2.478773   -0.778339
     65          1           0        8.859316   -0.368058    0.481250
     66          1           0      -10.158478   -2.242990   -0.316749
     67          1           0       10.041020    0.642727   -2.230687
     68          1           0       11.565955    1.340100   -2.346387
     69          1           0       11.430501   -0.053748   -3.262751
     70          1           0      -11.157382    2.122520   -2.536181
     71          1           0       -9.933396    0.780314   -2.410808
     72          1           0      -10.093101    2.082623   -1.085898
     73          1           0       14.561224   -3.073976    0.252310
     74          1           0      -15.322292    1.669406    1.380104
     75          1           0       10.275905    2.170835   -0.482887
     76          1           0       -8.718384    0.596523   -0.233216
     77          1           0        9.123623    4.053687    0.026227
     78          1           0        7.134064    4.254507    0.271018
     79          1           0        8.249761    3.997821    1.778662
     80          1           0       -8.022488   -3.453806   -0.219784
     81          1           0       -7.938256   -2.696751   -1.842815
     82          1           0       -6.464837   -2.886077   -0.768229
     83          1           0        6.897523    0.583131   -0.296047
     84          1           0       -6.454009    0.418002   -0.192029
     85          1           0        5.292128    3.071845    0.560516
     86          1           0       -4.869330   -2.159115   -0.880048
     87          1           0        4.742948    0.165687   -0.244850
     88          1           0       -4.064594    0.823878   -0.185453
     89          1           0        3.531080    3.277346    1.385434
     90          1           0        1.850207    3.535621    0.522825
     91          1           0        3.222189    3.893095   -0.339266
     92          1           0       -2.641796   -2.683379   -0.224221
     93          1           0       -2.873368   -2.412643   -1.729492
     94          1           0       -1.119586   -2.291005   -1.350216
     95          1           0        2.215490   -0.127612   -0.722137
     96          1           0       -1.897991    1.379607    0.031258
     97          1           0        0.069192    1.903910    0.359794
     98          1           0        0.059689   -0.742673   -0.638555
 ---------------------------------------------------------------------

 SCF Done:  E(RCAM-B3LYP) =  -1706.96727607     A.U. after   13 cycles

 Excitation energies and oscillator strengths:

 Excited State   1:      Singlet-A      3.3204 eV  373.41 nm  f=3.5700  <S**2>=0.000
     155 ->158         0.21559
     156 ->157         0.65946
 This state for optimization and/or second-order correction.
 Total Energy, E(TD-HF/TD-DFT) =  -1706.84525490
 Copying the excited state density for this state as the 1-particle RhoCI density.

 The electronic state is 1-A.
 Alpha  occ. eigenvalues --  -19.22093 -19.22061 -10.30091 -10.29703 -10.28054
 Alpha  occ. eigenvalues --  -10.27731 -10.27666 -10.27662 -10.27652 -10.27530
 Alpha  occ. eigenvalues --  -10.27474 -10.27378 -10.27295 -10.26850 -10.26768
 Alpha  occ. eigenvalues --  -10.26620 -10.26613 -10.26560 -10.26482 -10.26403
 Alpha  occ. eigenvalues --  -10.26343 -10.26324 -10.26262 -10.26036 -10.26035
 Alpha  occ. eigenvalues --  -10.26028 -10.25893 -10.25859 -10.25790 -10.25762
 Alpha  occ. eigenvalues --  -10.25743 -10.25661 -10.25535 -10.25387 -10.25236
 Alpha  occ. eigenvalues --  -10.25026 -10.24853 -10.24761 -10.24613 -10.24432
 Alpha  occ. eigenvalues --  -10.24259 -10.23421  -1.13375  -1.11725  -0.93809
 Alpha  occ. eigenvalues --   -0.93293  -0.92485  -0.91661  -0.90700  -0.89546
 Alpha  occ. eigenvalues --   -0.87446  -0.87076  -0.86546  -0.85115  -0.84509
 Alpha  occ. eigenvalues --   -0.82828  -0.81853  -0.79710  -0.79302  -0.78570
 Alpha  occ. eigenvalues --   -0.76872  -0.76769  -0.76298  -0.75712  -0.75122
 Alpha  occ. eigenvalues --   -0.75017  -0.74925  -0.73985  -0.73589  -0.69598
 Alpha  occ. eigenvalues --   -0.68364  -0.66790  -0.65441  -0.64604  -0.64081
 Alpha  occ. eigenvalues --   -0.63864  -0.63569  -0.62280  -0.60748  -0.60607
 Alpha  occ. eigenvalues --   -0.60218  -0.59386  -0.58391  -0.58117  -0.56122
 Alpha  occ. eigenvalues --   -0.55546  -0.55307  -0.54386  -0.53928  -0.53704
 Alpha  occ. eigenvalues --   -0.53194  -0.52177  -0.51785  -0.51674  -0.51108
 Alpha  occ. eigenvalues --   -0.50990  -0.50375  -0.50264  -0.50021  -0.49225
 Alpha  occ. eigenvalues --   -0.48978  -0.48693  -0.48545  -0.48142  -0.48004
 Alpha  occ. eigenvalues --   -0.47197  -0.46776  -0.46589  -0.46409  -0.45960
 Alpha  occ. eigenvalues --   -0.45645  -0.45617  -0.45522  -0.45426  -0.44888
 Alpha  occ. eigenvalues --   -0.44714  -0.44447  -0.44140  -0.44066  -0.43703
 Alpha  occ. eigenvalues --   -0.43516  -0.43404  -0.42751  -0.42476  -0.42335
 Alpha  occ. eigenvalues --   -0.42165  -0.41951  -0.41716  -0.41425  -0.40690
 Alpha  occ. eigenvalues --   -0.40615  -0.40062  -0.39902  -0.39759  -0.39286
 Alpha  occ. eigenvalues --   -0.38912  -0.38400  -0.38203  -0.37831  -0.37566
 Alpha  occ. eigenvalues --   -0.37410  -0.36862  -0.36563  -0.35736  -0.35580
 Alpha  occ. eigenvalues --   -0.34761  -0.33823  -0.33459  -0.32465  -0.31910
 Alpha  occ. eigenvalues --   -0.31489  -0.29337  -0.27740  -0.26558  -0.24479
 Alpha  occ. eigenvalues --   -0.22110
 Alpha virt. eigenvalues --   -0.02623   0.00238   0.03464   0.06111   0.07955
 Alpha virt. eigenvalues --    0.09525   0.10740   0.11263   0.11410   0.12498
 Alpha virt. eigenvalues --    0.12629   0.12937   0.13283   0.13361   0.13474

 Mulliken charges:
               1
     1  O   -0.520838
     2  O   -0.528882
     3  C   -0.001485
     4  C   -0.011781
     5  C   -0.180196
     6  C   -0.184875
     7  C    0.145138
     8  C    0.170448
     9  C    0.048517
    10  C    0.071957
    11  C   -0.212040
    12  C   -0.241965
    13  C    0.017821
    14  C    0.055430
    15  C   -0.291223
    16  C   -0.304644
    17  C   -0.286095
    18  C   -0.287879
    19  C   -0.124193
    20  C   -0.153476
    21  C   -0.336446
    22  C   -0.364718
    23  C   -0.115694
    24  C   -0.067768
    25  C    0.099038
    26  C    0.033030
    27  C   -0.342880
    28  C   -0.342912
    29  C   -0.121941
    30  C   -0.099432
    31  C   -0.080336
    32  C   -0.107523
    33  C   -0.102818
    34  C   -0.118511
    35  C    0.102254
    36  C    0.158159
    37  C   -0.365645
    38  C   -0.407696
    39  C   -0.140058
    40  C   -0.143764
    41  C   -0.086144
    42  C   -0.041825
    43  H    0.112970
    44  H    0.054875
    45  H    0.028737
    46  H    0.092444
    47  H    0.075198
    48  H    0.071674
    49  H    0.100468
    50  H    0.097052
    51  H    0.119976
    52  H    0.093843
    53  H    0.089986
    54  H    0.115204
    55  H    0.094058
    56  H    0.046533
    57  H    0.115571
    58  H    0.104375
    59  H    0.096660
    60  H    0.118236
    61  H    0.091493
    62  H    0.089564
    63  H    0.104382
    64  H    0.094090
    65  H    0.090786
    66  H    0.089228
    67  H    0.123507
    68  H    0.129509
    69  H    0.106944
    70  H    0.104472
    71  H    0.113160
    72  H    0.123978
    73  H    0.300563
    74  H    0.306261
    75  H    0.094533
    76  H    0.080911
    77  H    0.109830
    78  H    0.113553
    79  H    0.089224
    80  H    0.125602
    81  H    0.133762
    82  H    0.096902
    83  H    0.063647
    84  H    0.072986
    85  H    0.072448
    86  H    0.083050
    87  H    0.091491
    88  H    0.078493
    89  H    0.118028
    90  H    0.124570
    91  H    0.120637
    92  H    0.143712
    93  H    0.110884
    94  H    0.110726
    95  H    0.080540
    96  H    0.087867
    97  H    0.064920
    98  H    0.049779
 Sum of Mulliken charges =  -0.00000

 Dipole moment (field-independent basis, Debye):
    X=             -0.5176    Y=             -1.2492    Z=              1.4727  Tot=              1.9993
 Quadrupole moment (field-independent basis, Debye-Ang):
   XX=           -284.3211   YY=           -246.3614   ZZ=           -261.2903
   XY=              3.9933   XZ=             -1.8785   YZ=              0.2326

 Normal termination of Gaussian 16 at Thu Jun 27 02:47:07 2019.
