 Gaussian 16, Revision A.03,
 Gaussian 16:  ES64L-G16RevA.03 25-Dec-2016

 -------------------------------------
 # td=(NStates=1) CAM-B3LYP/6-31G(d,p)
 -------------------------------------

 --
 TD
 --
 Symbolic Z-matrix:
 Charge =  0 Multiplicity = 1

                         Standard orientation:
 ---------------------------------------------------------------------
 Center     Atomic      Atomic             Coordinates (Angstroms)
 Number     Number       Type             X           Y           Z
 ---------------------------------------------------------------------
      1          8           0       14.778158   -2.088772   -0.237039
      2          8           0      -14.630197    2.334694    0.835347
      3          6           0       11.531693   -0.907663    1.217657
      4          6           0      -12.244647   -0.752750    0.897368
      5          6           0       12.972342   -1.294224    1.177727
      6          6           0      -13.606150    0.039183    0.798135
      7          6           0       13.369315   -1.717922   -0.178323
      8          6           0      -13.414417    1.628719    0.812038
      9          6           0       11.068059   -0.164470    0.061201
     10          6           0      -11.383031   -0.198563   -0.232880
     11          6           0       13.179547   -0.640217   -1.223762
     12          6           0      -12.590974    1.796679   -0.511277
     13          6           0       11.773464   -0.081975   -1.075810
     14          6           0      -11.534814    0.970297   -0.793334
     15          6           0       11.245506   -0.129442    2.542195
     16          6           0       10.635325   -2.254881    1.387477
     17          6           0      -11.731210   -0.757683    2.266753
     18          6           0      -12.587117   -2.162973    0.486342
     19          6           0        9.655755    0.431824    0.150332
     20          6           0      -10.119074   -1.120922   -0.507032
     21          6           0       11.276261    0.414796   -2.401567
     22          6           0      -10.653669    1.381197   -1.917782
     23          6           0        9.224153    1.640989   -0.290549
     24          6           0       -8.881033   -0.704490   -0.375531
     25          6           0        7.936197    2.230008   -0.004195
     26          6           0       -7.655464   -1.439948   -0.507347
     27          6           0        7.909553    3.728142    0.209601
     28          6           0       -7.733299   -2.843713   -0.953683
     29          6           0        6.828419    1.398167   -0.095252
     30          6           0       -6.435190   -0.769190   -0.248661
     31          6           0        5.555196    1.893254    0.079371
     32          6           0       -5.139639   -1.311673   -0.511492
     33          6           0        4.347203    1.186744   -0.088517
     34          6           0       -3.999198   -0.604747   -0.304389
     35          6           0        2.979644    1.557403    0.087767
     36          6           0       -2.639406   -1.040552   -0.389846
     37          6           0        2.671485    2.999272    0.316612
     38          6           0       -2.354020   -2.538483   -0.854246
     39          6           0        2.019336    0.527737   -0.066157
     40          6           0       -1.634610   -0.207729   -0.049549
     41          6           0        0.673053    0.631128   -0.109120
     42          6           0       -0.233951   -0.421038   -0.212808
     43          1           0       13.662847   -0.415706    1.588608
     44          1           0       13.259860   -1.990363    1.968023
     45          1           0      -14.133557    0.007090    1.671608
     46          1           0      -14.288665   -0.092041   -0.034953
     47          1           0       12.699352   -2.619710   -0.492701
     48          1           0      -12.816206    2.138608    1.658539
     49          1           0       13.920666    0.188293   -1.136637
     50          1           0       13.493546   -0.947642   -2.410718
     51          1           0      -13.261907    1.883746   -1.368093
     52          1           0      -12.077991    2.855096   -0.376609
     53          1           0       11.779971   -0.590641    3.449951
     54          1           0       10.246943    0.099330    2.820420
     55          1           0       11.869163    0.779491    2.473797
     56          1           0       10.661970   -2.938569    0.408257
     57          1           0       11.055449   -2.768960    2.174201
     58          1           0        9.758149   -1.790404    1.758835
     59          1           0      -11.349770    0.309280    2.479249
     60          1           0      -10.898983   -1.456577    2.366657
     61          1           0      -12.447373   -0.973131    3.084402
     62          1           0      -13.482550   -2.543465    0.907388
     63          1           0      -11.878120   -2.752505    0.762458
     64          1           0      -12.722469   -2.445151   -0.630211
     65          1           0        8.891302   -0.063122    0.832740
     66          1           0      -10.326589   -2.226379   -0.832823
     67          1           0       10.320608    0.832921   -2.253536
     68          1           0       12.046596    1.430696   -2.687648
     69          1           0       11.260900   -0.378133   -3.182039
     70          1           0      -11.175265    2.169616   -2.594156
     71          1           0      -10.113341    0.565572   -2.463759
     72          1           0       -9.807175    2.074376   -1.507716
     73          1           0       14.855468   -2.907689    0.302881
     74          1           0      -15.231184    2.054744    1.555656
     75          1           0        9.953755    2.450737   -0.712754
     76          1           0       -8.709778    0.337126   -0.295209
     77          1           0        8.440322    4.153351   -0.640336
     78          1           0        7.017385    4.183016    0.209308
     79          1           0        8.308663    3.982326    1.206593
     80          1           0       -8.307537   -3.424683   -0.226464
     81          1           0       -8.420031   -2.995253   -1.864377
     82          1           0       -7.021329   -3.547452   -1.073470
     83          1           0        6.945047    0.451921   -0.409837
     84          1           0       -6.731220    0.142187    0.334570
     85          1           0        5.368834    2.933169    0.587655
     86          1           0       -5.080239   -2.219774   -0.693238
     87          1           0        4.439864    0.150978   -0.383990
     88          1           0       -4.007692    0.359215   -0.168198
     89          1           0        2.919486    3.162519    1.494679
     90          1           0        1.502328    3.292499    0.385047
     91          1           0        3.295902    3.653581   -0.375088
     92          1           0       -2.854497   -3.362128   -0.332067
     93          1           0       -2.703467   -2.791408   -1.988583
     94          1           0       -1.332686   -2.948671   -0.921400
     95          1           0        2.410327   -0.569322   -0.343476
     96          1           0       -2.190445    0.857334    0.152906
     97          1           0        0.182212    1.496457   -0.067819
     98          1           0       -0.064088   -1.545506   -0.477803
 ---------------------------------------------------------------------

 SCF Done:  E(RCAM-B3LYP) =  -1706.96916646     A.U. after   15 cycles

 Excitation energies and oscillator strengths:

 Excited State   1:      Singlet-A      2.2798 eV  543.83 nm  f=3.7035  <S**2>=0.000
     155 ->158        -0.14557
     156 ->157         0.69231
 This state for optimization and/or second-order correction.
 Total Energy, E(TD-HF/TD-DFT) =  -1706.88538456
 Copying the excited state density for this state as the 1-particle RhoCI density.

 The electronic state is 1-A.
 Alpha  occ. eigenvalues --  -19.21144 -19.20971 -10.31065 -10.30904 -10.28362
 Alpha  occ. eigenvalues --  -10.27943 -10.27553 -10.27507 -10.27425 -10.27377
 Alpha  occ. eigenvalues --  -10.27330 -10.27266 -10.26946 -10.26909 -10.26907
 Alpha  occ. eigenvalues --  -10.26838 -10.26812 -10.26722 -10.26652 -10.26428
 Alpha  occ. eigenvalues --  -10.26402 -10.26353 -10.26280 -10.26079 -10.25893
 Alpha  occ. eigenvalues --  -10.25854 -10.25655 -10.25258 -10.25246 -10.25126
 Alpha  occ. eigenvalues --  -10.25041 -10.24999 -10.24968 -10.24955 -10.24876
 Alpha  occ. eigenvalues --  -10.24770 -10.24763 -10.24762 -10.24725 -10.24691
 Alpha  occ. eigenvalues --  -10.24112 -10.22666  -1.09172  -1.07984  -0.94489
 Alpha  occ. eigenvalues --   -0.94316  -0.92131  -0.91742  -0.90885  -0.89991
 Alpha  occ. eigenvalues --   -0.88663  -0.87356  -0.86901  -0.85380  -0.84436
 Alpha  occ. eigenvalues --   -0.82982  -0.82102  -0.80399  -0.80033  -0.77938
 Alpha  occ. eigenvalues --   -0.76862  -0.76737  -0.76661  -0.75882  -0.75856
 Alpha  occ. eigenvalues --   -0.75651  -0.75345  -0.75085  -0.74007  -0.71238
 Alpha  occ. eigenvalues --   -0.69021  -0.67753  -0.66080  -0.64925  -0.64467
 Alpha  occ. eigenvalues --   -0.64280  -0.63435  -0.62173  -0.60583  -0.60060
 Alpha  occ. eigenvalues --   -0.59717  -0.58455  -0.58156  -0.57147  -0.55944
 Alpha  occ. eigenvalues --   -0.55699  -0.55194  -0.54514  -0.54145  -0.53600
 Alpha  occ. eigenvalues --   -0.53372  -0.52654  -0.52097  -0.51605  -0.50855
 Alpha  occ. eigenvalues --   -0.50334  -0.50270  -0.49864  -0.49630  -0.49538
 Alpha  occ. eigenvalues --   -0.49042  -0.48927  -0.48827  -0.48685  -0.48004
 Alpha  occ. eigenvalues --   -0.47274  -0.47240  -0.46641  -0.46352  -0.46242
 Alpha  occ. eigenvalues --   -0.45768  -0.45690  -0.45458  -0.45336  -0.44977
 Alpha  occ. eigenvalues --   -0.44551  -0.44226  -0.44002  -0.43472  -0.43297
 Alpha  occ. eigenvalues --   -0.43260  -0.43077  -0.42615  -0.42406  -0.42345
 Alpha  occ. eigenvalues --   -0.41984  -0.41570  -0.41351  -0.41273  -0.40865
 Alpha  occ. eigenvalues --   -0.40538  -0.40394  -0.40028  -0.39656  -0.39432
 Alpha  occ. eigenvalues --   -0.39223  -0.38909  -0.38861  -0.38602  -0.38465
 Alpha  occ. eigenvalues --   -0.37861  -0.37586  -0.36658  -0.35856  -0.35349
 Alpha  occ. eigenvalues --   -0.35136  -0.34051  -0.33133  -0.32480  -0.32330
 Alpha  occ. eigenvalues --   -0.31162  -0.29238  -0.28193  -0.26576  -0.23738
 Alpha  occ. eigenvalues --   -0.19405
 Alpha virt. eigenvalues --   -0.05552  -0.00586   0.02782   0.06386   0.08273
 Alpha virt. eigenvalues --    0.09572   0.11196   0.11477   0.12175   0.12322
 Alpha virt. eigenvalues --    0.12876   0.13110   0.13281   0.13548   0.13659

 Mulliken charges:
               1
     1  O   -0.568560
     2  O   -0.570785
     3  C   -0.063175
     4  C    0.009828
     5  C   -0.180461
     6  C   -0.203621
     7  C    0.164141
     8  C    0.167628
     9  C    0.140015
    10  C    0.022854
    11  C   -0.204163
    12  C   -0.258770
    13  C    0.032385
    14  C    0.153567
    15  C   -0.320309
    16  C   -0.284239
    17  C   -0.305762
    18  C   -0.302586
    19  C   -0.142332
    20  C   -0.176461
    21  C   -0.333540
    22  C   -0.369403
    23  C   -0.106530
    24  C   -0.070174
    25  C    0.053242
    26  C    0.128736
    27  C   -0.361495
    28  C   -0.396399
    29  C   -0.077783
    30  C   -0.145240
    31  C   -0.098952
    32  C   -0.043443
    33  C   -0.129622
    34  C   -0.089251
    35  C    0.131408
    36  C    0.137881
    37  C   -0.373122
    38  C   -0.390991
    39  C   -0.130794
    40  C   -0.138759
    41  C   -0.057274
    42  C   -0.096610
    43  H    0.084175
    44  H    0.088776
    45  H    0.071564
    46  H    0.112400
    47  H    0.072793
    48  H    0.068877
    49  H    0.123730
    50  H    0.083767
    51  H    0.123602
    52  H    0.080454
    53  H    0.086487
    54  H    0.113355
    55  H    0.107700
    56  H    0.091450
    57  H    0.109070
    58  H    0.107586
    59  H    0.096069
    60  H    0.111588
    61  H    0.106293
    62  H    0.097879
    63  H    0.107713
    64  H    0.088797
    65  H    0.092545
    66  H    0.083489
    67  H    0.118569
    68  H    0.063397
    69  H    0.119234
    70  H    0.096682
    71  H    0.129206
    72  H    0.100087
    73  H    0.301265
    74  H    0.310929
    75  H    0.085853
    76  H    0.083868
    77  H    0.121704
    78  H    0.121873
    79  H    0.124527
    80  H    0.118438
    81  H    0.104842
    82  H    0.121076
    83  H    0.086205
    84  H    0.085752
    85  H    0.075101
    86  H    0.060678
    87  H    0.072381
    88  H    0.062187
    89  H    0.109114
    90  H    0.103417
    91  H    0.128819
    92  H    0.120916
    93  H    0.094735
    94  H    0.112019
    95  H    0.077400
    96  H    0.064756
    97  H    0.077573
    98  H    0.086159
 Sum of Mulliken charges =  -0.00000

 Dipole moment (field-independent basis, Debye):
    X=             -0.2632    Y=             -1.5173    Z=              2.1128  Tot=              2.6144
 Quadrupole moment (field-independent basis, Debye-Ang):
   XX=           -273.3940   YY=           -242.7997   ZZ=           -259.1292
   XY=             13.6257   XZ=             -0.4374   YZ=              2.0720

 Normal termination of Gaussian 16 at Mon Jul  8 03:47:52 2019.
