 Gaussian 16, Revision A.03,
 Gaussian 16:  ES64L-G16RevA.03 25-Dec-2016

 -------------------------------------
 # td=(NStates=1) CAM-B3LYP/6-31G(d,p)
 -------------------------------------

 --
 TD
 --
 Symbolic Z-matrix:
 Charge =  0 Multiplicity = 1

                         Standard orientation:
 ---------------------------------------------------------------------
 Center     Atomic      Atomic             Coordinates (Angstroms)
 Number     Number       Type             X           Y           Z
 ---------------------------------------------------------------------
      1          8           0       14.730959   -2.225277   -0.184566
      2          8           0      -14.669063    2.016587    0.785084
      3          6           0       11.355893   -1.145184    1.149297
      4          6           0      -12.315381   -0.924078    0.751347
      5          6           0       12.905818   -1.452141    1.152493
      6          6           0      -13.768951   -0.159972    0.837594
      7          6           0       13.330395   -1.937027   -0.167036
      8          6           0      -13.469567    1.298816    0.634689
      9          6           0       10.973571   -0.291828   -0.030598
     10          6           0      -11.367350   -0.371997   -0.155539
     11          6           0       13.101808   -0.960820   -1.306969
     12          6           0      -12.734813    1.645948   -0.658638
     13          6           0       11.741546   -0.193848   -1.221773
     14          6           0      -11.618327    0.760324   -0.922544
     15          6           0       11.039110   -0.448888    2.566330
     16          6           0       10.473890   -2.427037    1.130117
     17          6           0      -11.711116   -0.798833    2.192253
     18          6           0      -12.752561   -2.403299    0.462922
     19          6           0        9.661371    0.368099    0.104165
     20          6           0      -10.096349   -1.047437   -0.262219
     21          6           0       11.459966    0.398670   -2.339289
     22          6           0      -10.666526    1.348443   -1.910135
     23          6           0        9.459522    1.753428   -0.156838
     24          6           0       -8.887658   -0.571865   -0.263908
     25          6           0        8.048232    2.336598    0.057358
     26          6           0       -7.630008   -1.280162   -0.528011
     27          6           0        8.032654    3.784093    0.586428
     28          6           0       -7.686395   -2.617328   -1.087591
     29          6           0        6.887453    1.605547   -0.216527
     30          6           0       -6.433649   -0.564861   -0.192058
     31          6           0        5.597147    2.115447   -0.060832
     32          6           0       -5.088004   -1.094400   -0.386434
     33          6           0        4.474515    1.344484   -0.071189
     34          6           0       -4.000754   -0.347755   -0.124898
     35          6           0        3.108508    1.616331    0.105498
     36          6           0       -2.540808   -0.811846   -0.245913
     37          6           0        2.890326    3.090363    0.528559
     38          6           0       -2.408064   -2.182776   -0.937026
     39          6           0        2.125046    0.791482   -0.164090
     40          6           0       -1.660920    0.109782   -0.068882
     41          6           0        0.701185    0.890064    0.058250
     42          6           0       -0.263030   -0.081091   -0.273539
     43          1           0       13.389786   -0.562888    1.321423
     44          1           0       13.263751   -2.242084    1.869275
     45          1           0      -14.242105   -0.369187    1.863460
     46          1           0      -14.284983   -0.545028   -0.111319
     47          1           0       12.890479   -3.225174   -0.255984
     48          1           0      -12.815659    1.606460    1.347316
     49          1           0       13.935569   -0.355849   -1.445173
     50          1           0       12.971411   -1.479469   -2.458940
     51          1           0      -13.248968    1.623063   -1.533666
     52          1           0      -12.334642    2.813311   -0.569300
     53          1           0       11.440623   -0.864559    3.540347
     54          1           0       10.119216   -0.416334    2.880105
     55          1           0       11.338720    0.647452    2.346443
     56          1           0       10.762698   -3.045085    0.231534
     57          1           0       10.579168   -2.759129    1.982235
     58          1           0        9.267985   -2.446837    0.949991
     59          1           0      -11.505724    0.299278    2.209160
     60          1           0      -10.578004   -1.447033    2.313193
     61          1           0      -12.186664   -1.139329    3.160337
     62          1           0      -13.423284   -2.723350    1.179306
     63          1           0      -11.820451   -3.057433    0.523862
     64          1           0      -13.263697   -2.571864   -0.479882
     65          1           0        8.921893   -0.133289    0.776262
     66          1           0      -10.283102   -2.183959   -0.764113
     67          1           0       10.309373    0.715227   -2.376338
     68          1           0       12.068419    1.368029   -2.624026
     69          1           0       11.529263   -0.025798   -3.463138
     70          1           0      -11.258393    1.681965   -2.828026
     71          1           0       -9.945850    0.564074   -2.323392
     72          1           0      -10.101096    2.106625   -1.439503
     73          1           0       15.227774   -2.678471    0.590540
     74          1           0      -14.930097    1.799037    1.765863
     75          1           0       10.150392    2.342517   -0.373369
     76          1           0       -8.725293    0.475451    0.158292
     77          1           0        8.630707    4.538795    0.043149
     78          1           0        6.954344    4.162218    0.706985
     79          1           0        8.414886    3.912324    1.602783
     80          1           0       -7.990356   -3.446494   -0.377512
     81          1           0       -8.238167   -2.727177   -2.027323
     82          1           0       -6.643147   -2.856915   -1.353686
     83          1           0        6.816353    0.599484   -0.526899
     84          1           0       -6.550511    0.481396    0.120967
     85          1           0        5.412204    3.133137    0.135774
     86          1           0       -5.105489   -2.020735   -0.841100
     87          1           0        4.702008    0.174316   -0.415813
     88          1           0       -4.077336    0.690853    0.242068
     89          1           0        3.190703    3.383258    1.522946
     90          1           0        1.756535    3.074121    0.609462
     91          1           0        3.148290    3.744682   -0.167961
     92          1           0       -2.888555   -2.986992   -0.363362
     93          1           0       -2.578093   -2.059953   -2.001818
     94          1           0       -1.284218   -2.390309   -0.912695
     95          1           0        2.480838   -0.329220   -0.322929
     96          1           0       -1.922302    1.185525    0.336254
     97          1           0        0.247012    1.788003    0.620499
     98          1           0        0.204285   -1.011821   -0.785639
 ---------------------------------------------------------------------

 SCF Done:  E(RCAM-B3LYP) =  -1706.88382272     A.U. after   14 cycles

 Excitation energies and oscillator strengths:

 Excited State   1:      Singlet-A      2.7982 eV  443.08 nm  f=3.5173  <S**2>=0.000
     155 ->158         0.20083
     156 ->157         0.66709
 This state for optimization and/or second-order correction.
 Total Energy, E(TD-HF/TD-DFT) =  -1706.78099025
 Copying the excited state density for this state as the 1-particle RhoCI density.

 The electronic state is 1-A.
 Alpha  occ. eigenvalues --  -19.20862 -19.20066 -10.32326 -10.28841 -10.28667
 Alpha  occ. eigenvalues --  -10.28659 -10.27706 -10.27566 -10.27519 -10.27276
 Alpha  occ. eigenvalues --  -10.27200 -10.27125 -10.27010 -10.26884 -10.26874
 Alpha  occ. eigenvalues --  -10.26778 -10.26730 -10.26641 -10.26616 -10.26613
 Alpha  occ. eigenvalues --  -10.26602 -10.26584 -10.26502 -10.26451 -10.26203
 Alpha  occ. eigenvalues --  -10.26186 -10.26154 -10.25997 -10.25948 -10.25816
 Alpha  occ. eigenvalues --  -10.25694 -10.25681 -10.25636 -10.25475 -10.25349
 Alpha  occ. eigenvalues --  -10.25237 -10.25172 -10.24930 -10.24526 -10.24432
 Alpha  occ. eigenvalues --  -10.24239 -10.23995  -1.08587  -1.07031  -0.94065
 Alpha  occ. eigenvalues --   -0.93588  -0.92241  -0.91616  -0.90349  -0.89400
 Alpha  occ. eigenvalues --   -0.88316  -0.87072  -0.86681  -0.85654  -0.84419
 Alpha  occ. eigenvalues --   -0.83299  -0.82206  -0.80396  -0.79841  -0.78350
 Alpha  occ. eigenvalues --   -0.76671  -0.76535  -0.76380  -0.76121  -0.75960
 Alpha  occ. eigenvalues --   -0.75644  -0.75339  -0.74547  -0.73858  -0.70138
 Alpha  occ. eigenvalues --   -0.68427  -0.67446  -0.66021  -0.64988  -0.64128
 Alpha  occ. eigenvalues --   -0.63981  -0.63003  -0.61610  -0.61150  -0.60160
 Alpha  occ. eigenvalues --   -0.59412  -0.57817  -0.57567  -0.56976  -0.56270
 Alpha  occ. eigenvalues --   -0.55524  -0.54896  -0.54358  -0.53921  -0.53269
 Alpha  occ. eigenvalues --   -0.52960  -0.52669  -0.52067  -0.51499  -0.50704
 Alpha  occ. eigenvalues --   -0.50537  -0.50481  -0.50301  -0.50011  -0.49626
 Alpha  occ. eigenvalues --   -0.49496  -0.49323  -0.49153  -0.48860  -0.48430
 Alpha  occ. eigenvalues --   -0.48084  -0.47743  -0.47209  -0.46782  -0.46277
 Alpha  occ. eigenvalues --   -0.45829  -0.45708  -0.45423  -0.45155  -0.44908
 Alpha  occ. eigenvalues --   -0.44358  -0.44107  -0.43628  -0.43599  -0.43236
 Alpha  occ. eigenvalues --   -0.42998  -0.42887  -0.42789  -0.42429  -0.42178
 Alpha  occ. eigenvalues --   -0.41858  -0.41784  -0.41035  -0.40919  -0.40699
 Alpha  occ. eigenvalues --   -0.40540  -0.39900  -0.39801  -0.39224  -0.38940
 Alpha  occ. eigenvalues --   -0.38443  -0.38326  -0.38031  -0.37910  -0.37325
 Alpha  occ. eigenvalues --   -0.37307  -0.37035  -0.36658  -0.36344  -0.35190
 Alpha  occ. eigenvalues --   -0.34776  -0.34403  -0.33556  -0.32181  -0.30724
 Alpha  occ. eigenvalues --   -0.29825  -0.29088  -0.27312  -0.25917  -0.23660
 Alpha  occ. eigenvalues --   -0.21130
 Alpha virt. eigenvalues --   -0.04150  -0.00767   0.01915   0.05162   0.06658
 Alpha virt. eigenvalues --    0.08476   0.09969   0.10621   0.10891   0.11582
 Alpha virt. eigenvalues --    0.12220   0.12368   0.13165   0.13352   0.13756

 Mulliken charges:
               1
     1  O   -0.604125
     2  O   -0.567772
     3  C   -0.039884
     4  C   -0.049951
     5  C   -0.166370
     6  C   -0.188521
     7  C    0.222043
     8  C    0.187420
     9  C    0.047089
    10  C    0.085710
    11  C   -0.215665
    12  C   -0.218082
    13  C    0.159467
    14  C    0.044546
    15  C   -0.319190
    16  C   -0.278243
    17  C   -0.292812
    18  C   -0.304196
    19  C   -0.128963
    20  C   -0.130595
    21  C   -0.438367
    22  C   -0.354024
    23  C   -0.069153
    24  C   -0.079600
    25  C    0.045650
    26  C    0.104437
    27  C   -0.377157
    28  C   -0.380117
    29  C   -0.088729
    30  C   -0.126035
    31  C   -0.062820
    32  C   -0.077724
    33  C   -0.125366
    34  C   -0.111373
    35  C    0.133005
    36  C    0.093284
    37  C   -0.374553
    38  C   -0.368519
    39  C   -0.147631
    40  C   -0.109519
    41  C   -0.101225
    42  C   -0.094290
    43  H    0.113445
    44  H    0.083015
    45  H    0.085066
    46  H    0.100992
    47  H    0.022006
    48  H    0.084118
    49  H    0.136974
    50  H    0.082224
    51  H    0.122421
    52  H    0.087835
    53  H    0.092548
    54  H    0.114251
    55  H    0.096467
    56  H    0.107001
    57  H    0.109036
    58  H    0.078952
    59  H    0.101590
    60  H    0.064600
    61  H    0.098555
    62  H    0.108806
    63  H    0.089379
    64  H    0.100843
    65  H    0.104991
    66  H    0.063585
    67  H    0.107124
    68  H    0.106991
    69  H    0.104499
    70  H    0.095223
    71  H    0.111666
    72  H    0.127544
    73  H    0.307911
    74  H    0.301594
    75  H    0.076408
    76  H    0.073999
    77  H    0.118261
    78  H    0.103525
    79  H    0.126709
    80  H    0.123176
    81  H    0.127208
    82  H    0.100278
    83  H    0.089504
    84  H    0.082931
    85  H    0.078387
    86  H    0.083410
    87  H    0.038164
    88  H    0.078442
    89  H    0.124552
    90  H    0.089912
    91  H    0.136814
    92  H    0.129114
    93  H    0.141940
    94  H    0.098225
    95  H    0.077983
    96  H    0.087568
    97  H    0.083762
    98  H    0.086395
 Sum of Mulliken charges =  -0.00000

 Dipole moment (field-independent basis, Debye):
    X=              1.2983    Y=             -0.3613    Z=              2.1907  Tot=              2.5721
 Quadrupole moment (field-independent basis, Debye-Ang):
   XX=           -279.5652   YY=           -249.6448   ZZ=           -254.8442
   XY=             20.7275   XZ=              8.7971   YZ=              1.4167

 Normal termination of Gaussian 16 at Sun Jun 30 06:04:31 2019.
