 Gaussian 16, Revision A.03,
 Gaussian 16:  ES64L-G16RevA.03 25-Dec-2016

 -------------------------------------
 # td=(NStates=1) CAM-B3LYP/6-31G(d,p)
 -------------------------------------

 --
 TD
 --
 Symbolic Z-matrix:
 Charge =  0 Multiplicity = 1

                         Standard orientation:
 ---------------------------------------------------------------------
 Center     Atomic      Atomic             Coordinates (Angstroms)
 Number     Number       Type             X           Y           Z
 ---------------------------------------------------------------------
      1          8           0       14.562874   -2.358909   -0.500058
      2          8           0      -14.762088    1.872200    0.602113
      3          6           0       11.245202   -1.229072    1.208819
      4          6           0      -12.240903   -1.110201    0.717786
      5          6           0       12.725714   -1.595165    1.046498
      6          6           0      -13.643041   -0.310516    0.656707
      7          6           0       13.215472   -2.057177   -0.344909
      8          6           0      -13.462521    1.226363    0.641701
      9          6           0       10.910989   -0.396623   -0.058079
     10          6           0      -11.169524   -0.425379   -0.295884
     11          6           0       12.830844   -1.071718   -1.434103
     12          6           0      -12.686450    1.675044   -0.586015
     13          6           0       11.547791   -0.273619   -1.165051
     14          6           0      -11.416284    0.854400   -0.845731
     15          6           0       11.082325   -0.497138    2.439669
     16          6           0       10.411567   -2.533933    1.194681
     17          6           0      -11.757791   -1.041049    2.130181
     18          6           0      -12.431702   -2.540265    0.234887
     19          6           0        9.591268    0.339758    0.092780
     20          6           0       -9.966286   -1.079788   -0.523740
     21          6           0       11.059824    0.518256   -2.376860
     22          6           0      -10.559673    1.457921   -1.837496
     23          6           0        9.379662    1.619785   -0.154360
     24          6           0       -8.819059   -0.625888   -0.214974
     25          6           0        8.106251    2.289587    0.086061
     26          6           0       -7.532658   -1.297142   -0.452892
     27          6           0        8.106061    3.815460    0.490645
     28          6           0       -7.560941   -2.732122   -0.822886
     29          6           0        6.926603    1.617636   -0.077398
     30          6           0       -6.371011   -0.538162   -0.198426
     31          6           0        5.561333    2.102467    0.165300
     32          6           0       -5.078567   -1.057851   -0.293069
     33          6           0        4.467352    1.419504   -0.001994
     34          6           0       -3.976386   -0.261354   -0.051729
     35          6           0        3.116821    1.842883    0.214056
     36          6           0       -2.548301   -0.521586   -0.397367
     37          6           0        2.894056    3.172211    0.755978
     38          6           0       -2.215861   -1.896675   -0.873501
     39          6           0        2.063277    0.995205   -0.009341
     40          6           0       -1.603651    0.341078   -0.032730
     41          6           0        0.631608    1.213929    0.106977
     42          6           0       -0.168189    0.170733   -0.102939
     43          1           0       13.312522   -0.619924    1.066298
     44          1           0       12.853680   -2.351658    1.949681
     45          1           0      -14.309948   -0.665559    1.758057
     46          1           0      -14.150042   -0.521857   -0.142208
     47          1           0       12.569599   -3.091513   -0.693995
     48          1           0      -12.945034    1.373751    1.517312
     49          1           0       13.630505   -0.253263   -1.361439
     50          1           0       12.883949   -1.371797   -2.396974
     51          1           0      -13.339883    1.563412   -1.501655
     52          1           0      -12.605143    2.810330   -0.482569
     53          1           0       11.470599   -1.358022    3.155923
     54          1           0       10.089357   -0.508678    2.814408
     55          1           0       11.763375    0.338337    2.831602
     56          1           0       10.514681   -3.020909    0.217409
     57          1           0       10.854951   -3.023956    2.244535
     58          1           0        9.336386   -2.215477    1.420318
     59          1           0      -11.725461    0.070895    2.475591
     60          1           0      -10.676915   -1.545846    2.261048
     61          1           0      -12.181471   -1.718070    2.834479
     62          1           0      -13.157164   -3.050708    1.151878
     63          1           0      -11.570398   -3.212381    0.113987
     64          1           0      -13.043027   -2.520723   -0.819251
     65          1           0        8.828267   -0.135505    0.897414
     66          1           0      -10.062409   -2.173227   -0.969399
     67          1           0       10.111294    0.753705   -2.391200
     68          1           0       11.680443    1.551431   -2.519635
     69          1           0       11.359675    0.155958   -3.411850
     70          1           0      -11.215604    1.651210   -2.683269
     71          1           0       -9.718067    0.835100   -2.173506
     72          1           0      -10.286719    2.366935   -1.429243
     73          1           0       14.637697   -3.270852   -0.081802
     74          1           0      -14.881537    1.865484    1.706976
     75          1           0       10.187108    2.341633   -0.473034
     76          1           0       -8.607347    0.495683    0.160009
     77          1           0        8.433841    4.425824   -0.303260
     78          1           0        7.156675    3.840093    0.889349
     79          1           0        8.830661    3.935530    1.373873
     80          1           0       -8.382297   -3.186089   -0.261901
     81          1           0       -7.756844   -2.716281   -2.078259
     82          1           0       -6.461594   -3.236346   -0.669908
     83          1           0        6.928627    0.541355   -0.535470
     84          1           0       -6.707525    0.403230    0.019225
     85          1           0        5.396160    3.210671    0.639272
     86          1           0       -5.007248   -2.064090   -0.744904
     87          1           0        4.601398    0.419746   -0.336439
     88          1           0       -4.125876    0.792899    0.353043
     89          1           0        3.458464    3.312013    1.683485
     90          1           0        1.737194    3.237571    0.674686
     91          1           0        3.449468    3.860061    0.151955
     92          1           0       -2.250048   -2.763298    0.006815
     93          1           0       -2.811219   -2.061312   -1.675848
     94          1           0       -1.081683   -1.901018   -1.158637
     95          1           0        2.094936    0.027379   -0.414360
     96          1           0       -2.080679    1.329534    0.575817
     97          1           0        0.474002    2.174973    0.450446
     98          1           0        0.098074   -0.711480   -0.688831
 ---------------------------------------------------------------------

 SCF Done:  E(RCAM-B3LYP) =  -1706.90778058     A.U. after   14 cycles

 Excitation energies and oscillator strengths:

 Excited State   1:      Singlet-A      2.8631 eV  433.05 nm  f=3.6324  <S**2>=0.000
     155 ->158        -0.18546
     156 ->157         0.67570
 This state for optimization and/or second-order correction.
 Total Energy, E(TD-HF/TD-DFT) =  -1706.80256504
 Copying the excited state density for this state as the 1-particle RhoCI density.

 The electronic state is 1-A.
 Alpha  occ. eigenvalues --  -19.22664 -19.22562 -10.32324 -10.29853 -10.28275
 Alpha  occ. eigenvalues --  -10.28138 -10.27456 -10.27455 -10.27224 -10.27170
 Alpha  occ. eigenvalues --  -10.27044 -10.26928 -10.26886 -10.26854 -10.26853
 Alpha  occ. eigenvalues --  -10.26775 -10.26697 -10.26649 -10.26633 -10.26523
 Alpha  occ. eigenvalues --  -10.26503 -10.26498 -10.26398 -10.26363 -10.26098
 Alpha  occ. eigenvalues --  -10.26093 -10.26092 -10.25929 -10.25869 -10.25722
 Alpha  occ. eigenvalues --  -10.25658 -10.25517 -10.25507 -10.25326 -10.25277
 Alpha  occ. eigenvalues --  -10.25258 -10.25145 -10.25112 -10.25052 -10.24792
 Alpha  occ. eigenvalues --  -10.24748 -10.23546  -1.10756  -1.07278  -0.94368
 Alpha  occ. eigenvalues --   -0.93269  -0.92788  -0.91515  -0.90606  -0.89951
 Alpha  occ. eigenvalues --   -0.88284  -0.87770  -0.87239  -0.86155  -0.84671
 Alpha  occ. eigenvalues --   -0.83130  -0.82400  -0.80559  -0.79994  -0.78051
 Alpha  occ. eigenvalues --   -0.76940  -0.75960  -0.75917  -0.75717  -0.75600
 Alpha  occ. eigenvalues --   -0.75453  -0.75193  -0.74487  -0.73711  -0.70437
 Alpha  occ. eigenvalues --   -0.68325  -0.67081  -0.65616  -0.65089  -0.64034
 Alpha  occ. eigenvalues --   -0.63010  -0.62674  -0.62018  -0.60242  -0.59138
 Alpha  occ. eigenvalues --   -0.58926  -0.57999  -0.57753  -0.56948  -0.56358
 Alpha  occ. eigenvalues --   -0.55949  -0.54691  -0.54426  -0.54210  -0.53733
 Alpha  occ. eigenvalues --   -0.53055  -0.52715  -0.52472  -0.51708  -0.51610
 Alpha  occ. eigenvalues --   -0.50729  -0.50489  -0.49955  -0.49744  -0.49373
 Alpha  occ. eigenvalues --   -0.49128  -0.48930  -0.48554  -0.48389  -0.48281
 Alpha  occ. eigenvalues --   -0.48055  -0.47765  -0.47206  -0.46869  -0.46441
 Alpha  occ. eigenvalues --   -0.45876  -0.45812  -0.45143  -0.44913  -0.44851
 Alpha  occ. eigenvalues --   -0.44779  -0.44608  -0.44441  -0.43305  -0.43225
 Alpha  occ. eigenvalues --   -0.42867  -0.42794  -0.42090  -0.41930  -0.41799
 Alpha  occ. eigenvalues --   -0.41743  -0.41570  -0.40938  -0.40870  -0.40679
 Alpha  occ. eigenvalues --   -0.40365  -0.40211  -0.39678  -0.39076  -0.38961
 Alpha  occ. eigenvalues --   -0.38668  -0.38569  -0.38487  -0.38249  -0.38123
 Alpha  occ. eigenvalues --   -0.37800  -0.37541  -0.37308  -0.36328  -0.35967
 Alpha  occ. eigenvalues --   -0.35620  -0.34087  -0.33385  -0.32426  -0.32095
 Alpha  occ. eigenvalues --   -0.31804  -0.29899  -0.27828  -0.26633  -0.23938
 Alpha  occ. eigenvalues --   -0.21045
 Alpha virt. eigenvalues --   -0.03868  -0.00077   0.03167   0.06232   0.07887
 Alpha virt. eigenvalues --    0.08674   0.09963   0.10129   0.10829   0.11049
 Alpha virt. eigenvalues --    0.11430   0.12107   0.12188   0.12666   0.13153

 Mulliken charges:
               1
     1  O   -0.534786
     2  O   -0.546752
     3  C   -0.026008
     4  C    0.011091
     5  C   -0.175636
     6  C   -0.135475
     7  C    0.170472
     8  C    0.133226
     9  C    0.068268
    10  C    0.036916
    11  C   -0.221844
    12  C   -0.226980
    13  C    0.063989
    14  C    0.046253
    15  C   -0.282584
    16  C   -0.270236
    17  C   -0.289421
    18  C   -0.289516
    19  C   -0.148713
    20  C   -0.171949
    21  C   -0.356789
    22  C   -0.350508
    23  C   -0.084885
    24  C   -0.057735
    25  C    0.032705
    26  C    0.096629
    27  C   -0.346114
    28  C   -0.353373
    29  C   -0.119178
    30  C   -0.079222
    31  C   -0.091642
    32  C   -0.103635
    33  C   -0.081375
    34  C   -0.112083
    35  C    0.105220
    36  C    0.096373
    37  C   -0.371698
    38  C   -0.344453
    39  C   -0.130284
    40  C   -0.113331
    41  C   -0.035598
    42  C   -0.122200
    43  H    0.100363
    44  H    0.067323
    45  H    0.029617
    46  H    0.104572
    47  H    0.015636
    48  H    0.089150
    49  H    0.103931
    50  H    0.118478
    51  H    0.118240
    52  H    0.106679
    53  H    0.067130
    54  H    0.110553
    55  H    0.119556
    56  H    0.123911
    57  H    0.074112
    58  H    0.100340
    59  H    0.092311
    60  H    0.079843
    61  H    0.111270
    62  H    0.062593
    63  H    0.109944
    64  H    0.089150
    65  H    0.080713
    66  H    0.086432
    67  H    0.135328
    68  H    0.083113
    69  H    0.099179
    70  H    0.108442
    71  H    0.117431
    72  H    0.120234
    73  H    0.317978
    74  H    0.305018
    75  H    0.091216
    76  H    0.075683
    77  H    0.132198
    78  H    0.122509
    79  H    0.103684
    80  H    0.125804
    81  H    0.094783
    82  H    0.095103
    83  H    0.085157
    84  H    0.066908
    85  H    0.058858
    86  H    0.087160
    87  H    0.073340
    88  H    0.078256
    89  H    0.128550
    90  H    0.092148
    91  H    0.127763
    92  H    0.105367
    93  H    0.128685
    94  H    0.085918
    95  H    0.065815
    96  H    0.061227
    97  H    0.080458
    98  H    0.097704
 Sum of Mulliken charges =  -0.00000

 Dipole moment (field-independent basis, Debye):
    X=              1.4023    Y=             -0.9047    Z=              1.4604  Tot=              2.2176
 Quadrupole moment (field-independent basis, Debye-Ang):
   XX=           -293.4734   YY=           -246.6714   ZZ=           -257.2027
   XY=             -0.8640   XZ=             -4.8938   YZ=              3.8098

 Normal termination of Gaussian 16 at Sat Jun 29 15:56:00 2019.
