 Gaussian 16, Revision A.03,
 Gaussian 16:  ES64L-G16RevA.03 25-Dec-2016

 -------------------------------------
 # td=(NStates=1) CAM-B3LYP/6-31G(d,p)
 -------------------------------------

 --
 TD
 --
 Symbolic Z-matrix:
 Charge =  0 Multiplicity = 1

                         Standard orientation:
 ---------------------------------------------------------------------
 Center     Atomic      Atomic             Coordinates (Angstroms)
 Number     Number       Type             X           Y           Z
 ---------------------------------------------------------------------
      1          8           0       14.777253   -2.057486   -0.445805
      2          8           0      -14.692138    2.046870    1.014338
      3          6           0       11.354834   -1.232576    1.269247
      4          6           0      -12.331535   -0.927094    0.773910
      5          6           0       12.935958   -1.508260    1.028870
      6          6           0      -13.646781   -0.097737    0.857645
      7          6           0       13.371713   -1.780039   -0.348188
      8          6           0      -13.448077    1.346997    0.907061
      9          6           0       10.907266   -0.337279    0.114337
     10          6           0      -11.308709   -0.267259   -0.175277
     11          6           0       13.079607   -0.639009   -1.139169
     12          6           0      -12.716245    1.799979   -0.307437
     13          6           0       11.669779   -0.056193   -0.995839
     14          6           0      -11.451219    0.944140   -0.696863
     15          6           0       11.101360   -0.417189    2.478259
     16          6           0       10.578193   -2.564385    1.228321
     17          6           0      -11.729817   -1.085126    2.230966
     18          6           0      -12.684681   -2.322546    0.148911
     19          6           0        9.614230    0.338080    0.255258
     20          6           0      -10.062392   -0.910691   -0.441844
     21          6           0       11.242906    0.836325   -2.239967
     22          6           0      -10.662156    1.712559   -1.643310
     23          6           0        9.397029    1.607653    0.131415
     24          6           0       -8.716286   -0.426445   -0.419589
     25          6           0        7.999960    2.268016    0.262552
     26          6           0       -7.627041   -1.290414   -0.662585
     27          6           0        8.071452    3.727576    0.417093
     28          6           0       -7.734399   -2.806370   -0.806083
     29          6           0        6.918571    1.583771    0.058029
     30          6           0       -6.441962   -0.683023   -0.466852
     31          6           0        5.482897    2.081052    0.096382
     32          6           0       -5.067523   -1.256077   -0.602381
     33          6           0        4.384627    1.267946   -0.007476
     34          6           0       -3.955733   -0.456796   -0.543594
     35          6           0        3.019366    1.647540    0.082117
     36          6           0       -2.588911   -0.974993   -0.692115
     37          6           0        2.673926    3.067522    0.306439
     38          6           0       -2.292325   -2.423249   -0.933689
     39          6           0        2.139343    0.588128   -0.161750
     40          6           0       -1.569977   -0.127209   -0.427751
     41          6           0        0.691332    0.771184    0.046366
     42          6           0       -0.169480   -0.183178   -0.365955
     43          1           0       13.536193   -0.616125    1.345913
     44          1           0       13.014325   -2.394364    1.833434
     45          1           0      -14.099427   -0.325815    1.679521
     46          1           0      -14.081632   -0.223532   -0.129283
     47          1           0       12.648702   -2.601950   -0.710619
     48          1           0      -12.866297    1.500255    1.844105
     49          1           0       13.773626    0.236208   -0.888981
     50          1           0       13.138043   -1.068349   -2.145403
     51          1           0      -13.390689    1.897729   -1.175002
     52          1           0      -12.567519    2.788744   -0.194893
     53          1           0       11.524138   -1.162925    3.201336
     54          1           0       10.280594   -0.109167    2.650393
     55          1           0       11.736274    0.447075    2.505575
     56          1           0       10.494801   -3.075351    0.249216
     57          1           0       11.050745   -3.391685    2.021789
     58          1           0        9.450041   -2.269734    1.453265
     59          1           0      -11.528717   -0.057926    2.593797
     60          1           0      -10.712239   -1.557212    2.200670
     61          1           0      -12.450386   -1.445965    2.990455
     62          1           0      -13.639528   -2.540969    0.794038
     63          1           0      -11.717004   -2.988398    0.098358
     64          1           0      -13.273609   -2.138415   -0.842109
     65          1           0        8.847819   -0.239744    0.544775
     66          1           0      -10.120844   -2.117320   -0.615433
     67          1           0       10.230816    0.892570   -2.308857
     68          1           0       11.731036    1.698480   -2.405697
     69          1           0       11.412613    0.331689   -3.031395
     70          1           0      -11.259965    2.229994   -2.335469
     71          1           0      -10.024868    1.070249   -2.134552
     72          1           0      -10.174520    2.580119   -1.296441
     73          1           0       14.756574   -2.900057    0.110712
     74          1           0      -15.055069    1.675606    1.834227
     75          1           0       10.077528    2.407851   -0.113359
     76          1           0       -8.570152    0.602953   -0.292052
     77          1           0        8.514218    4.206777   -0.509217
     78          1           0        6.973283    4.279039    0.476140
     79          1           0        8.657560    3.945081    1.276265
     80          1           0       -8.276065   -3.497437   -0.089224
     81          1           0       -8.376017   -2.872677   -1.691128
     82          1           0       -6.705811   -3.122758   -1.073050
     83          1           0        6.976359    0.309742   -0.155625
     84          1           0       -6.365243    0.438226   -0.331022
     85          1           0        5.153231    3.104847    0.199651
     86          1           0       -4.874448   -2.278584   -0.902744
     87          1           0        4.578608    0.145140   -0.090287
     88          1           0       -3.817861    0.598287   -0.161715
     89          1           0        3.239110    3.255043    1.249082
     90          1           0        1.675793    3.199334    0.543113
     91          1           0        3.180137    3.757019   -0.534232
     92          1           0       -2.555446   -3.097887    0.143454
     93          1           0       -3.041819   -2.736294   -1.750818
     94          1           0       -1.232448   -2.612919   -1.174366
     95          1           0        2.372529   -0.488183   -0.179781
     96          1           0       -2.021888    1.037554   -0.326198
     97          1           0        0.302055    1.672798    0.374986
     98          1           0        0.217249   -1.183731   -0.866356
 ---------------------------------------------------------------------

 SCF Done:  E(RCAM-B3LYP) =  -1706.94814676     A.U. after   14 cycles

 Excitation energies and oscillator strengths:

 Excited State   1:      Singlet-A      2.8338 eV  437.52 nm  f=3.5842  <S**2>=0.000
     155 ->158         0.17615
     156 ->157         0.67870
 This state for optimization and/or second-order correction.
 Total Energy, E(TD-HF/TD-DFT) =  -1706.84400771
 Copying the excited state density for this state as the 1-particle RhoCI density.

 The electronic state is 1-A.
 Alpha  occ. eigenvalues --  -19.22332 -19.21142 -10.29983 -10.29168 -10.28113
 Alpha  occ. eigenvalues --  -10.27979 -10.27881 -10.27718 -10.27611 -10.27400
 Alpha  occ. eigenvalues --  -10.27210 -10.27084 -10.27056 -10.26999 -10.26971
 Alpha  occ. eigenvalues --  -10.26948 -10.26941 -10.26880 -10.26877 -10.26842
 Alpha  occ. eigenvalues --  -10.26836 -10.26753 -10.26624 -10.26479 -10.26379
 Alpha  occ. eigenvalues --  -10.26377 -10.26242 -10.26228 -10.26100 -10.26079
 Alpha  occ. eigenvalues --  -10.25963 -10.25631 -10.25444 -10.25360 -10.25332
 Alpha  occ. eigenvalues --  -10.24724 -10.24281 -10.23591 -10.23093 -10.23056
 Alpha  occ. eigenvalues --  -10.22503 -10.22051  -1.09540  -1.09489  -0.93989
 Alpha  occ. eigenvalues --   -0.93770  -0.92219  -0.91629  -0.90785  -0.90360
 Alpha  occ. eigenvalues --   -0.87639  -0.87559  -0.87111  -0.85913  -0.85185
 Alpha  occ. eigenvalues --   -0.83154  -0.82098  -0.81154  -0.79991  -0.78167
 Alpha  occ. eigenvalues --   -0.77687  -0.77595  -0.76924  -0.76552  -0.76158
 Alpha  occ. eigenvalues --   -0.75715  -0.75275  -0.75004  -0.73954  -0.70664
 Alpha  occ. eigenvalues --   -0.68490  -0.67380  -0.65105  -0.64294  -0.64222
 Alpha  occ. eigenvalues --   -0.63810  -0.63068  -0.61433  -0.60007  -0.59581
 Alpha  occ. eigenvalues --   -0.59172  -0.58970  -0.58701  -0.57461  -0.56796
 Alpha  occ. eigenvalues --   -0.55923  -0.55279  -0.54795  -0.54432  -0.53853
 Alpha  occ. eigenvalues --   -0.52993  -0.52820  -0.52605  -0.52197  -0.50758
 Alpha  occ. eigenvalues --   -0.50713  -0.50432  -0.50112  -0.49974  -0.49678
 Alpha  occ. eigenvalues --   -0.49424  -0.49196  -0.48785  -0.48535  -0.48399
 Alpha  occ. eigenvalues --   -0.48031  -0.47530  -0.47318  -0.47218  -0.46854
 Alpha  occ. eigenvalues --   -0.46327  -0.46247  -0.46038  -0.45634  -0.45538
 Alpha  occ. eigenvalues --   -0.44950  -0.44634  -0.44469  -0.44095  -0.43869
 Alpha  occ. eigenvalues --   -0.43281  -0.42935  -0.42582  -0.42514  -0.42140
 Alpha  occ. eigenvalues --   -0.41578  -0.41400  -0.41139  -0.41076  -0.41036
 Alpha  occ. eigenvalues --   -0.40546  -0.39966  -0.39616  -0.39392  -0.38905
 Alpha  occ. eigenvalues --   -0.38872  -0.38653  -0.38610  -0.38371  -0.38168
 Alpha  occ. eigenvalues --   -0.37864  -0.37168  -0.36793  -0.36559  -0.35857
 Alpha  occ. eigenvalues --   -0.35501  -0.34694  -0.34174  -0.32812  -0.32300
 Alpha  occ. eigenvalues --   -0.31789  -0.30130  -0.28338  -0.26513  -0.23911
 Alpha  occ. eigenvalues --   -0.21007
 Alpha virt. eigenvalues --   -0.04042   0.00031   0.03193   0.05815   0.08444
 Alpha virt. eigenvalues --    0.09705   0.10801   0.11289   0.11578   0.11876
 Alpha virt. eigenvalues --    0.12070   0.12284   0.12360   0.12682   0.13301

 Mulliken charges:
               1
     1  O   -0.544836
     2  O   -0.555813
     3  C   -0.030778
     4  C   -0.028932
     5  C   -0.187040
     6  C   -0.154357
     7  C    0.156822
     8  C    0.148501
     9  C    0.059195
    10  C    0.096097
    11  C   -0.203601
    12  C   -0.243057
    13  C   -0.009453
    14  C    0.065469
    15  C   -0.253993
    16  C   -0.292389
    17  C   -0.316846
    18  C   -0.288830
    19  C   -0.123651
    20  C   -0.183714
    21  C   -0.345252
    22  C   -0.372549
    23  C   -0.060790
    24  C   -0.077244
    25  C    0.098068
    26  C    0.119596
    27  C   -0.372573
    28  C   -0.363713
    29  C   -0.123832
    30  C   -0.133295
    31  C   -0.110577
    32  C   -0.118300
    33  C   -0.094675
    34  C   -0.094388
    35  C    0.111187
    36  C    0.132488
    37  C   -0.369575
    38  C   -0.350151
    39  C   -0.132836
    40  C   -0.138791
    41  C   -0.082661
    42  C   -0.082800
    43  H    0.097153
    44  H    0.054580
    45  H    0.070410
    46  H    0.103437
    47  H    0.066534
    48  H    0.064533
    49  H    0.112481
    50  H    0.109247
    51  H    0.110062
    52  H    0.111505
    53  H    0.083845
    54  H    0.108707
    55  H    0.107470
    56  H    0.117237
    57  H    0.078848
    58  H    0.091259
    59  H    0.103434
    60  H    0.112108
    61  H    0.101113
    62  H    0.091192
    63  H    0.103937
    64  H    0.098503
    65  H    0.077203
    66  H    0.046905
    67  H    0.120639
    68  H    0.118135
    69  H    0.114775
    70  H    0.111567
    71  H    0.120659
    72  H    0.122046
    73  H    0.310162
    74  H    0.302153
    75  H    0.085112
    76  H    0.091203
    77  H    0.120425
    78  H    0.090731
    79  H    0.128884
    80  H    0.125730
    81  H    0.123583
    82  H    0.108443
    83  H    0.061169
    84  H    0.084129
    85  H    0.072281
    86  H    0.087798
    87  H    0.070540
    88  H    0.087593
    89  H    0.128197
    90  H    0.118651
    91  H    0.121623
    92  H    0.088719
    93  H    0.110726
    94  H    0.115106
    95  H    0.099392
    96  H    0.040839
    97  H    0.082819
    98  H    0.068335
 Sum of Mulliken charges =  -0.00000

 Dipole moment (field-independent basis, Debye):
    X=              0.1297    Y=             -0.6959    Z=              1.3614  Tot=              1.5344
 Quadrupole moment (field-independent basis, Debye-Ang):
   XX=           -301.0869   YY=           -244.2014   ZZ=           -260.5287
   XY=              8.8859   XZ=             -5.2071   YZ=             -0.0139

 Normal termination of Gaussian 16 at Thu Jul 11 15:04:46 2019.
