 Gaussian 16, Revision A.03,
 Gaussian 16:  ES64L-G16RevA.03 25-Dec-2016

 -------------------------------------
 # td=(NStates=1) CAM-B3LYP/6-31G(d,p)
 -------------------------------------

 --
 TD
 --
 Symbolic Z-matrix:
 Charge =  0 Multiplicity = 1

                         Standard orientation:
 ---------------------------------------------------------------------
 Center     Atomic      Atomic             Coordinates (Angstroms)
 Number     Number       Type             X           Y           Z
 ---------------------------------------------------------------------
      1          8           0       14.630530   -2.379103   -0.335263
      2          8           0      -14.699096    2.095554    0.740335
      3          6           0       11.421145   -1.080445    1.276230
      4          6           0      -12.301270   -0.963033    0.808217
      5          6           0       13.026022   -1.358414    1.119456
      6          6           0      -13.637261   -0.126143    0.845858
      7          6           0       13.246790   -2.037405   -0.202601
      8          6           0      -13.450496    1.360408    0.813615
      9          6           0       10.969097   -0.368627   -0.006476
     10          6           0      -11.337116   -0.370755   -0.216086
     11          6           0       12.919903   -1.015159   -1.286926
     12          6           0      -12.661292    1.781884   -0.386305
     13          6           0       11.578274   -0.399444   -1.172696
     14          6           0      -11.461978    0.863295   -0.740564
     15          6           0       11.390708    0.021632    2.417691
     16          6           0       10.562111   -2.270714    1.627339
     17          6           0      -11.763281   -1.056344    2.162105
     18          6           0      -12.747584   -2.391739    0.253487
     19          6           0        9.526216    0.228860    0.124094
     20          6           0      -10.032198   -1.118904   -0.524556
     21          6           0       11.051830    0.104090   -2.466769
     22          6           0      -10.541952    1.513109   -1.758189
     23          6           0        9.378769    1.522765   -0.259585
     24          6           0       -8.844146   -0.712608   -0.224604
     25          6           0        8.054093    2.268278    0.078829
     26          6           0       -7.514380   -1.389993   -0.539711
     27          6           0        8.090095    3.780806    0.326042
     28          6           0       -7.569356   -2.857149   -0.933793
     29          6           0        6.857414    1.689269   -0.050671
     30          6           0       -6.431859   -0.798257   -0.291304
     31          6           0        5.508289    2.139562    0.075949
     32          6           0       -5.007777   -1.133625   -0.442931
     33          6           0        4.433347    1.382773    0.066016
     34          6           0       -4.001560   -0.340817   -0.268204
     35          6           0        2.973955    1.691645    0.030498
     36          6           0       -2.641752   -0.692225   -0.356268
     37          6           0        2.859883    3.153302    0.302774
     38          6           0       -2.438654   -2.140888   -0.795971
     39          6           0        2.076159    0.787646   -0.215223
     40          6           0       -1.629648    0.210392   -0.188354
     41          6           0        0.659655    1.059472   -0.141603
     42          6           0       -0.206495    0.001711   -0.203093
     43          1           0       13.485600   -0.466869    1.378527
     44          1           0       13.337666   -1.885498    2.014325
     45          1           0      -14.312767   -0.468580    1.613621
     46          1           0      -14.228622   -0.349896   -0.105669
     47          1           0       12.605495   -2.931377   -0.327717
     48          1           0      -12.898369    1.603824    1.767740
     49          1           0       13.737042   -0.424096   -1.229376
     50          1           0       13.351957   -1.450087   -2.171433
     51          1           0      -13.205349    1.700361   -1.285637
     52          1           0      -12.342590    2.782411   -0.222544
     53          1           0       11.674534   -0.130307    3.591005
     54          1           0       10.395356    0.466227    2.576884
     55          1           0       12.210927    0.792000    2.264642
     56          1           0       10.478686   -2.697816    0.612428
     57          1           0       10.745277   -3.009371    2.476578
     58          1           0        9.515750   -2.002276    1.915329
     59          1           0      -11.622529    0.031107    2.600643
     60          1           0      -10.827778   -1.642029    2.420193
     61          1           0      -12.484674   -1.444648    3.049723
     62          1           0      -13.565312   -2.879647    0.893560
     63          1           0      -11.924674   -3.384692    0.362231
     64          1           0      -13.075514   -2.389834   -0.935973
     65          1           0        8.757565   -0.294416    0.735193
     66          1           0      -10.450937   -2.053968   -0.640894
     67          1           0       10.081072    0.258839   -2.264221
     68          1           0       11.491806    1.170282   -2.677073
     69          1           0       11.162722   -0.398216   -3.352895
     70          1           0      -11.020025    1.754273   -2.682230
     71          1           0       -9.716951    1.042429   -2.030080
     72          1           0      -10.123403    2.453860   -1.487773
     73          1           0       14.972505   -2.931747    0.311397
     74          1           0      -15.349824    1.733594    1.435047
     75          1           0       10.254396    2.153432   -0.554788
     76          1           0       -8.593052    0.289118   -0.084446
     77          1           0        8.686096    4.474604   -0.349058
     78          1           0        7.023091    4.133270    0.408443
     79          1           0        8.499516    3.910319    1.393624
     80          1           0       -8.034297   -3.334064   -0.037370
     81          1           0       -8.024520   -2.661198   -1.841748
     82          1           0       -6.649449   -3.285350   -1.180279
     83          1           0        6.913296    0.577292   -0.350329
     84          1           0       -6.389300    0.326782    0.000581
     85          1           0        5.568173    3.195456    0.176814
     86          1           0       -4.866766   -2.079194   -0.843142
     87          1           0        4.951391    0.373753   -0.173219
     88          1           0       -4.206552    0.731196    0.054494
     89          1           0        3.222863    3.563881    1.169656
     90          1           0        1.788826    3.730359    0.361848
     91          1           0        3.425062    3.706942   -0.487089
     92          1           0       -2.696764   -2.786766   -0.125060
     93          1           0       -2.855129   -2.427649   -1.724743
     94          1           0       -1.394012   -2.319885   -0.896120
     95          1           0        2.223411   -0.303592   -0.540997
     96          1           0       -1.907077    1.079062    0.362975
     97          1           0        0.321336    1.992888   -0.089629
     98          1           0        0.251155   -0.955364   -0.430817
 ---------------------------------------------------------------------

 SCF Done:  E(RCAM-B3LYP) =  -1706.97387344     A.U. after   13 cycles

 Excitation energies and oscillator strengths:

 Excited State   1:      Singlet-A      3.2581 eV  380.54 nm  f=3.5045  <S**2>=0.000
     155 ->158        -0.17369
     156 ->157         0.67876
 This state for optimization and/or second-order correction.
 Total Energy, E(TD-HF/TD-DFT) =  -1706.85413949
 Copying the excited state density for this state as the 1-particle RhoCI density.

 The electronic state is 1-A.
 Alpha  occ. eigenvalues --  -19.21403 -19.19983 -10.30374 -10.30174 -10.29024
 Alpha  occ. eigenvalues --  -10.28743 -10.28403 -10.27705 -10.27579 -10.27241
 Alpha  occ. eigenvalues --  -10.26936 -10.26871 -10.26757 -10.26685 -10.26498
 Alpha  occ. eigenvalues --  -10.26415 -10.26391 -10.26275 -10.26244 -10.26233
 Alpha  occ. eigenvalues --  -10.26198 -10.25830 -10.25755 -10.25657 -10.25544
 Alpha  occ. eigenvalues --  -10.25534 -10.25476 -10.25442 -10.25357 -10.25294
 Alpha  occ. eigenvalues --  -10.25269 -10.25223 -10.24855 -10.24820 -10.24744
 Alpha  occ. eigenvalues --  -10.24276 -10.24094 -10.24086 -10.23475 -10.23170
 Alpha  occ. eigenvalues --  -10.23150 -10.23061  -1.09276  -1.07531  -0.93586
 Alpha  occ. eigenvalues --   -0.93468  -0.92656  -0.92139  -0.90764  -0.89970
 Alpha  occ. eigenvalues --   -0.87596  -0.86867  -0.86814  -0.85824  -0.85168
 Alpha  occ. eigenvalues --   -0.83656  -0.82388  -0.80806  -0.80313  -0.79029
 Alpha  occ. eigenvalues --   -0.77417  -0.76976  -0.76950  -0.76065  -0.75919
 Alpha  occ. eigenvalues --   -0.75459  -0.74704  -0.74418  -0.74086  -0.70798
 Alpha  occ. eigenvalues --   -0.68765  -0.67783  -0.66382  -0.65121  -0.64450
 Alpha  occ. eigenvalues --   -0.64273  -0.63460  -0.63211  -0.61389  -0.60377
 Alpha  occ. eigenvalues --   -0.59672  -0.59325  -0.57757  -0.57547  -0.56056
 Alpha  occ. eigenvalues --   -0.55309  -0.55257  -0.54898  -0.54094  -0.53487
 Alpha  occ. eigenvalues --   -0.53119  -0.52616  -0.52187  -0.51545  -0.51469
 Alpha  occ. eigenvalues --   -0.51157  -0.50570  -0.50464  -0.49978  -0.49907
 Alpha  occ. eigenvalues --   -0.49668  -0.49295  -0.48647  -0.48616  -0.48438
 Alpha  occ. eigenvalues --   -0.48211  -0.48053  -0.47489  -0.46748  -0.46571
 Alpha  occ. eigenvalues --   -0.45873  -0.45597  -0.45315  -0.45246  -0.44830
 Alpha  occ. eigenvalues --   -0.44648  -0.44466  -0.43576  -0.43533  -0.42955
 Alpha  occ. eigenvalues --   -0.42666  -0.42547  -0.42441  -0.42145  -0.41509
 Alpha  occ. eigenvalues --   -0.41414  -0.41105  -0.41092  -0.41070  -0.40086
 Alpha  occ. eigenvalues --   -0.40048  -0.39945  -0.39590  -0.39463  -0.39346
 Alpha  occ. eigenvalues --   -0.39316  -0.38616  -0.37839  -0.37791  -0.37260
 Alpha  occ. eigenvalues --   -0.36959  -0.36777  -0.36657  -0.36054  -0.35259
 Alpha  occ. eigenvalues --   -0.34851  -0.34220  -0.34000  -0.32849  -0.32020
 Alpha  occ. eigenvalues --   -0.31600  -0.30248  -0.28805  -0.27302  -0.25212
 Alpha  occ. eigenvalues --   -0.22063
 Alpha virt. eigenvalues --   -0.03046   0.00910   0.03956   0.06280   0.08281
 Alpha virt. eigenvalues --    0.09276   0.10796   0.11845   0.12287   0.12910
 Alpha virt. eigenvalues --    0.13454   0.13694   0.13908   0.14114   0.14337

 Mulliken charges:
               1
     1  O   -0.577348
     2  O   -0.571630
     3  C   -0.022212
     4  C    0.018618
     5  C   -0.180435
     6  C   -0.202910
     7  C    0.164908
     8  C    0.177578
     9  C    0.031224
    10  C    0.010020
    11  C   -0.231372
    12  C   -0.204402
    13  C    0.082404
    14  C    0.035269
    15  C   -0.316540
    16  C   -0.304456
    17  C   -0.294917
    18  C   -0.299712
    19  C   -0.124916
    20  C   -0.118154
    21  C   -0.352102
    22  C   -0.364120
    23  C   -0.094727
    24  C   -0.047575
    25  C    0.061657
    26  C    0.040152
    27  C   -0.375511
    28  C   -0.344553
    29  C   -0.127902
    30  C   -0.113771
    31  C   -0.029786
    32  C   -0.070456
    33  C   -0.134390
    34  C   -0.100714
    35  C    0.129753
    36  C    0.109101
    37  C   -0.382282
    38  C   -0.377368
    39  C   -0.135005
    40  C   -0.152422
    41  C   -0.045872
    42  C   -0.094293
    43  H    0.106263
    44  H    0.077497
    45  H    0.085796
    46  H    0.095046
    47  H    0.083820
    48  H    0.071673
    49  H    0.129409
    50  H    0.105187
    51  H    0.127342
    52  H    0.114572
    53  H    0.067877
    54  H    0.104852
    55  H    0.095808
    56  H    0.105991
    57  H    0.108169
    58  H    0.099186
    59  H    0.092797
    60  H    0.113667
    61  H    0.080214
    62  H    0.100940
    63  H    0.064236
    64  H    0.096147
    65  H    0.109490
    66  H    0.085846
    67  H    0.127173
    68  H    0.093454
    69  H    0.121493
    70  H    0.110776
    71  H    0.120795
    72  H    0.112013
    73  H    0.298216
    74  H    0.304680
    75  H    0.107161
    76  H    0.085044
    77  H    0.116582
    78  H    0.107157
    79  H    0.111967
    80  H    0.125515
    81  H    0.135565
    82  H    0.106234
    83  H    0.063075
    84  H    0.050094
    85  H    0.057803
    86  H    0.070530
    87  H    0.067581
    88  H    0.069577
    89  H    0.141118
    90  H    0.080212
    91  H    0.127827
    92  H    0.135503
    93  H    0.123845
    94  H    0.097395
    95  H    0.092762
    96  H    0.087727
    97  H    0.078442
    98  H    0.082020
 Sum of Mulliken charges =  -0.00000

 Dipole moment (field-independent basis, Debye):
    X=             -0.2271    Y=             -1.1827    Z=              1.7485  Tot=              2.1231
 Quadrupole moment (field-independent basis, Debye-Ang):
   XX=           -260.4076   YY=           -247.0338   ZZ=           -257.0185
   XY=             17.2718   XZ=             -0.3091   YZ=             -1.3365

 Normal termination of Gaussian 16 at Thu Jul 11 13:32:13 2019.
