 Gaussian 16, Revision A.03,
 Gaussian 16:  ES64L-G16RevA.03 25-Dec-2016

 -------------------------------------
 # td=(NStates=1) CAM-B3LYP/6-31G(d,p)
 -------------------------------------

 --
 TD
 --
 Symbolic Z-matrix:
 Charge =  0 Multiplicity = 1

                         Standard orientation:
 ---------------------------------------------------------------------
 Center     Atomic      Atomic             Coordinates (Angstroms)
 Number     Number       Type             X           Y           Z
 ---------------------------------------------------------------------
      1          8           0       14.965527   -1.793192   -0.459827
      2          8           0      -14.668314    2.153226    0.597659
      3          6           0       11.576681   -0.977735    1.177096
      4          6           0      -12.367835   -0.836744    0.627707
      5          6           0       13.169962   -1.218650    1.117797
      6          6           0      -13.601850   -0.023859    0.586256
      7          6           0       13.548537   -1.650733   -0.282152
      8          6           0      -13.433236    1.502424    0.628192
      9          6           0       10.994040   -0.257597   -0.074906
     10          6           0      -11.369504   -0.294725   -0.217471
     11          6           0       13.105445   -0.664725   -1.421164
     12          6           0      -12.682349    1.873204   -0.604591
     13          6           0       11.635543   -0.204469   -1.291256
     14          6           0      -11.594784    0.978414   -0.813218
     15          6           0       11.197207   -0.094247    2.401273
     16          6           0       10.788824   -2.338019    1.399803
     17          6           0      -11.805529   -0.776722    2.129555
     18          6           0      -12.767111   -2.302223    0.344351
     19          6           0        9.554536    0.321481    0.154187
     20          6           0      -10.140712   -1.013438   -0.390921
     21          6           0       11.019612    0.321359   -2.474647
     22          6           0      -10.689000    1.638637   -1.901490
     23          6           0        9.210579    1.518474   -0.166685
     24          6           0       -8.805643   -0.656783   -0.297251
     25          6           0        7.906678    2.241130   -0.019516
     26          6           0       -7.626249   -1.321987   -0.488830
     27          6           0        8.053718    3.702449    0.276331
     28          6           0       -7.799486   -2.797706   -0.838555
     29          6           0        6.810394    1.544821   -0.110247
     30          6           0       -6.416183   -0.744836   -0.245725
     31          6           0        5.416867    1.960249    0.120471
     32          6           0       -5.137821   -1.266543   -0.275076
     33          6           0        4.411271    1.136280   -0.060311
     34          6           0       -3.886853   -0.552902   -0.120342
     35          6           0        3.077502    1.468846    0.171975
     36          6           0       -2.584747   -1.013143   -0.220717
     37          6           0        2.687408    2.852824    0.689267
     38          6           0       -2.395717   -2.411329   -0.870964
     39          6           0        2.063662    0.447753    0.033482
     40          6           0       -1.591130   -0.161998    0.034386
     41          6           0        0.669594    0.603113    0.296248
     42          6           0       -0.205014   -0.305767   -0.138619
     43          1           0       13.731324   -0.402568    1.474090
     44          1           0       13.330757   -1.982054    1.777614
     45          1           0      -14.150651   -0.372626    1.485406
     46          1           0      -14.147864   -0.295435   -0.267098
     47          1           0       13.121393   -2.561774   -0.519395
     48          1           0      -12.786144    1.800633    1.444867
     49          1           0       13.754898    0.231492   -1.150361
     50          1           0       13.197333   -1.144743   -2.388103
     51          1           0      -13.513178    1.749406   -1.378203
     52          1           0      -12.385580    2.902199   -0.642581
     53          1           0       11.749783   -0.562220    3.247604
     54          1           0       10.141236    0.019603    2.727865
     55          1           0       11.661221    0.831795    2.401453
     56          1           0       10.950179   -2.860928    0.260741
     57          1           0       11.155145   -2.918476    2.306462
     58          1           0        9.772513   -2.170714    1.671425
     59          1           0      -11.470753    0.150866    2.335635
     60          1           0      -11.001935   -1.420041    2.228421
     61          1           0      -12.596021   -1.266353    2.830814
     62          1           0      -13.763898   -2.402440    0.895331
     63          1           0      -11.967491   -2.821715    0.643965
     64          1           0      -12.848022   -2.266996   -0.737434
     65          1           0        8.989568   -0.413307    0.606790
     66          1           0      -10.220767   -2.126477   -0.415683
     67          1           0        9.792752    0.358607   -2.317059
     68          1           0       11.280438    1.349234   -2.819982
     69          1           0       11.116706   -0.428867   -3.487101
     70          1           0      -11.316255    2.389460   -2.486213
     71          1           0      -10.091332    0.871512   -2.618919
     72          1           0       -9.991357    2.257491   -1.139052
     73          1           0       15.365110   -2.428577    0.074445
     74          1           0      -15.093163    2.206213    1.554139
     75          1           0       10.087887    2.035993   -0.484352
     76          1           0       -8.678022    0.406442   -0.057243
     77          1           0        8.483197    4.316984   -0.449361
     78          1           0        7.169420    4.116837    0.414651
     79          1           0        8.523081    3.820353    1.239795
     80          1           0       -8.349029   -3.362667    0.166170
     81          1           0       -8.236268   -2.998252   -1.654281
     82          1           0       -6.713002   -3.386721   -0.813399
     83          1           0        6.989544    0.714791   -0.388199
     84          1           0       -6.616019    0.398330    0.151279
     85          1           0        5.341332    3.024442    0.332394
     86          1           0       -5.193362   -2.259734   -0.408875
     87          1           0        4.586567    0.067283   -0.338230
     88          1           0       -4.001843    0.386577    0.050764
     89          1           0        3.318181    3.029305    1.571577
     90          1           0        1.620871    3.135002    0.993601
     91          1           0        3.272574    3.616719    0.045845
     92          1           0       -3.036849   -3.128977   -0.253918
     93          1           0       -2.575773   -2.437018   -1.938525
     94          1           0       -1.363091   -2.611752   -0.807265
     95          1           0        2.365398   -0.569373   -0.026385
     96          1           0       -1.657533    0.745915    0.727470
     97          1           0        0.378269    1.742796    0.367433
     98          1           0        0.156978   -1.303215   -0.325833
 ---------------------------------------------------------------------

 SCF Done:  E(RCAM-B3LYP) =  -1706.93752488     A.U. after   15 cycles

 Excitation energies and oscillator strengths:

 Excited State   1:      Singlet-A      2.3246 eV  533.36 nm  f=3.6242  <S**2>=0.000
     155 ->158         0.14878
     156 ->157         0.69087
 This state for optimization and/or second-order correction.
 Total Energy, E(TD-HF/TD-DFT) =  -1706.85209806
 Copying the excited state density for this state as the 1-particle RhoCI density.

 The electronic state is 1-A.
 Alpha  occ. eigenvalues --  -19.21800 -19.19962 -10.29852 -10.29376 -10.28287
 Alpha  occ. eigenvalues --  -10.28101 -10.27339 -10.27048 -10.26859 -10.26850
 Alpha  occ. eigenvalues --  -10.26776 -10.26773 -10.26739 -10.26715 -10.26700
 Alpha  occ. eigenvalues --  -10.26657 -10.26546 -10.26359 -10.26157 -10.26153
 Alpha  occ. eigenvalues --  -10.26071 -10.25975 -10.25965 -10.25922 -10.25826
 Alpha  occ. eigenvalues --  -10.25721 -10.25696 -10.25528 -10.25467 -10.25316
 Alpha  occ. eigenvalues --  -10.25297 -10.25215 -10.24981 -10.24738 -10.24603
 Alpha  occ. eigenvalues --  -10.24373 -10.23930 -10.23836 -10.23653 -10.23193
 Alpha  occ. eigenvalues --  -10.23184 -10.23094  -1.09046  -1.08856  -0.94789
 Alpha  occ. eigenvalues --   -0.92984  -0.92587  -0.91939  -0.91356  -0.90387
 Alpha  occ. eigenvalues --   -0.88083  -0.87853  -0.86316  -0.85515  -0.85004
 Alpha  occ. eigenvalues --   -0.83152  -0.82153  -0.81199  -0.79194  -0.78620
 Alpha  occ. eigenvalues --   -0.77691  -0.76928  -0.76616  -0.76140  -0.75759
 Alpha  occ. eigenvalues --   -0.75389  -0.75028  -0.74421  -0.73687  -0.71736
 Alpha  occ. eigenvalues --   -0.69072  -0.67659  -0.66538  -0.65295  -0.63701
 Alpha  occ. eigenvalues --   -0.63197  -0.62967  -0.62110  -0.61541  -0.61198
 Alpha  occ. eigenvalues --   -0.59847  -0.59260  -0.59117  -0.58203  -0.56557
 Alpha  occ. eigenvalues --   -0.55644  -0.55437  -0.55038  -0.54799  -0.53697
 Alpha  occ. eigenvalues --   -0.53638  -0.53231  -0.52555  -0.51477  -0.51021
 Alpha  occ. eigenvalues --   -0.50407  -0.50182  -0.49871  -0.49691  -0.49320
 Alpha  occ. eigenvalues --   -0.49145  -0.48957  -0.48676  -0.48431  -0.48092
 Alpha  occ. eigenvalues --   -0.47864  -0.47803  -0.47019  -0.46675  -0.46501
 Alpha  occ. eigenvalues --   -0.45984  -0.45541  -0.45357  -0.45066  -0.44821
 Alpha  occ. eigenvalues --   -0.44759  -0.44757  -0.44357  -0.44148  -0.43875
 Alpha  occ. eigenvalues --   -0.43425  -0.43037  -0.42679  -0.42545  -0.42125
 Alpha  occ. eigenvalues --   -0.41764  -0.41336  -0.41188  -0.40920  -0.40775
 Alpha  occ. eigenvalues --   -0.40476  -0.40196  -0.40011  -0.39823  -0.39293
 Alpha  occ. eigenvalues --   -0.38820  -0.38653  -0.38346  -0.38058  -0.37917
 Alpha  occ. eigenvalues --   -0.37382  -0.37063  -0.36937  -0.36070  -0.35724
 Alpha  occ. eigenvalues --   -0.35347  -0.34964  -0.34065  -0.32422  -0.32146
 Alpha  occ. eigenvalues --   -0.31640  -0.29731  -0.27367  -0.26340  -0.23594
 Alpha  occ. eigenvalues --   -0.19722
 Alpha virt. eigenvalues --   -0.05638  -0.00669   0.03361   0.05470   0.07732
 Alpha virt. eigenvalues --    0.09542   0.11143   0.11669   0.12170   0.12490
 Alpha virt. eigenvalues --    0.12635   0.13087   0.13231   0.13522   0.14029

 Mulliken charges:
               1
     1  O   -0.569016
     2  O   -0.569532
     3  C   -0.030968
     4  C   -0.065889
     5  C   -0.187466
     6  C   -0.171251
     7  C    0.163024
     8  C    0.163915
     9  C    0.029877
    10  C    0.106968
    11  C   -0.205036
    12  C   -0.233855
    13  C    0.074006
    14  C    0.044282
    15  C   -0.313183
    16  C   -0.289432
    17  C   -0.296811
    18  C   -0.286513
    19  C   -0.099935
    20  C   -0.158542
    21  C   -0.369153
    22  C   -0.341084
    23  C   -0.100167
    24  C   -0.101120
    25  C    0.057410
    26  C    0.146649
    27  C   -0.367136
    28  C   -0.346364
    29  C   -0.035420
    30  C   -0.123528
    31  C   -0.102041
    32  C   -0.090874
    33  C   -0.082720
    34  C   -0.069758
    35  C    0.112902
    36  C    0.091949
    37  C   -0.386834
    38  C   -0.354819
    39  C   -0.142500
    40  C   -0.134555
    41  C   -0.099603
    42  C   -0.065997
    43  H    0.108471
    44  H    0.096462
    45  H    0.069867
    46  H    0.098825
    47  H    0.085956
    48  H    0.077498
    49  H    0.119420
    50  H    0.110255
    51  H    0.122058
    52  H    0.112796
    53  H    0.079990
    54  H    0.106957
    55  H    0.110996
    56  H    0.080153
    57  H    0.096161
    58  H    0.113212
    59  H    0.107837
    60  H    0.107979
    61  H    0.076374
    62  H    0.097635
    63  H    0.110824
    64  H    0.106835
    65  H    0.080245
    66  H    0.066246
    67  H    0.100086
    68  H    0.119194
    69  H    0.069833
    70  H    0.110403
    71  H    0.110048
    72  H    0.104469
    73  H    0.295242
    74  H    0.310983
    75  H    0.084086
    76  H    0.063617
    77  H    0.126586
    78  H    0.110055
    79  H    0.123277
    80  H    0.086982
    81  H    0.138889
    82  H    0.077520
    83  H    0.025140
    84  H    0.059872
    85  H    0.078749
    86  H    0.060513
    87  H    0.091530
    88  H    0.064990
    89  H    0.129186
    90  H    0.119287
    91  H    0.109172
    92  H    0.116627
    93  H    0.132681
    94  H    0.107113
    95  H    0.081283
    96  H    0.087336
    97  H    0.078898
    98  H    0.083420
 Sum of Mulliken charges =  -0.00000

 Dipole moment (field-independent basis, Debye):
    X=              0.5868    Y=             -0.4053    Z=              2.8420  Tot=              2.9301
 Quadrupole moment (field-independent basis, Debye-Ang):
   XX=           -273.1561   YY=           -243.4873   ZZ=           -259.1954
   XY=             -4.0952   XZ=              2.5155   YZ=              3.7768

 Normal termination of Gaussian 16 at Thu Jul  4 00:10:27 2019.
