 Gaussian 16, Revision A.03,
 Gaussian 16:  ES64L-G16RevA.03 25-Dec-2016

 -------------------------------------
 # td=(NStates=1) CAM-B3LYP/6-31G(d,p)
 -------------------------------------

 --
 TD
 --
 Symbolic Z-matrix:
 Charge =  0 Multiplicity = 1

                         Standard orientation:
 ---------------------------------------------------------------------
 Center     Atomic      Atomic             Coordinates (Angstroms)
 Number     Number       Type             X           Y           Z
 ---------------------------------------------------------------------
      1          8           0       14.486822   -2.601936   -0.458490
      2          8           0      -14.808228    1.922098    0.515353
      3          6           0       11.500638   -1.015845    1.195613
      4          6           0      -12.362189   -0.942350    0.758886
      5          6           0       12.970401   -1.515300    1.046226
      6          6           0      -13.767898   -0.251157    0.728361
      7          6           0       13.138981   -2.010977   -0.352185
      8          6           0      -13.547213    1.235588    0.639870
      9          6           0       10.977749   -0.310932   -0.043421
     10          6           0      -11.320961   -0.405992   -0.281756
     11          6           0       12.990215   -0.891764   -1.385950
     12          6           0      -12.744883    1.648265   -0.559646
     13          6           0       11.633441   -0.281391   -1.110311
     14          6           0      -11.511108    0.787299   -0.830529
     15          6           0       11.346304   -0.150519    2.425373
     16          6           0       10.457555   -2.266680    1.372592
     17          6           0      -11.810613   -0.769126    2.138427
     18          6           0      -12.709831   -2.400793    0.478571
     19          6           0        9.701989    0.475354    0.137517
     20          6           0      -10.033521   -1.137545   -0.387460
     21          6           0       11.163537    0.315116   -2.441378
     22          6           0      -10.643714    1.473380   -1.847046
     23          6           0        9.389814    1.621913   -0.220675
     24          6           0       -8.793359   -0.549862   -0.401932
     25          6           0        8.058821    2.293900    0.033165
     26          6           0       -7.568065   -1.269476   -0.465271
     27          6           0        8.212608    3.696261    0.406218
     28          6           0       -7.619046   -2.779221   -0.670013
     29          6           0        7.041891    1.516821   -0.169193
     30          6           0       -6.426692   -0.571035   -0.464921
     31          6           0        5.609707    2.082501    0.121883
     32          6           0       -4.965784   -1.119469   -0.436672
     33          6           0        4.535974    1.303503    0.041409
     34          6           0       -3.924185   -0.275987   -0.271924
     35          6           0        3.066762    1.752028    0.315733
     36          6           0       -2.601552   -0.712300   -0.342015
     37          6           0        2.816908    3.076548    0.692005
     38          6           0       -2.403897   -2.128309   -0.677612
     39          6           0        2.166907    0.758344    0.046883
     40          6           0       -1.683944    0.254271   -0.149720
     41          6           0        0.754859    0.988993    0.034399
     42          6           0       -0.289559    0.073317   -0.305342
     43          1           0       13.529700   -0.438036    1.245956
     44          1           0       13.191676   -2.158881    1.866970
     45          1           0      -14.208569   -0.686634    1.646550
     46          1           0      -14.185362   -0.626090   -0.173238
     47          1           0       12.451523   -2.910334   -0.694103
     48          1           0      -12.979221    1.603928    1.452941
     49          1           0       13.956429   -0.330185   -1.349403
     50          1           0       12.986530   -1.523615   -2.245613
     51          1           0      -13.348628    1.377461   -1.286295
     52          1           0      -12.733559    2.795365   -0.594616
     53          1           0       11.784750   -0.677637    3.321069
     54          1           0       10.490792    0.250719    2.763349
     55          1           0       12.122600    0.689065    2.423159
     56          1           0       10.507089   -2.989977    0.803164
     57          1           0       10.902666   -2.635241    2.331258
     58          1           0        9.548628   -1.789563    1.468810
     59          1           0      -11.587788    0.200553    2.588260
     60          1           0      -10.791698   -1.214913    2.448344
     61          1           0      -12.596479   -1.252635    2.939980
     62          1           0      -13.513320   -2.719137    1.034742
     63          1           0      -11.860470   -2.926954    0.854578
     64          1           0      -13.122288   -2.513609   -0.464926
     65          1           0        9.020710   -0.073698    0.837779
     66          1           0      -10.020307   -2.288691   -0.336471
     67          1           0       10.027468    0.438469   -2.362430
     68          1           0       11.534663    1.287226   -2.961575
     69          1           0       11.426234   -0.511973   -3.142737
     70          1           0      -11.365662    1.868973   -2.539836
     71          1           0      -10.056671    0.812049   -2.270224
     72          1           0       -9.887116    2.383515   -1.718012
     73          1           0       14.601738   -3.376709    0.233870
     74          1           0      -15.475074    2.004320    1.503447
     75          1           0       10.081475    2.253682   -0.530607
     76          1           0       -8.914682    0.679652   -0.341392
     77          1           0        9.071367    4.332180   -0.144945
     78          1           0        7.324594    4.152270    0.400805
     79          1           0        8.477091    3.715632    1.405696
     80          1           0       -8.074450   -3.410015    0.261661
     81          1           0       -8.696012   -3.000425   -1.423754
     82          1           0       -6.570644   -3.011821   -1.189710
     83          1           0        7.096013    0.483107   -0.429067
     84          1           0       -6.465664    0.395066   -0.261469
     85          1           0        5.442149    3.167052    0.217431
     86          1           0       -4.842998   -2.252658   -0.447967
     87          1           0        4.710005    0.301858   -0.203537
     88          1           0       -4.028047    0.883849   -0.237256
     89          1           0        3.368558    3.431496    1.833524
     90          1           0        1.762834    3.373148    0.594073
     91          1           0        3.359583    3.926267    0.231592
     92          1           0       -2.800261   -2.790513    0.062383
     93          1           0       -2.676619   -2.501774   -1.833642
     94          1           0       -1.262707   -2.353460   -0.564080
     95          1           0        2.637511   -0.189564   -0.362126
     96          1           0       -1.967134    1.244252    0.049398
     97          1           0        0.487762    1.944742    0.327089
     98          1           0       -0.141754   -0.986682   -0.282708
 ---------------------------------------------------------------------

 SCF Done:  E(RCAM-B3LYP) =  -1706.85772444     A.U. after   13 cycles

 Excitation energies and oscillator strengths:

 Excited State   1:      Singlet-A      2.8764 eV  431.04 nm  f=3.3465  <S**2>=0.000
     155 ->158         0.14209
     156 ->157         0.68957
 This state for optimization and/or second-order correction.
 Total Energy, E(TD-HF/TD-DFT) =  -1706.75201762
 Copying the excited state density for this state as the 1-particle RhoCI density.

 The electronic state is 1-A.
 Alpha  occ. eigenvalues --  -19.21351 -19.20320 -10.30892 -10.29357 -10.28874
 Alpha  occ. eigenvalues --  -10.28023 -10.27797 -10.27666 -10.27415 -10.27128
 Alpha  occ. eigenvalues --  -10.26950 -10.26813 -10.26796 -10.26754 -10.26684
 Alpha  occ. eigenvalues --  -10.26497 -10.26372 -10.26281 -10.26270 -10.26262
 Alpha  occ. eigenvalues --  -10.26236 -10.26222 -10.26144 -10.25897 -10.25648
 Alpha  occ. eigenvalues --  -10.25641 -10.25625 -10.25563 -10.25413 -10.25388
 Alpha  occ. eigenvalues --  -10.25278 -10.25215 -10.25025 -10.24995 -10.24835
 Alpha  occ. eigenvalues --  -10.24438 -10.24185 -10.23870 -10.23832 -10.23627
 Alpha  occ. eigenvalues --  -10.22837 -10.22609  -1.05676  -1.04959  -0.94534
 Alpha  occ. eigenvalues --   -0.93398  -0.93014  -0.92179  -0.91269  -0.90401
 Alpha  occ. eigenvalues --   -0.87574  -0.87192  -0.86646  -0.85762  -0.84376
 Alpha  occ. eigenvalues --   -0.83359  -0.81520  -0.81093  -0.79677  -0.78559
 Alpha  occ. eigenvalues --   -0.77712  -0.77502  -0.76759  -0.76651  -0.76116
 Alpha  occ. eigenvalues --   -0.75579  -0.75044  -0.74680  -0.74319  -0.70582
 Alpha  occ. eigenvalues --   -0.68017  -0.67059  -0.65336  -0.65082  -0.64116
 Alpha  occ. eigenvalues --   -0.63699  -0.62556  -0.61677  -0.60786  -0.59693
 Alpha  occ. eigenvalues --   -0.59261  -0.58539  -0.57828  -0.57417  -0.56634
 Alpha  occ. eigenvalues --   -0.55865  -0.55413  -0.54820  -0.54584  -0.54055
 Alpha  occ. eigenvalues --   -0.53850  -0.53006  -0.52869  -0.51764  -0.51492
 Alpha  occ. eigenvalues --   -0.51175  -0.50677  -0.49748  -0.49476  -0.49402
 Alpha  occ. eigenvalues --   -0.48875  -0.48820  -0.48617  -0.48302  -0.47924
 Alpha  occ. eigenvalues --   -0.47384  -0.47070  -0.46517  -0.45988  -0.45848
 Alpha  occ. eigenvalues --   -0.45780  -0.45656  -0.45408  -0.45248  -0.45064
 Alpha  occ. eigenvalues --   -0.45021  -0.44243  -0.44100  -0.43923  -0.43526
 Alpha  occ. eigenvalues --   -0.43325  -0.42796  -0.42636  -0.42562  -0.42166
 Alpha  occ. eigenvalues --   -0.41870  -0.41520  -0.41246  -0.41139  -0.40628
 Alpha  occ. eigenvalues --   -0.40233  -0.40004  -0.39880  -0.39545  -0.39096
 Alpha  occ. eigenvalues --   -0.38649  -0.38259  -0.38101  -0.37677  -0.37094
 Alpha  occ. eigenvalues --   -0.36881  -0.36688  -0.35970  -0.35614  -0.35314
 Alpha  occ. eigenvalues --   -0.34948  -0.34641  -0.33068  -0.32319  -0.31557
 Alpha  occ. eigenvalues --   -0.30783  -0.30098  -0.28989  -0.27126  -0.24887
 Alpha  occ. eigenvalues --   -0.21128
 Alpha virt. eigenvalues --   -0.04168   0.00927   0.03282   0.06230   0.07386
 Alpha virt. eigenvalues --    0.08377   0.09208   0.11306   0.11665   0.11815
 Alpha virt. eigenvalues --    0.12278   0.12713   0.12824   0.13180   0.13381

 Mulliken charges:
               1
     1  O   -0.597496
     2  O   -0.586960
     3  C   -0.058341
     4  C   -0.049013
     5  C   -0.173112
     6  C   -0.165394
     7  C    0.165940
     8  C    0.175972
     9  C    0.153458
    10  C    0.079826
    11  C   -0.218560
    12  C   -0.230800
    13  C   -0.003024
    14  C    0.026558
    15  C   -0.310746
    16  C   -0.281413
    17  C   -0.296671
    18  C   -0.296876
    19  C   -0.107587
    20  C   -0.150334
    21  C   -0.358425
    22  C   -0.360772
    23  C   -0.089870
    24  C   -0.089346
    25  C    0.103432
    26  C    0.136862
    27  C   -0.367611
    28  C   -0.356281
    29  C   -0.125603
    30  C   -0.117359
    31  C   -0.110330
    32  C   -0.136314
    33  C   -0.112925
    34  C   -0.091935
    35  C    0.165885
    36  C    0.147683
    37  C   -0.398602
    38  C   -0.378306
    39  C   -0.114322
    40  C   -0.115044
    41  C   -0.105499
    42  C   -0.098672
    43  H    0.083674
    44  H    0.090027
    45  H    0.090191
    46  H    0.096757
    47  H    0.074448
    48  H    0.085096
    49  H    0.128376
    50  H    0.119982
    51  H    0.136279
    52  H    0.112535
    53  H    0.088616
    54  H    0.118769
    55  H    0.091630
    56  H    0.105451
    57  H    0.083420
    58  H    0.107944
    59  H    0.112846
    60  H    0.095976
    61  H    0.063281
    62  H    0.100327
    63  H    0.102009
    64  H    0.110842
    65  H    0.072756
    66  H    0.073153
    67  H    0.102293
    68  H    0.104036
    69  H    0.098296
    70  H    0.106287
    71  H    0.132403
    72  H    0.095330
    73  H    0.300655
    74  H    0.291293
    75  H    0.074773
    76  H    0.087990
    77  H    0.107046
    78  H    0.116776
    79  H    0.141045
    80  H    0.117062
    81  H    0.077058
    82  H    0.110611
    83  H    0.096814
    84  H    0.073518
    85  H    0.074739
    86  H    0.092476
    87  H    0.075166
    88  H    0.084453
    89  H    0.081956
    90  H    0.118544
    91  H    0.134213
    92  H    0.136992
    93  H    0.112117
    94  H    0.091622
    95  H    0.090166
    96  H    0.076579
    97  H    0.077430
    98  H    0.073803
 Sum of Mulliken charges =  -0.00000

 Dipole moment (field-independent basis, Debye):
    X=              0.5306    Y=              0.2921    Z=              2.9237  Tot=              2.9858
 Quadrupole moment (field-independent basis, Debye-Ang):
   XX=           -289.2280   YY=           -240.2708   ZZ=           -261.5928
   XY=             10.2385   XZ=             -1.0636   YZ=              1.0589

 Normal termination of Gaussian 16 at Sat Jun 29 18:52:39 2019.
