 Gaussian 16, Revision A.03,
 Gaussian 16:  ES64L-G16RevA.03 25-Dec-2016

 -------------------------------------
 # td=(NStates=1) CAM-B3LYP/6-31G(d,p)
 -------------------------------------

 --
 TD
 --
 Symbolic Z-matrix:
 Charge =  0 Multiplicity = 1

                         Standard orientation:
 ---------------------------------------------------------------------
 Center     Atomic      Atomic             Coordinates (Angstroms)
 Number     Number       Type             X           Y           Z
 ---------------------------------------------------------------------
      1          8           0       14.510621   -2.542652   -0.370577
      2          8           0      -14.769899    1.895682    0.985306
      3          6           0       11.344851   -0.890450    1.361224
      4          6           0      -12.237321   -0.921612    0.787954
      5          6           0       12.850353   -1.445660    1.152857
      6          6           0      -13.518741   -0.167703    0.749072
      7          6           0       13.076989   -2.013820   -0.156082
      8          6           0      -13.478608    1.390454    0.877886
      9          6           0       10.840366   -0.314138   -0.051859
     10          6           0      -11.260029   -0.344093   -0.204926
     11          6           0       12.968561   -0.953184   -1.219701
     12          6           0      -12.657741    1.760282   -0.462605
     13          6           0       11.564699   -0.316782   -1.223017
     14          6           0      -11.564663    0.851743   -0.802103
     15          6           0       11.395711    0.045617    2.486906
     16          6           0       10.449229   -2.225584    1.675531
     17          6           0      -11.670072   -0.934285    2.174181
     18          6           0      -12.546734   -2.407413    0.372402
     19          6           0        9.525961    0.331762    0.190899
     20          6           0      -10.102306   -1.095695   -0.488938
     21          6           0       11.029869    0.329135   -2.509230
     22          6           0      -10.690088    1.408186   -1.760920
     23          6           0        9.422250    1.609371   -0.233539
     24          6           0       -8.772428   -0.571634   -0.318201
     25          6           0        8.081250    2.261909   -0.056275
     26          6           0       -7.529210   -1.251884   -0.479035
     27          6           0        8.201663    3.750596    0.106689
     28          6           0       -7.566856   -2.700639   -1.046537
     29          6           0        6.952935    1.560742   -0.227168
     30          6           0       -6.362203   -0.589310   -0.377287
     31          6           0        5.596458    2.068370    0.096715
     32          6           0       -5.049250   -1.037308   -0.574665
     33          6           0        4.457217    1.224688   -0.050890
     34          6           0       -3.944746   -0.398621   -0.257489
     35          6           0        3.063247    1.660160    0.137875
     36          6           0       -2.610240   -0.733515   -0.491659
     37          6           0        2.746256    3.032890    0.621073
     38          6           0       -2.355097   -2.219237   -0.694320
     39          6           0        2.137950    0.711367   -0.062487
     40          6           0       -1.614940    0.152505   -0.275806
     41          6           0        0.716070    0.886650    0.067176
     42          6           0       -0.142999   -0.054709   -0.295413
     43          1           0       13.366246   -0.392790    1.317645
     44          1           0       13.177970   -2.028255    2.072313
     45          1           0      -14.244680   -0.642170    1.527109
     46          1           0      -13.862933   -0.354262   -0.217030
     47          1           0       12.576367   -2.949453   -0.396241
     48          1           0      -12.833133    1.857161    1.694697
     49          1           0       13.745266   -0.318289   -1.106908
     50          1           0       12.979565   -1.262520   -2.204882
     51          1           0      -13.169422    1.813745   -1.417347
     52          1           0      -12.205526    2.736747   -0.293166
     53          1           0       11.655751   -0.489631    3.484571
     54          1           0       10.356077    0.574592    2.717949
     55          1           0       11.896810    0.919935    2.276159
     56          1           0       10.905716   -3.171300    1.078065
     57          1           0       10.721737   -2.425378    2.867167
     58          1           0        9.246393   -2.085383    1.527668
     59          1           0      -11.449315    0.114542    2.610851
     60          1           0      -10.851878   -1.523487    2.223544
     61          1           0      -12.286791   -1.438150    3.062954
     62          1           0      -13.588599   -2.552891    0.880297
     63          1           0      -11.667185   -3.090703    0.340461
     64          1           0      -12.906366   -2.319654   -0.690897
     65          1           0        8.765606   -0.024693    0.767215
     66          1           0      -10.233449   -2.126720   -0.886023
     67          1           0       10.037790    0.535042   -2.221676
     68          1           0       11.768470    1.182770   -2.822152
     69          1           0       10.999193   -0.320836   -3.428828
     70          1           0      -11.271445    1.838193   -2.683879
     71          1           0      -10.177463    0.807545   -2.226722
     72          1           0      -10.177673    2.121864   -1.440053
     73          1           0       14.639159   -3.152884    0.459519
     74          1           0      -15.078257    1.741256    1.882648
     75          1           0       10.238428    2.206218   -0.686668
     76          1           0       -8.747002    0.509228   -0.005145
     77          1           0        8.768072    4.132846   -0.744466
     78          1           0        7.149260    4.271119    0.147863
     79          1           0        8.869185    3.963868    1.034307
     80          1           0       -8.119042   -3.322140   -0.299724
     81          1           0       -8.111453   -2.674611   -2.049519
     82          1           0       -6.498413   -3.052705   -1.119763
     83          1           0        6.859608    0.471767   -0.463828
     84          1           0       -6.709123    0.508690   -0.295408
     85          1           0        5.323408    3.057767    0.480156
     86          1           0       -4.993205   -2.014295   -1.160791
     87          1           0        4.440509    0.273051   -0.495380
     88          1           0       -4.205227    0.580739    0.184803
     89          1           0        3.545570    3.272970    1.341189
     90          1           0        1.610506    3.164138    0.953007
     91          1           0        2.806207    3.899776   -0.118315
     92          1           0       -2.526098   -3.073785    0.024838
     93          1           0       -2.758962   -2.662488   -1.563132
     94          1           0       -1.281209   -2.453311   -1.038782
     95          1           0        2.485121   -0.237956   -0.506150
     96          1           0       -1.759607    1.282717   -0.071754
     97          1           0        0.327505    1.873665    0.141418
     98          1           0        0.040522   -1.070358   -0.591334
 ---------------------------------------------------------------------

 SCF Done:  E(RCAM-B3LYP) =  -1706.98740655     A.U. after   14 cycles

 Excitation energies and oscillator strengths:

 Excited State   1:      Singlet-A      2.8879 eV  429.32 nm  f=3.7454  <S**2>=0.000
     155 ->158        -0.20280
     156 ->157         0.66974
 This state for optimization and/or second-order correction.
 Total Energy, E(TD-HF/TD-DFT) =  -1706.88127711
 Copying the excited state density for this state as the 1-particle RhoCI density.

 The electronic state is 1-A.
 Alpha  occ. eigenvalues --  -19.21374 -19.20290 -10.31582 -10.30272 -10.28943
 Alpha  occ. eigenvalues --  -10.28904 -10.27711 -10.27379 -10.27349 -10.27233
 Alpha  occ. eigenvalues --  -10.27184 -10.27133 -10.27076 -10.27024 -10.27017
 Alpha  occ. eigenvalues --  -10.26794 -10.26767 -10.26617 -10.26616 -10.26533
 Alpha  occ. eigenvalues --  -10.26440 -10.26387 -10.26322 -10.26194 -10.26186
 Alpha  occ. eigenvalues --  -10.26081 -10.26073 -10.26031 -10.25947 -10.25900
 Alpha  occ. eigenvalues --  -10.25854 -10.25759 -10.25635 -10.25607 -10.25528
 Alpha  occ. eigenvalues --  -10.25329 -10.25152 -10.24733 -10.24244 -10.24062
 Alpha  occ. eigenvalues --  -10.23859 -10.21068  -1.10436  -1.04537  -0.94518
 Alpha  occ. eigenvalues --   -0.93150  -0.92644  -0.91805  -0.90658  -0.90142
 Alpha  occ. eigenvalues --   -0.88668  -0.87446  -0.86767  -0.85660  -0.84982
 Alpha  occ. eigenvalues --   -0.83125  -0.81951  -0.80327  -0.80102  -0.78005
 Alpha  occ. eigenvalues --   -0.76568  -0.76334  -0.76218  -0.76089  -0.75858
 Alpha  occ. eigenvalues --   -0.75525  -0.74879  -0.74300  -0.73467  -0.71064
 Alpha  occ. eigenvalues --   -0.69048  -0.67666  -0.66164  -0.65484  -0.63910
 Alpha  occ. eigenvalues --   -0.63203  -0.62415  -0.62279  -0.60695  -0.60182
 Alpha  occ. eigenvalues --   -0.59243  -0.58328  -0.58065  -0.57572  -0.56369
 Alpha  occ. eigenvalues --   -0.56060  -0.55705  -0.54695  -0.54295  -0.53906
 Alpha  occ. eigenvalues --   -0.53583  -0.52882  -0.52539  -0.52221  -0.51452
 Alpha  occ. eigenvalues --   -0.50841  -0.50165  -0.49876  -0.49469  -0.48915
 Alpha  occ. eigenvalues --   -0.48842  -0.48608  -0.48351  -0.48230  -0.47877
 Alpha  occ. eigenvalues --   -0.47589  -0.47498  -0.47199  -0.47019  -0.46882
 Alpha  occ. eigenvalues --   -0.46216  -0.45955  -0.45749  -0.45216  -0.45034
 Alpha  occ. eigenvalues --   -0.44501  -0.44079  -0.43941  -0.43771  -0.43428
 Alpha  occ. eigenvalues --   -0.43314  -0.43192  -0.42506  -0.42335  -0.41935
 Alpha  occ. eigenvalues --   -0.41638  -0.41417  -0.41287  -0.40997  -0.40926
 Alpha  occ. eigenvalues --   -0.40536  -0.40451  -0.40131  -0.40008  -0.39948
 Alpha  occ. eigenvalues --   -0.39305  -0.38957  -0.38780  -0.38244  -0.38100
 Alpha  occ. eigenvalues --   -0.37826  -0.36984  -0.36598  -0.36345  -0.35445
 Alpha  occ. eigenvalues --   -0.34689  -0.34277  -0.33127  -0.32051  -0.31817
 Alpha  occ. eigenvalues --   -0.31518  -0.29503  -0.27911  -0.26686  -0.23919
 Alpha  occ. eigenvalues --   -0.21386
 Alpha virt. eigenvalues --   -0.04079  -0.00633   0.02655   0.05609   0.08129
 Alpha virt. eigenvalues --    0.09340   0.10505   0.11358   0.11704   0.11882
 Alpha virt. eigenvalues --    0.12398   0.12507   0.12688   0.13128   0.13635

 Mulliken charges:
               1
     1  O   -0.589062
     2  O   -0.548300
     3  C    0.008854
     4  C   -0.012884
     5  C   -0.199313
     6  C   -0.197392
     7  C    0.157875
     8  C    0.183269
     9  C    0.034716
    10  C    0.078638
    11  C   -0.191090
    12  C   -0.246525
    13  C    0.014792
    14  C    0.049760
    15  C   -0.302616
    16  C   -0.281097
    17  C   -0.276620
    18  C   -0.318104
    19  C   -0.112590
    20  C   -0.171023
    21  C   -0.359655
    22  C   -0.326437
    23  C   -0.103595
    24  C   -0.110098
    25  C    0.073151
    26  C    0.112600
    27  C   -0.362656
    28  C   -0.359220
    29  C   -0.113732
    30  C   -0.123356
    31  C   -0.105274
    32  C   -0.090198
    33  C   -0.117820
    34  C   -0.095433
    35  C    0.144540
    36  C    0.114685
    37  C   -0.383572
    38  C   -0.392867
    39  C   -0.140604
    40  C   -0.135534
    41  C   -0.092914
    42  C   -0.051949
    43  H    0.092361
    44  H    0.082184
    45  H    0.061865
    46  H    0.110060
    47  H    0.102516
    48  H    0.070659
    49  H    0.129620
    50  H    0.110889
    51  H    0.122146
    52  H    0.107099
    53  H    0.100730
    54  H    0.085820
    55  H    0.122578
    56  H    0.093790
    57  H    0.071086
    58  H    0.093700
    59  H    0.084014
    60  H    0.113081
    61  H    0.069387
    62  H    0.100004
    63  H    0.111133
    64  H    0.095893
    65  H    0.101478
    66  H    0.091989
    67  H    0.136251
    68  H    0.103532
    69  H    0.105454
    70  H    0.066608
    71  H    0.117894
    72  H    0.123557
    73  H    0.291696
    74  H    0.311894
    75  H    0.105237
    76  H    0.083052
    77  H    0.127094
    78  H    0.101578
    79  H    0.111491
    80  H    0.114767
    81  H    0.120239
    82  H    0.101310
    83  H    0.092684
    84  H    0.074123
    85  H    0.080721
    86  H    0.080350
    87  H    0.077569
    88  H    0.080239
    89  H    0.120201
    90  H    0.102705
    91  H    0.118365
    92  H    0.128749
    93  H    0.125594
    94  H    0.090174
    95  H    0.082835
    96  H    0.074047
    97  H    0.086604
    98  H    0.077957
 Sum of Mulliken charges =  -0.00000

 Dipole moment (field-independent basis, Debye):
    X=              0.5343    Y=              0.3117    Z=              1.3005  Tot=              1.4401
 Quadrupole moment (field-independent basis, Debye-Ang):
   XX=           -304.8564   YY=           -247.3211   ZZ=           -257.8259
   XY=             16.9315   XZ=              5.3472   YZ=              1.6023

 Normal termination of Gaussian 16 at Sat Jun 29 09:59:50 2019.
