 Gaussian 16, Revision A.03,
 Gaussian 16:  ES64L-G16RevA.03 25-Dec-2016

 -------------------------------------
 # td=(NStates=1) CAM-B3LYP/6-31G(d,p)
 -------------------------------------

 --
 TD
 --
 Symbolic Z-matrix:
 Charge =  0 Multiplicity = 1

                         Standard orientation:
 ---------------------------------------------------------------------
 Center     Atomic      Atomic             Coordinates (Angstroms)
 Number     Number       Type             X           Y           Z
 ---------------------------------------------------------------------
      1          8           0       14.549242   -2.409795   -0.415438
      2          8           0      -14.863305    1.836069    0.746759
      3          6           0       11.411929   -1.175487    1.209067
      4          6           0      -12.165208   -0.958013    0.843655
      5          6           0       12.871566   -1.487256    1.027984
      6          6           0      -13.639792   -0.404348    0.853822
      7          6           0       13.190409   -2.107619   -0.365484
      8          6           0      -13.473291    1.230857    0.759332
      9          6           0       10.973098   -0.347487   -0.024258
     10          6           0      -11.241295   -0.311320   -0.234832
     11          6           0       12.871462   -0.957959   -1.315600
     12          6           0      -12.891188    1.566120   -0.456854
     13          6           0       11.588452   -0.405811   -1.137275
     14          6           0      -11.650220    0.802565   -0.840811
     15          6           0       11.408725   -0.235845    2.521004
     16          6           0       10.623028   -2.412389    1.396439
     17          6           0      -11.544747   -0.853395    2.225174
     18          6           0      -12.348812   -2.450901    0.464247
     19          6           0        9.622783    0.430366    0.257615
     20          6           0      -10.063832   -1.088671   -0.368857
     21          6           0       11.054433    0.424949   -2.340202
     22          6           0      -10.783534    1.507711   -1.862034
     23          6           0        9.329812    1.602986   -0.232585
     24          6           0       -8.846716   -0.496179   -0.266610
     25          6           0        8.116782    2.276125    0.146387
     26          6           0       -7.626682   -1.182610   -0.463786
     27          6           0        8.288210    3.830007    0.373247
     28          6           0       -7.729685   -2.566503   -0.935630
     29          6           0        6.888221    1.596539    0.073870
     30          6           0       -6.367250   -0.573627   -0.366925
     31          6           0        5.564202    2.204263    0.269398
     32          6           0       -5.119595   -0.975903   -0.606729
     33          6           0        4.570530    1.375811    0.155994
     34          6           0       -4.014999   -0.250713   -0.371757
     35          6           0        3.027149    1.739027    0.212273
     36          6           0       -2.614702   -0.686135   -0.497079
     37          6           0        2.895971    3.243032    0.452975
     38          6           0       -2.411499   -2.050374   -0.907370
     39          6           0        2.051346    0.776792    0.000512
     40          6           0       -1.560037    0.201673   -0.335473
     41          6           0        0.607389    0.987458   -0.078097
     42          6           0       -0.186442   -0.013626   -0.314419
     43          1           0       13.635043   -0.746016    1.102717
     44          1           0       13.274426   -2.395339    1.587564
     45          1           0      -14.030296   -0.638751    1.954098
     46          1           0      -14.309667   -0.702387    0.132103
     47          1           0       12.498629   -2.907154   -0.514025
     48          1           0      -13.021404    1.615243    1.878531
     49          1           0       13.752115   -0.267985   -1.374642
     50          1           0       12.893504   -1.392923   -2.469576
     51          1           0      -13.570692    1.268528   -1.293186
     52          1           0      -12.610773    2.495558   -0.524651
     53          1           0       11.980988   -0.820343    3.226875
     54          1           0       10.350954   -0.348550    3.003730
     55          1           0       11.896319    0.686037    2.284091
     56          1           0       10.386020   -3.056857    0.402858
     57          1           0       10.928437   -3.018147    2.321274
     58          1           0        9.328271   -2.255768    1.451253
     59          1           0      -11.387210    0.094704    2.666054
     60          1           0      -10.610572   -1.296892    1.984168
     61          1           0      -12.006003   -1.710031    2.811562
     62          1           0      -13.051670   -3.019388    1.027039
     63          1           0      -11.491643   -3.102481    0.536981
     64          1           0      -12.542551   -2.687922   -0.659738
     65          1           0        8.848393   -0.156233    0.858133
     66          1           0      -10.038968   -2.125875   -0.499857
     67          1           0       10.088338    0.485881   -2.213710
     68          1           0       11.445293    1.472562   -2.236384
     69          1           0       11.309510   -0.016275   -3.357953
     70          1           0      -11.268354    1.900786   -2.814155
     71          1           0      -10.182497    0.627593   -2.225238
     72          1           0      -10.133208    2.222128   -1.460975
     73          1           0       14.422320   -3.404158   -0.045492
     74          1           0      -15.358322    1.631280    1.530283
     75          1           0       10.194163    2.095956   -0.647605
     76          1           0       -8.842425    0.571324    0.201097
     77          1           0        8.716444    4.320638   -0.497799
     78          1           0        7.301071    4.329308    0.475548
     79          1           0        8.982137    4.106750    1.219182
     80          1           0       -8.555038   -3.090444   -0.196136
     81          1           0       -8.346431   -2.637901   -1.851973
     82          1           0       -6.674310   -3.201002   -0.765610
     83          1           0        7.017483    0.430921    0.051494
     84          1           0       -6.384558    0.553115   -0.213978
     85          1           0        5.525159    3.176831    0.472595
     86          1           0       -4.864473   -1.929739   -1.037713
     87          1           0        4.750943    0.277963    0.018979
     88          1           0       -4.139026    0.641190    0.131202
     89          1           0        3.413888    3.689579    1.317505
     90          1           0        1.800383    3.576497    0.491672
     91          1           0        3.242313    3.901019   -0.352158
     92          1           0       -2.636424   -2.854665   -0.106011
     93          1           0       -3.030038   -2.294067   -1.849830
     94          1           0       -1.296407   -2.255813   -1.255342
     95          1           0        2.299515   -0.307192   -0.292888
     96          1           0       -1.855837    1.170900    0.055922
     97          1           0        0.261175    2.007193    0.037212
     98          1           0        0.152239   -0.944038   -0.647648
 ---------------------------------------------------------------------

 SCF Done:  E(RCAM-B3LYP) =  -1706.96904535     A.U. after   14 cycles

 Excitation energies and oscillator strengths:

 Excited State   1:      Singlet-A      2.7714 eV  447.36 nm  f=3.6266  <S**2>=0.000
     155 ->158         0.16031
     156 ->157         0.68387
 This state for optimization and/or second-order correction.
 Total Energy, E(TD-HF/TD-DFT) =  -1706.86719678
 Copying the excited state density for this state as the 1-particle RhoCI density.

 The electronic state is 1-A.
 Alpha  occ. eigenvalues --  -19.22803 -19.19248 -10.31687 -10.29345 -10.29033
 Alpha  occ. eigenvalues --  -10.28420 -10.27829 -10.27688 -10.27539 -10.27374
 Alpha  occ. eigenvalues --  -10.27290 -10.27263 -10.27134 -10.27081 -10.26990
 Alpha  occ. eigenvalues --  -10.26641 -10.26551 -10.26489 -10.26346 -10.26283
 Alpha  occ. eigenvalues --  -10.26264 -10.26155 -10.26118 -10.25899 -10.25559
 Alpha  occ. eigenvalues --  -10.25397 -10.25347 -10.25340 -10.25282 -10.25265
 Alpha  occ. eigenvalues --  -10.25126 -10.25108 -10.25017 -10.24980 -10.24945
 Alpha  occ. eigenvalues --  -10.24925 -10.24582 -10.24571 -10.24071 -10.23893
 Alpha  occ. eigenvalues --  -10.23815 -10.23639  -1.10079  -1.05789  -0.94311
 Alpha  occ. eigenvalues --   -0.94210  -0.92931  -0.91714  -0.90945  -0.89786
 Alpha  occ. eigenvalues --   -0.88537  -0.87770  -0.87303  -0.86411  -0.84692
 Alpha  occ. eigenvalues --   -0.83636  -0.82452  -0.79970  -0.79593  -0.78315
 Alpha  occ. eigenvalues --   -0.76479  -0.76114  -0.75863  -0.75494  -0.75400
 Alpha  occ. eigenvalues --   -0.75183  -0.75148  -0.74620  -0.73834  -0.70784
 Alpha  occ. eigenvalues --   -0.68528  -0.67057  -0.65650  -0.64813  -0.64115
 Alpha  occ. eigenvalues --   -0.63706  -0.63196  -0.62734  -0.61416  -0.60511
 Alpha  occ. eigenvalues --   -0.60191  -0.59338  -0.58042  -0.57473  -0.56491
 Alpha  occ. eigenvalues --   -0.55372  -0.54834  -0.54690  -0.53925  -0.53800
 Alpha  occ. eigenvalues --   -0.53142  -0.52316  -0.51723  -0.51376  -0.50887
 Alpha  occ. eigenvalues --   -0.50528  -0.50411  -0.50326  -0.49697  -0.49032
 Alpha  occ. eigenvalues --   -0.48803  -0.48511  -0.48222  -0.48118  -0.47799
 Alpha  occ. eigenvalues --   -0.47603  -0.47189  -0.47129  -0.46731  -0.46468
 Alpha  occ. eigenvalues --   -0.46244  -0.46216  -0.46003  -0.45729  -0.45161
 Alpha  occ. eigenvalues --   -0.44793  -0.44359  -0.44163  -0.43806  -0.43757
 Alpha  occ. eigenvalues --   -0.43211  -0.42930  -0.42747  -0.42413  -0.42066
 Alpha  occ. eigenvalues --   -0.41425  -0.41252  -0.41136  -0.40878  -0.40684
 Alpha  occ. eigenvalues --   -0.40452  -0.40352  -0.40294  -0.39611  -0.39432
 Alpha  occ. eigenvalues --   -0.39350  -0.39080  -0.38855  -0.38450  -0.37953
 Alpha  occ. eigenvalues --   -0.37778  -0.37061  -0.36783  -0.36585  -0.35500
 Alpha  occ. eigenvalues --   -0.35455  -0.33883  -0.33671  -0.32458  -0.30110
 Alpha  occ. eigenvalues --   -0.29981  -0.29733  -0.29039  -0.26859  -0.24083
 Alpha  occ. eigenvalues --   -0.21020
 Alpha virt. eigenvalues --   -0.04536  -0.00214   0.02946   0.06559   0.08249
 Alpha virt. eigenvalues --    0.09240   0.09879   0.11372   0.11472   0.11672
 Alpha virt. eigenvalues --    0.12131   0.12590   0.13112   0.13251   0.13750

 Mulliken charges:
               1
     1  O   -0.540962
     2  O   -0.588520
     3  C    0.011708
     4  C   -0.023520
     5  C   -0.167350
     6  C   -0.180619
     7  C    0.121082
     8  C    0.143467
     9  C    0.029825
    10  C    0.097911
    11  C   -0.217413
    12  C   -0.151801
    13  C    0.068822
    14  C   -0.013505
    15  C   -0.301334
    16  C   -0.298187
    17  C   -0.296674
    18  C   -0.331839
    19  C   -0.094293
    20  C   -0.139700
    21  C   -0.352885
    22  C   -0.372770
    23  C   -0.094389
    24  C   -0.085631
    25  C    0.044984
    26  C    0.131938
    27  C   -0.373111
    28  C   -0.384268
    29  C   -0.127562
    30  C   -0.137974
    31  C   -0.027045
    32  C   -0.044479
    33  C   -0.115284
    34  C   -0.108843
    35  C    0.094899
    36  C    0.120413
    37  C   -0.390291
    38  C   -0.391890
    39  C   -0.148867
    40  C   -0.137600
    41  C   -0.062940
    42  C   -0.042808
    43  H    0.110257
    44  H    0.048715
    45  H    0.066388
    46  H    0.111305
    47  H    0.086783
    48  H    0.058076
    49  H    0.120174
    50  H    0.058151
    51  H    0.133076
    52  H    0.118944
    53  H    0.103890
    54  H    0.092727
    55  H    0.118110
    56  H    0.100195
    57  H    0.109405
    58  H    0.057073
    59  H    0.111914
    60  H    0.112449
    61  H    0.093273
    62  H    0.105005
    63  H    0.094273
    64  H    0.093866
    65  H    0.085086
    66  H    0.084702
    67  H    0.137706
    68  H    0.106531
    69  H    0.092089
    70  H    0.098825
    71  H    0.115835
    72  H    0.126776
    73  H    0.311486
    74  H    0.297351
    75  H    0.094311
    76  H    0.084491
    77  H    0.122142
    78  H    0.104089
    79  H    0.121513
    80  H    0.086786
    81  H    0.138029
    82  H    0.101048
    83  H    0.081377
    84  H    0.073462
    85  H    0.078434
    86  H    0.071512
    87  H    0.080390
    88  H    0.071938
    89  H    0.126482
    90  H    0.095538
    91  H    0.130016
    92  H    0.119250
    93  H    0.116780
    94  H    0.090785
    95  H    0.084133
    96  H    0.073426
    97  H    0.089795
    98  H    0.083145
 Sum of Mulliken charges =  -0.00000

 Dipole moment (field-independent basis, Debye):
    X=              0.9592    Y=             -1.4040    Z=              1.1384  Tot=              2.0462
 Quadrupole moment (field-independent basis, Debye-Ang):
   XX=           -306.4926   YY=           -239.0326   ZZ=           -263.1446
   XY=             11.4330   XZ=             -3.4166   YZ=              1.5287

 Normal termination of Gaussian 16 at Thu Jul  4 22:25:28 2019.
