 Gaussian 16, Revision A.03,
 Gaussian 16:  ES64L-G16RevA.03 25-Dec-2016

 -------------------------------------
 # td=(NStates=1) CAM-B3LYP/6-31G(d,p)
 -------------------------------------

 --
 TD
 --
 Symbolic Z-matrix:
 Charge =  0 Multiplicity = 1

                         Standard orientation:
 ---------------------------------------------------------------------
 Center     Atomic      Atomic             Coordinates (Angstroms)
 Number     Number       Type             X           Y           Z
 ---------------------------------------------------------------------
      1          8           0       14.711930   -2.136978   -0.550939
      2          8           0      -14.916111    2.029259    0.567336
      3          6           0       11.521176   -1.055567    1.279906
      4          6           0      -12.237661   -0.872049    0.878738
      5          6           0       13.049674   -1.338195    1.000685
      6          6           0      -13.641630   -0.102564    1.007015
      7          6           0       13.348248   -1.922663   -0.404883
      8          6           0      -13.576232    1.429648    0.769787
      9          6           0       11.021656   -0.194179    0.032764
     10          6           0      -11.315957   -0.265792   -0.260270
     11          6           0       12.980773   -0.883413   -1.349618
     12          6           0      -12.834480    1.645511   -0.568367
     13          6           0       11.647233   -0.133913   -1.090305
     14          6           0      -11.589897    0.854586   -0.906039
     15          6           0       11.264968   -0.216035    2.513502
     16          6           0       10.762335   -2.449724    1.394302
     17          6           0      -11.542081   -0.628289    2.274296
     18          6           0      -12.443941   -2.365587    0.875509
     19          6           0        9.645645    0.343288    0.309955
     20          6           0      -10.076454   -1.003602   -0.526058
     21          6           0       11.105402    0.596535   -2.421681
     22          6           0      -10.934381    1.369325   -2.039040
     23          6           0        9.321258    1.674387    0.103792
     24          6           0       -8.833146   -0.481292   -0.316817
     25          6           0        8.045885    2.341909    0.231788
     26          6           0       -7.628653   -1.333950   -0.509899
     27          6           0        8.056999    3.721903    0.480420
     28          6           0       -7.648796   -2.800514   -1.000309
     29          6           0        6.898090    1.636998    0.089143
     30          6           0       -6.465085   -0.736402   -0.254838
     31          6           0        5.448965    2.087325    0.277270
     32          6           0       -5.056935   -1.217573   -0.540948
     33          6           0        4.455850    1.221843   -0.005865
     34          6           0       -3.942193   -0.485443   -0.268065
     35          6           0        2.946842    1.616723   -0.006051
     36          6           0       -2.660502   -0.936013   -0.463733
     37          6           0        2.675584    3.032860    0.402397
     38          6           0       -2.370286   -2.369564   -0.814322
     39          6           0        2.107083    0.654492   -0.284140
     40          6           0       -1.539920   -0.087224   -0.278876
     41          6           0        0.698172    0.806251   -0.199905
     42          6           0       -0.119402   -0.216209   -0.470837
     43          1           0       13.686159   -0.436201    1.119322
     44          1           0       13.245278   -2.083976    1.774527
     45          1           0      -14.176770   -0.531567    1.935452
     46          1           0      -14.186380   -0.410303    0.222687
     47          1           0       12.728287   -2.703109   -0.534064
     48          1           0      -12.957943    1.911258    1.475011
     49          1           0       13.864589   -0.212256   -1.313012
     50          1           0       13.079978   -1.212841   -2.392923
     51          1           0      -13.684225    1.615253   -1.298285
     52          1           0      -12.609375    2.775244   -0.489195
     53          1           0       11.991728   -0.613627    3.423730
     54          1           0       10.303958   -0.244964    2.902553
     55          1           0       11.686813    0.832298    2.163670
     56          1           0       10.852808   -3.264143    0.624046
     57          1           0       11.168488   -2.793035    2.477886
     58          1           0        9.792262   -2.523175    1.416880
     59          1           0      -11.499813    0.511112    2.601352
     60          1           0      -10.513749   -1.182593    2.287768
     61          1           0      -12.021599   -0.940493    3.147934
     62          1           0      -13.114527   -2.683461    1.481576
     63          1           0      -11.464918   -2.867657    1.063637
     64          1           0      -12.923530   -2.664193   -0.035662
     65          1           0        8.890468   -0.451757    0.661476
     66          1           0      -10.205674   -2.060213   -0.612941
     67          1           0       10.160073    0.900110   -2.127697
     68          1           0       11.697327    1.502824   -2.676333
     69          1           0       11.187082   -0.242693   -3.128541
     70          1           0      -11.728967    1.841386   -2.838879
     71          1           0      -10.241213    0.507328   -2.360019
     72          1           0      -10.288360    2.169889   -1.743698
     73          1           0       15.043275   -2.629689    0.182180
     74          1           0      -15.491481    1.768566    1.296275
     75          1           0       10.180937    2.298261   -0.119778
     76          1           0       -8.648731    0.489431   -0.129967
     77          1           0        8.745240    4.239366   -0.347632
     78          1           0        7.121031    4.149494    0.396973
     79          1           0        8.648969    4.067733    1.311286
     80          1           0       -7.987711   -3.550675   -0.111930
     81          1           0       -8.323400   -2.926030   -1.938839
     82          1           0       -6.570264   -3.022971   -1.090692
     83          1           0        6.938557    0.585504   -0.106462
     84          1           0       -6.528512    0.321380    0.160416
     85          1           0        5.375633    3.108312    0.746123
     86          1           0       -5.150559   -2.315776   -0.859383
     87          1           0        4.790847    0.329433   -0.451809
     88          1           0       -4.248748    0.441656    0.103714
     89          1           0        2.787386    3.498427    1.573150
     90          1           0        1.478210    3.261691    0.155120
     91          1           0        3.126496    3.746543   -0.362901
     92          1           0       -2.974753   -2.836001   -0.023050
     93          1           0       -2.458326   -2.634785   -2.037860
     94          1           0       -1.268363   -2.723595   -0.547981
     95          1           0        2.503013   -0.415879   -0.418152
     96          1           0       -2.044488    0.765877    0.023804
     97          1           0        0.357753    1.892964    0.113255
     98          1           0        0.247949   -1.118904   -0.517725
 ---------------------------------------------------------------------

 SCF Done:  E(RCAM-B3LYP) =  -1706.97712989     A.U. after   14 cycles

 Excitation energies and oscillator strengths:

 Excited State   1:      Singlet-A      2.9068 eV  426.53 nm  f=3.5387  <S**2>=0.000
     155 ->158         0.16760
     156 ->157         0.68088
 This state for optimization and/or second-order correction.
 Total Energy, E(TD-HF/TD-DFT) =  -1706.87030759
 Copying the excited state density for this state as the 1-particle RhoCI density.

 The electronic state is 1-A.
 Alpha  occ. eigenvalues --  -19.21238 -19.21169 -10.30187 -10.29315 -10.28622
 Alpha  occ. eigenvalues --  -10.28268 -10.28101 -10.28100 -10.27730 -10.27301
 Alpha  occ. eigenvalues --  -10.27189 -10.27120 -10.27072 -10.27060 -10.26957
 Alpha  occ. eigenvalues --  -10.26844 -10.26317 -10.26300 -10.26284 -10.26221
 Alpha  occ. eigenvalues --  -10.26207 -10.26124 -10.25959 -10.25916 -10.25834
 Alpha  occ. eigenvalues --  -10.25572 -10.25544 -10.25533 -10.25515 -10.25375
 Alpha  occ. eigenvalues --  -10.25361 -10.25179 -10.25082 -10.25058 -10.25033
 Alpha  occ. eigenvalues --  -10.25002 -10.24956 -10.24896 -10.24842 -10.24620
 Alpha  occ. eigenvalues --  -10.24202 -10.23317  -1.11048  -1.07543  -0.93169
 Alpha  occ. eigenvalues --   -0.92967  -0.92482  -0.91669  -0.91122  -0.89953
 Alpha  occ. eigenvalues --   -0.87661  -0.87354  -0.86078  -0.85255  -0.84835
 Alpha  occ. eigenvalues --   -0.83550  -0.81921  -0.80289  -0.80130  -0.77335
 Alpha  occ. eigenvalues --   -0.76704  -0.76577  -0.75857  -0.75784  -0.75338
 Alpha  occ. eigenvalues --   -0.75197  -0.74961  -0.74730  -0.74015  -0.70471
 Alpha  occ. eigenvalues --   -0.69112  -0.67523  -0.65888  -0.65281  -0.64327
 Alpha  occ. eigenvalues --   -0.63464  -0.62693  -0.62209  -0.60661  -0.60344
 Alpha  occ. eigenvalues --   -0.60001  -0.59161  -0.58482  -0.57320  -0.56301
 Alpha  occ. eigenvalues --   -0.55522  -0.54885  -0.54642  -0.54372  -0.53695
 Alpha  occ. eigenvalues --   -0.53345  -0.52702  -0.52169  -0.51859  -0.51126
 Alpha  occ. eigenvalues --   -0.50777  -0.50127  -0.49419  -0.49268  -0.48720
 Alpha  occ. eigenvalues --   -0.48583  -0.48483  -0.48282  -0.47921  -0.47787
 Alpha  occ. eigenvalues --   -0.47631  -0.47529  -0.46931  -0.46496  -0.46218
 Alpha  occ. eigenvalues --   -0.45935  -0.45809  -0.45522  -0.45162  -0.44985
 Alpha  occ. eigenvalues --   -0.44518  -0.44167  -0.43998  -0.43829  -0.43153
 Alpha  occ. eigenvalues --   -0.43091  -0.43024  -0.42758  -0.42534  -0.42143
 Alpha  occ. eigenvalues --   -0.41941  -0.41716  -0.41222  -0.40614  -0.40529
 Alpha  occ. eigenvalues --   -0.40103  -0.39866  -0.39709  -0.39467  -0.39294
 Alpha  occ. eigenvalues --   -0.39023  -0.38610  -0.38242  -0.37450  -0.37288
 Alpha  occ. eigenvalues --   -0.37080  -0.36799  -0.36627  -0.36487  -0.35626
 Alpha  occ. eigenvalues --   -0.35154  -0.34600  -0.33067  -0.32680  -0.32323
 Alpha  occ. eigenvalues --   -0.31758  -0.30047  -0.28959  -0.26621  -0.24374
 Alpha  occ. eigenvalues --   -0.21267
 Alpha virt. eigenvalues --   -0.03999   0.00181   0.02977   0.06377   0.08551
 Alpha virt. eigenvalues --    0.09696   0.10889   0.11480   0.11779   0.12310
 Alpha virt. eigenvalues --    0.12635   0.12756   0.13163   0.13350   0.13507

 Mulliken charges:
               1
     1  O   -0.553499
     2  O   -0.570577
     3  C   -0.003749
     4  C   -0.025439
     5  C   -0.206876
     6  C   -0.198034
     7  C    0.198947
     8  C    0.154497
     9  C    0.029390
    10  C    0.070672
    11  C   -0.226176
    12  C   -0.250688
    13  C    0.028106
    14  C    0.101357
    15  C   -0.283411
    16  C   -0.307487
    17  C   -0.292160
    18  C   -0.294157
    19  C   -0.123733
    20  C   -0.190587
    21  C   -0.343231
    22  C   -0.367336
    23  C   -0.121246
    24  C   -0.042879
    25  C    0.147557
    26  C    0.110906
    27  C   -0.383444
    28  C   -0.351501
    29  C   -0.146483
    30  C   -0.148747
    31  C   -0.077605
    32  C   -0.100718
    33  C   -0.124042
    34  C   -0.101141
    35  C    0.110408
    36  C    0.081668
    37  C   -0.364243
    38  C   -0.353154
    39  C   -0.105780
    40  C   -0.109050
    41  C   -0.059957
    42  C   -0.071607
    43  H    0.098181
    44  H    0.071361
    45  H    0.070296
    46  H    0.108479
    47  H    0.084298
    48  H    0.093828
    49  H    0.115523
    50  H    0.095658
    51  H    0.124241
    52  H    0.093181
    53  H    0.065268
    54  H    0.124451
    55  H    0.102573
    56  H    0.096845
    57  H    0.079103
    58  H    0.112288
    59  H    0.072732
    60  H    0.089208
    61  H    0.106280
    62  H    0.113163
    63  H    0.099345
    64  H    0.097667
    65  H    0.093759
    66  H    0.091142
    67  H    0.124986
    68  H    0.112349
    69  H    0.112582
    70  H    0.096510
    71  H    0.108727
    72  H    0.122080
    73  H    0.303068
    74  H    0.307235
    75  H    0.084559
    76  H    0.084556
    77  H    0.092720
    78  H    0.115622
    79  H    0.129738
    80  H    0.102238
    81  H    0.119489
    82  H    0.106667
    83  H    0.071370
    84  H    0.068397
    85  H    0.088095
    86  H    0.084514
    87  H    0.086763
    88  H    0.091464
    89  H    0.114091
    90  H    0.077313
    91  H    0.129620
    92  H    0.122540
    93  H    0.101074
    94  H    0.091756
    95  H    0.088823
    96  H    0.061364
    97  H    0.088731
    98  H    0.077320
 Sum of Mulliken charges =  -0.00000

 Dipole moment (field-independent basis, Debye):
    X=              0.5862    Y=             -1.3048    Z=              2.6732  Tot=              3.0318
 Quadrupole moment (field-independent basis, Debye-Ang):
   XX=           -277.0739   YY=           -245.5307   ZZ=           -263.0874
   XY=             13.5875   XZ=             -3.2440   YZ=              1.2805

 Normal termination of Gaussian 16 at Mon Jul  1 14:48:05 2019.
