 Gaussian 16, Revision A.03,
 Gaussian 16:  ES64L-G16RevA.03 25-Dec-2016

 -------------------------------------
 # td=(NStates=1) CAM-B3LYP/6-31G(d,p)
 -------------------------------------

 --
 TD
 --
 Symbolic Z-matrix:
 Charge =  0 Multiplicity = 1

                         Standard orientation:
 ---------------------------------------------------------------------
 Center     Atomic      Atomic             Coordinates (Angstroms)
 Number     Number       Type             X           Y           Z
 ---------------------------------------------------------------------
      1          8           0       14.692456   -2.227453   -0.468344
      2          8           0      -14.750916    2.103137    0.519421
      3          6           0       11.441175   -1.129295    1.190787
      4          6           0      -12.402417   -0.931417    0.751711
      5          6           0       12.856739   -1.496799    1.027103
      6          6           0      -13.653298   -0.150171    0.643309
      7          6           0       13.243549   -1.927568   -0.388937
      8          6           0      -13.467150    1.369816    0.605605
      9          6           0       10.924371   -0.279727   -0.086933
     10          6           0      -11.241831   -0.248082   -0.217149
     11          6           0       13.003851   -0.842794   -1.320079
     12          6           0      -12.712258    1.811249   -0.672516
     13          6           0       11.546213   -0.192807   -1.144996
     14          6           0      -11.479583    0.839589   -0.867763
     15          6           0       11.285994   -0.299206    2.410553
     16          6           0       10.536467   -2.383134    1.300357
     17          6           0      -11.842650   -0.837435    2.170482
     18          6           0      -12.716927   -2.464383    0.347283
     19          6           0        9.640448    0.324841    0.178064
     20          6           0       -9.997980   -1.046482   -0.350220
     21          6           0       11.286074    0.512712   -2.373421
     22          6           0      -10.439333    1.477123   -1.820950
     23          6           0        9.338951    1.605609   -0.119260
     24          6           0       -8.773363   -0.626763   -0.157471
     25          6           0        8.036411    2.174019    0.080335
     26          6           0       -7.560829   -1.417241   -0.339855
     27          6           0        8.075789    3.673566    0.605348
     28          6           0       -7.721809   -2.807404   -0.675809
     29          6           0        6.865241    1.593883    0.055263
     30          6           0       -6.383777   -0.746124   -0.112229
     31          6           0        5.498576    2.023989    0.252642
     32          6           0       -5.061827   -1.227833   -0.410732
     33          6           0        4.513492    1.278972    0.004502
     34          6           0       -3.989916   -0.461382   -0.328840
     35          6           0        3.037518    1.676136    0.157854
     36          6           0       -2.566712   -0.757227   -0.427792
     37          6           0        2.825192    3.115914    0.518752
     38          6           0       -2.270530   -2.184829   -0.807702
     39          6           0        2.140468    0.785253   -0.140800
     40          6           0       -1.671850    0.180173   -0.132190
     41          6           0        0.737869    1.002636    0.051014
     42          6           0       -0.310062    0.018251   -0.165355
     43          1           0       13.597914   -0.594020    0.910606
     44          1           0       13.150685   -2.109672    1.903304
     45          1           0      -14.233248   -0.528486    1.483973
     46          1           0      -14.122280   -0.348997   -0.314073
     47          1           0       12.613943   -2.874861   -0.790143
     48          1           0      -13.031197    1.817678    1.505392
     49          1           0       13.627219   -0.271735   -1.139463
     50          1           0       13.284401   -1.051060   -2.368656
     51          1           0      -13.444792    1.593800   -1.520097
     52          1           0      -12.190958    2.873551   -0.832238
     53          1           0       11.354378   -0.954238    3.241712
     54          1           0       10.183398    0.100104    2.613581
     55          1           0       12.068602    0.597614    2.368446
     56          1           0       10.371009   -2.901265    0.170947
     57          1           0       10.666358   -3.094724    1.991306
     58          1           0        9.593658   -1.723847    1.433150
     59          1           0      -11.510455    0.365550    2.436467
     60          1           0      -10.967084   -1.482748    2.305263
     61          1           0      -12.508625   -1.079507    3.137247
     62          1           0      -13.544055   -2.766407    1.063047
     63          1           0      -12.108343   -3.341796    0.435993
     64          1           0      -13.299540   -2.440977   -0.712483
     65          1           0        8.728775   -0.189026    0.595230
     66          1           0      -10.293132   -2.120241   -0.669542
     67          1           0       10.175803    0.609108   -2.462060
     68          1           0       11.686766    1.573754   -2.393854
     69          1           0       11.438675   -0.003797   -3.394765
     70          1           0      -11.193071    2.048124   -2.588391
     71          1           0       -9.706211    0.666678   -2.362325
     72          1           0       -9.736948    2.322031   -1.469074
     73          1           0       14.830174   -2.950020    0.010051
     74          1           0      -15.299188    1.917735    1.258899
     75          1           0       10.215567    2.130138   -0.508546
     76          1           0       -8.729245    0.360798    0.202600
     77          1           0        9.105890    3.968823    0.065178
     78          1           0        7.161446    4.276880    0.387846
     79          1           0        8.189619    3.867624    1.619785
     80          1           0       -8.293636   -3.424532    0.097436
     81          1           0       -8.321456   -2.806746   -1.722695
     82          1           0       -6.844275   -3.478051   -0.965831
     83          1           0        6.770198    0.570552   -0.304182
     84          1           0       -6.560091    0.297943    0.165864
     85          1           0        5.575860    3.073047    0.550954
     86          1           0       -4.930606   -2.287174   -0.738087
     87          1           0        4.631643    0.136141   -0.221996
     88          1           0       -4.088233    0.571392    0.116997
     89          1           0        3.463795    3.284983    1.438304
     90          1           0        1.771994    3.058930    0.989391
     91          1           0        3.117474    3.670862   -0.107248
     92          1           0       -2.316416   -2.915126    0.107243
     93          1           0       -2.832286   -2.539683   -1.552252
     94          1           0       -1.136446   -2.296436   -0.990078
     95          1           0        2.496511   -0.242126   -0.301022
     96          1           0       -1.915086    1.127198    0.146780
     97          1           0        0.352578    2.107234   -0.026822
     98          1           0       -0.021450   -1.210229   -0.445468
 ---------------------------------------------------------------------

 SCF Done:  E(RCAM-B3LYP) =  -1706.85508553     A.U. after   14 cycles

 Excitation energies and oscillator strengths:

 Excited State   1:      Singlet-A      2.9309 eV  423.02 nm  f=3.5006  <S**2>=0.000
     155 ->158         0.14570
     156 ->157         0.68766
 This state for optimization and/or second-order correction.
 Total Energy, E(TD-HF/TD-DFT) =  -1706.74737708
 Copying the excited state density for this state as the 1-particle RhoCI density.

 The electronic state is 1-A.
 Alpha  occ. eigenvalues --  -19.19968 -19.19935 -10.31229 -10.30814 -10.29034
 Alpha  occ. eigenvalues --  -10.28344 -10.28030 -10.27440 -10.27411 -10.27395
 Alpha  occ. eigenvalues --  -10.27288 -10.27249 -10.27210 -10.27175 -10.26869
 Alpha  occ. eigenvalues --  -10.26856 -10.26717 -10.26470 -10.26462 -10.26230
 Alpha  occ. eigenvalues --  -10.26160 -10.26014 -10.25944 -10.25943 -10.25941
 Alpha  occ. eigenvalues --  -10.25829 -10.25766 -10.25716 -10.25659 -10.25561
 Alpha  occ. eigenvalues --  -10.25550 -10.25525 -10.25465 -10.25363 -10.25282
 Alpha  occ. eigenvalues --  -10.25271 -10.25094 -10.24962 -10.24927 -10.24746
 Alpha  occ. eigenvalues --  -10.24380 -10.22377  -1.09485  -1.07572  -0.95097
 Alpha  occ. eigenvalues --   -0.93262  -0.92752  -0.92364  -0.91224  -0.90636
 Alpha  occ. eigenvalues --   -0.88584  -0.87679  -0.87161  -0.86148  -0.85189
 Alpha  occ. eigenvalues --   -0.83965  -0.82291  -0.80732  -0.79942  -0.79406
 Alpha  occ. eigenvalues --   -0.76949  -0.76704  -0.76331  -0.76075  -0.75519
 Alpha  occ. eigenvalues --   -0.75355  -0.74970  -0.74640  -0.73962  -0.70795
 Alpha  occ. eigenvalues --   -0.68908  -0.67463  -0.66106  -0.65456  -0.64039
 Alpha  occ. eigenvalues --   -0.62848  -0.62203  -0.60738  -0.60579  -0.60020
 Alpha  occ. eigenvalues --   -0.59934  -0.59235  -0.58503  -0.57858  -0.57355
 Alpha  occ. eigenvalues --   -0.56322  -0.55553  -0.55469  -0.54896  -0.53691
 Alpha  occ. eigenvalues --   -0.53548  -0.52709  -0.52484  -0.51760  -0.51309
 Alpha  occ. eigenvalues --   -0.50942  -0.50564  -0.50383  -0.49644  -0.49377
 Alpha  occ. eigenvalues --   -0.49071  -0.48825  -0.48667  -0.48080  -0.47846
 Alpha  occ. eigenvalues --   -0.47574  -0.47311  -0.47047  -0.46760  -0.46423
 Alpha  occ. eigenvalues --   -0.46157  -0.45427  -0.45257  -0.45075  -0.44750
 Alpha  occ. eigenvalues --   -0.44438  -0.43952  -0.43522  -0.43464  -0.43196
 Alpha  occ. eigenvalues --   -0.43001  -0.42646  -0.42491  -0.42216  -0.42053
 Alpha  occ. eigenvalues --   -0.41449  -0.41087  -0.40676  -0.40605  -0.40426
 Alpha  occ. eigenvalues --   -0.40229  -0.39788  -0.39550  -0.39478  -0.38773
 Alpha  occ. eigenvalues --   -0.38373  -0.38229  -0.38201  -0.37963  -0.37809
 Alpha  occ. eigenvalues --   -0.37168  -0.37082  -0.36705  -0.36191  -0.35719
 Alpha  occ. eigenvalues --   -0.35245  -0.34157  -0.33192  -0.32916  -0.32292
 Alpha  occ. eigenvalues --   -0.32045  -0.31058  -0.29729  -0.27210  -0.25275
 Alpha  occ. eigenvalues --   -0.21393
 Alpha virt. eigenvalues --   -0.04121   0.00481   0.03041   0.07287   0.08672
 Alpha virt. eigenvalues --    0.10620   0.11276   0.11504   0.12205   0.12427
 Alpha virt. eigenvalues --    0.12562   0.13386   0.13438   0.13614   0.14168

 Mulliken charges:
               1
     1  O   -0.551670
     2  O   -0.577030
     3  C   -0.008008
     4  C    0.009427
     5  C   -0.178065
     6  C   -0.184927
     7  C    0.125037
     8  C    0.159525
     9  C    0.080183
    10  C    0.031100
    11  C   -0.169292
    12  C   -0.210219
    13  C    0.053780
    14  C    0.054937
    15  C   -0.286130
    16  C   -0.284633
    17  C   -0.288985
    18  C   -0.323007
    19  C   -0.126800
    20  C   -0.146042
    21  C   -0.394651
    22  C   -0.353436
    23  C   -0.103365
    24  C   -0.077155
    25  C    0.067605
    26  C    0.148487
    27  C   -0.365233
    28  C   -0.382275
    29  C   -0.126398
    30  C   -0.134152
    31  C   -0.031702
    32  C   -0.089043
    33  C   -0.127371
    34  C   -0.106149
    35  C    0.093477
    36  C    0.118185
    37  C   -0.333447
    38  C   -0.367868
    39  C   -0.096739
    40  C   -0.081712
    41  C   -0.154908
    42  C   -0.086515
    43  H    0.088172
    44  H    0.082243
    45  H    0.094534
    46  H    0.108153
    47  H    0.053001
    48  H    0.090178
    49  H    0.116263
    50  H    0.101410
    51  H    0.122292
    52  H    0.111292
    53  H    0.103565
    54  H    0.092194
    55  H    0.098149
    56  H    0.079235
    57  H    0.112664
    58  H    0.094215
    59  H    0.072693
    60  H    0.116080
    61  H    0.080209
    62  H    0.093925
    63  H    0.117547
    64  H    0.090804
    65  H    0.100918
    66  H    0.087086
    67  H    0.113708
    68  H    0.119926
    69  H    0.108437
    70  H    0.079723
    71  H    0.104756
    72  H    0.109729
    73  H    0.291594
    74  H    0.296068
    75  H    0.088180
    76  H    0.089051
    77  H    0.088509
    78  H    0.104452
    79  H    0.133650
    80  H    0.122329
    81  H    0.103793
    82  H    0.107286
    83  H    0.059009
    84  H    0.083027
    85  H    0.070459
    86  H    0.084247
    87  H    0.079737
    88  H    0.070708
    89  H    0.110377
    90  H    0.108832
    91  H    0.127208
    92  H    0.114343
    93  H    0.131643
    94  H    0.096437
    95  H    0.083787
    96  H    0.077905
    97  H    0.092475
    98  H    0.046974
 Sum of Mulliken charges =  -0.00000

 Dipole moment (field-independent basis, Debye):
    X=             -1.1658    Y=             -1.9473    Z=              2.0912  Tot=              3.0861
 Quadrupole moment (field-independent basis, Debye-Ang):
   XX=           -287.0246   YY=           -245.7514   ZZ=           -260.3907
   XY=             17.6410   XZ=             -6.5784   YZ=              1.0926

 Normal termination of Gaussian 16 at Thu Jul 11 07:37:32 2019.
