 Gaussian 16, Revision A.03,
 Gaussian 16:  ES64L-G16RevA.03 25-Dec-2016

 -------------------------------------
 # td=(NStates=1) CAM-B3LYP/6-31G(d,p)
 -------------------------------------

 --
 TD
 --
 Symbolic Z-matrix:
 Charge =  0 Multiplicity = 1

                         Standard orientation:
 ---------------------------------------------------------------------
 Center     Atomic      Atomic             Coordinates (Angstroms)
 Number     Number       Type             X           Y           Z
 ---------------------------------------------------------------------
      1          8           0       14.648718   -2.415932   -0.465441
      2          8           0      -14.761930    2.021515    0.734200
      3          6           0       11.418085   -1.134227    1.206521
      4          6           0      -12.305367   -0.926683    0.880307
      5          6           0       12.822420   -1.479241    1.031668
      6          6           0      -13.718614   -0.294398    0.728567
      7          6           0       13.277867   -1.999199   -0.329325
      8          6           0      -13.547969    1.191340    0.677788
      9          6           0       10.923372   -0.349714    0.012374
     10          6           0      -11.322871   -0.331478   -0.243844
     11          6           0       12.935155   -0.909953   -1.285703
     12          6           0      -12.767904    1.736976   -0.503839
     13          6           0       11.512264   -0.351232   -1.088045
     14          6           0      -11.567018    0.842307   -0.850430
     15          6           0       11.306682   -0.178200    2.469163
     16          6           0       10.584266   -2.424842    1.515155
     17          6           0      -11.694286   -0.887588    2.231875
     18          6           0      -12.452809   -2.438724    0.437440
     19          6           0        9.494685    0.244424    0.191778
     20          6           0      -10.146418   -1.058964   -0.622356
     21          6           0       11.160847    0.387199   -2.385734
     22          6           0      -10.798769    1.515293   -1.928043
     23          6           0        9.377454    1.481067   -0.033387
     24          6           0       -8.874769   -0.687710   -0.220521
     25          6           0        8.071957    2.316801    0.097815
     26          6           0       -7.659545   -1.379351   -0.389483
     27          6           0        8.326927    3.801808    0.516369
     28          6           0       -7.651945   -2.862763   -0.893756
     29          6           0        6.951630    1.757355   -0.107090
     30          6           0       -6.461138   -0.587657   -0.174622
     31          6           0        5.473775    2.160523    0.185486
     32          6           0       -5.134798   -1.080349   -0.353103
     33          6           0        4.502772    1.410865   -0.231191
     34          6           0       -4.044313   -0.256484   -0.286792
     35          6           0        3.197761    1.675145   -0.012364
     36          6           0       -2.618844   -0.606990   -0.417536
     37          6           0        2.893940    3.156361    0.610065
     38          6           0       -2.421818   -2.063704   -0.893844
     39          6           0        2.233843    0.769339   -0.270170
     40          6           0       -1.557619    0.258306   -0.241744
     41          6           0        0.733714    0.991096   -0.026626
     42          6           0       -0.147172   -0.008281   -0.219898
     43          1           0       13.350057   -0.562524    1.194866
     44          1           0       13.103437   -2.284985    1.919627
     45          1           0      -14.358024   -0.615740    1.634668
     46          1           0      -14.191872   -0.707908   -0.129498
     47          1           0       12.706451   -2.877815   -0.521104
     48          1           0      -12.936846    1.565540    1.508709
     49          1           0       13.833861   -0.072458   -1.304130
     50          1           0       12.990856   -1.311489   -2.470142
     51          1           0      -13.459340    1.792181   -1.257629
     52          1           0      -12.136297    2.620922   -0.405577
     53          1           0       11.730579   -0.802294    3.271949
     54          1           0       10.252499   -0.058271    2.329441
     55          1           0       11.549136    0.918910    2.074335
     56          1           0       11.088855   -3.229428    0.718221
     57          1           0       10.932344   -2.702017    2.644148
     58          1           0        9.588816   -2.297225    1.330151
     59          1           0      -11.727801    0.151661    2.498735
     60          1           0      -10.577851   -1.201141    2.476167
     61          1           0      -12.427838   -1.136919    2.906523
     62          1           0      -13.532308   -2.983544    0.840520
     63          1           0      -11.743912   -3.157392    1.124061
     64          1           0      -12.550654   -2.694227   -0.772540
     65          1           0        8.710060   -0.337986    0.480080
     66          1           0      -10.271417   -1.985119   -1.103855
     67          1           0       10.164415    0.804629   -2.313043
     68          1           0       11.931368    1.150686   -2.605524
     69          1           0       11.152937   -0.264090   -3.019647
     70          1           0      -11.598178    1.881469   -2.666776
     71          1           0      -10.145907    0.652764   -2.363397
     72          1           0      -10.033996    2.265904   -1.705731
     73          1           0       14.872938   -3.093885    0.266341
     74          1           0      -14.898688    2.015102    1.896858
     75          1           0       10.276759    2.063326   -0.388002
     76          1           0       -8.839850    0.436399    0.324117
     77          1           0        8.678856    4.245949   -0.483143
     78          1           0        7.320693    4.217310    0.829203
     79          1           0        9.063024    3.918172    1.250357
     80          1           0       -8.170368   -3.544089   -0.287277
     81          1           0       -8.183721   -2.958046   -1.945785
     82          1           0       -6.719327   -3.196536   -0.914264
     83          1           0        6.997399    0.769077   -0.479807
     84          1           0       -6.754213    0.385243    0.186514
     85          1           0        5.529678    3.051949    0.546341
     86          1           0       -4.794732   -2.161381   -0.534862
     87          1           0        4.843426    0.402242   -0.516911
     88          1           0       -4.198497    0.719365    0.143453
     89          1           0        3.129840    3.151984    1.749693
     90          1           0        1.685203    3.395715    0.217482
     91          1           0        3.668390    3.973301    0.096504
     92          1           0       -2.593531   -2.694521   -0.062167
     93          1           0       -3.039186   -2.484103   -1.646871
     94          1           0       -1.425410   -2.290876   -1.137815
     95          1           0        2.448326   -0.374775   -0.419647
     96          1           0       -1.863234    1.102792    0.384242
     97          1           0        0.254288    1.989248    0.344108
     98          1           0        0.391614   -0.796570   -0.579890
 ---------------------------------------------------------------------

 SCF Done:  E(RCAM-B3LYP) =  -1706.84144477     A.U. after   14 cycles

 Excitation energies and oscillator strengths:

 Excited State   1:      Singlet-A      2.8721 eV  431.69 nm  f=3.4211  <S**2>=0.000
     155 ->158         0.15371
     156 ->157         0.68780
 This state for optimization and/or second-order correction.
 Total Energy, E(TD-HF/TD-DFT) =  -1706.73589738
 Copying the excited state density for this state as the 1-particle RhoCI density.

 The electronic state is 1-A.
 Alpha  occ. eigenvalues --  -19.22195 -19.21164 -10.30068 -10.29912 -10.29617
 Alpha  occ. eigenvalues --  -10.28752 -10.28580 -10.28391 -10.28109 -10.28070
 Alpha  occ. eigenvalues --  -10.27527 -10.27462 -10.27436 -10.27422 -10.27360
 Alpha  occ. eigenvalues --  -10.27349 -10.26872 -10.26746 -10.26656 -10.26615
 Alpha  occ. eigenvalues --  -10.26481 -10.26240 -10.26161 -10.25932 -10.25679
 Alpha  occ. eigenvalues --  -10.25639 -10.25617 -10.25486 -10.25479 -10.25364
 Alpha  occ. eigenvalues --  -10.25337 -10.25270 -10.25216 -10.25176 -10.25043
 Alpha  occ. eigenvalues --  -10.24989 -10.24958 -10.24730 -10.24506 -10.24245
 Alpha  occ. eigenvalues --  -10.23906 -10.22846  -1.07413  -1.05357  -0.94977
 Alpha  occ. eigenvalues --   -0.93327  -0.92740  -0.91289  -0.90471  -0.89796
 Alpha  occ. eigenvalues --   -0.87880  -0.87496  -0.87236  -0.85736  -0.84834
 Alpha  occ. eigenvalues --   -0.83077  -0.81952  -0.81019  -0.79879  -0.77704
 Alpha  occ. eigenvalues --   -0.77585  -0.77434  -0.76485  -0.75942  -0.75402
 Alpha  occ. eigenvalues --   -0.74951  -0.74465  -0.74193  -0.73688  -0.70661
 Alpha  occ. eigenvalues --   -0.68702  -0.66950  -0.65442  -0.64876  -0.63814
 Alpha  occ. eigenvalues --   -0.62788  -0.62761  -0.62497  -0.61336  -0.60165
 Alpha  occ. eigenvalues --   -0.59278  -0.58448  -0.58042  -0.57602  -0.56458
 Alpha  occ. eigenvalues --   -0.55328  -0.55185  -0.54381  -0.53675  -0.53314
 Alpha  occ. eigenvalues --   -0.52667  -0.52468  -0.52157  -0.51884  -0.51362
 Alpha  occ. eigenvalues --   -0.50484  -0.50306  -0.49947  -0.49335  -0.49277
 Alpha  occ. eigenvalues --   -0.48848  -0.48656  -0.48431  -0.48178  -0.48074
 Alpha  occ. eigenvalues --   -0.47559  -0.47337  -0.47185  -0.46387  -0.46312
 Alpha  occ. eigenvalues --   -0.46205  -0.45881  -0.45655  -0.45443  -0.45185
 Alpha  occ. eigenvalues --   -0.44883  -0.44343  -0.44153  -0.43960  -0.43306
 Alpha  occ. eigenvalues --   -0.43117  -0.43023  -0.42747  -0.42198  -0.41705
 Alpha  occ. eigenvalues --   -0.41628  -0.41614  -0.41460  -0.40604  -0.40404
 Alpha  occ. eigenvalues --   -0.40220  -0.40109  -0.39944  -0.39507  -0.38983
 Alpha  occ. eigenvalues --   -0.38843  -0.38474  -0.38128  -0.37937  -0.37709
 Alpha  occ. eigenvalues --   -0.37370  -0.37297  -0.36309  -0.35918  -0.35377
 Alpha  occ. eigenvalues --   -0.34868  -0.34270  -0.33782  -0.32381  -0.32053
 Alpha  occ. eigenvalues --   -0.31496  -0.30003  -0.28840  -0.27978  -0.25128
 Alpha  occ. eigenvalues --   -0.21345
 Alpha virt. eigenvalues --   -0.04342  -0.00139   0.04358   0.06724   0.07414
 Alpha virt. eigenvalues --    0.08626   0.09373   0.10624   0.10960   0.11752
 Alpha virt. eigenvalues --    0.12159   0.12320   0.12377   0.12638   0.12981

 Mulliken charges:
               1
     1  O   -0.579827
     2  O   -0.563832
     3  C   -0.031897
     4  C    0.021597
     5  C   -0.191569
     6  C   -0.173118
     7  C    0.207866
     8  C    0.141112
     9  C    0.046886
    10  C    0.036811
    11  C   -0.217265
    12  C   -0.201231
    13  C    0.029961
    14  C    0.040865
    15  C   -0.287673
    16  C   -0.269551
    17  C   -0.310151
    18  C   -0.302404
    19  C   -0.113553
    20  C   -0.166210
    21  C   -0.328242
    22  C   -0.361757
    23  C   -0.087100
    24  C   -0.089433
    25  C    0.052193
    26  C    0.098199
    27  C   -0.356204
    28  C   -0.355764
    29  C   -0.137367
    30  C   -0.123986
    31  C   -0.036249
    32  C   -0.083339
    33  C   -0.083324
    34  C   -0.107537
    35  C    0.119308
    36  C    0.102495
    37  C   -0.337135
    38  C   -0.395077
    39  C   -0.168479
    40  C   -0.152170
    41  C   -0.081792
    42  C   -0.057782
    43  H    0.104922
    44  H    0.038610
    45  H    0.082735
    46  H    0.118605
    47  H    0.078423
    48  H    0.081458
    49  H    0.100000
    50  H    0.071266
    51  H    0.122383
    52  H    0.116675
    53  H    0.106100
    54  H    0.109813
    55  H    0.094743
    56  H    0.076436
    57  H    0.084245
    58  H    0.113011
    59  H    0.098382
    60  H    0.119737
    61  H    0.108937
    62  H    0.055516
    63  H    0.092238
    64  H    0.095630
    65  H    0.093499
    66  H    0.091139
    67  H    0.105810
    68  H    0.110972
    69  H    0.122395
    70  H    0.105679
    71  H    0.104160
    72  H    0.122447
    73  H    0.307100
    74  H    0.289039
    75  H    0.089847
    76  H    0.065169
    77  H    0.119945
    78  H    0.104795
    79  H    0.130164
    80  H    0.129546
    81  H    0.107114
    82  H    0.117535
    83  H    0.062140
    84  H    0.093381
    85  H    0.053989
    86  H    0.092308
    87  H    0.082795
    88  H    0.072816
    89  H    0.128769
    90  H    0.091332
    91  H    0.097782
    92  H    0.127437
    93  H    0.123515
    94  H    0.110369
    95  H    0.090041
    96  H    0.083985
    97  H    0.079736
    98  H    0.077106
 Sum of Mulliken charges =  -0.00000

 Dipole moment (field-independent basis, Debye):
    X=             -0.0693    Y=             -1.3328    Z=              2.7635  Tot=              3.0689
 Quadrupole moment (field-independent basis, Debye-Ang):
   XX=           -309.4346   YY=           -247.8162   ZZ=           -259.7050
   XY=             15.9276   XZ=             -6.0244   YZ=              3.0176

 Normal termination of Gaussian 16 at Wed Jul  3 09:03:22 2019.
