 Gaussian 16, Revision A.03,
 Gaussian 16:  ES64L-G16RevA.03 25-Dec-2016

 -------------------------------------
 # td=(NStates=1) CAM-B3LYP/6-31G(d,p)
 -------------------------------------

 --
 TD
 --
 Symbolic Z-matrix:
 Charge =  0 Multiplicity = 1

                         Standard orientation:
 ---------------------------------------------------------------------
 Center     Atomic      Atomic             Coordinates (Angstroms)
 Number     Number       Type             X           Y           Z
 ---------------------------------------------------------------------
      1          8           0       14.798495   -2.191785   -0.495096
      2          8           0      -14.931452    1.896068    0.454499
      3          6           0       11.515745   -1.049943    1.191024
      4          6           0      -12.308078   -0.764486    0.952804
      5          6           0       12.987678   -1.336054    0.981829
      6          6           0      -13.665304   -0.149255    0.925617
      7          6           0       13.368034   -1.900960   -0.402896
      8          6           0      -13.548455    1.308178    0.602826
      9          6           0       10.943617   -0.252325   -0.035796
     10          6           0      -11.340876   -0.329794   -0.206509
     11          6           0       13.028862   -0.905321   -1.453757
     12          6           0      -12.881905    1.503493   -0.802668
     13          6           0       11.616487   -0.258797   -1.201794
     14          6           0      -11.603183    0.864603   -0.958912
     15          6           0       11.294000   -0.178849    2.372813
     16          6           0       10.756143   -2.406969    1.348642
     17          6           0      -11.445615   -0.576096    2.324054
     18          6           0      -12.587543   -2.358549    0.827136
     19          6           0        9.620792    0.295632    0.195620
     20          6           0      -10.045086   -1.148254   -0.423358
     21          6           0       11.069769    0.399801   -2.457625
     22          6           0      -10.824648    1.247434   -2.221150
     23          6           0        9.304450    1.583868   -0.131196
     24          6           0       -8.834115   -0.619138   -0.388157
     25          6           0        8.093157    2.199603    0.150055
     26          6           0       -7.642094   -1.360382   -0.498965
     27          6           0        8.109665    3.667299    0.608196
     28          6           0       -7.714758   -2.746332   -0.762799
     29          6           0        6.943338    1.585030    0.020922
     30          6           0       -6.499671   -0.584301   -0.431382
     31          6           0        5.583149    2.108991    0.352175
     32          6           0       -5.186981   -1.078670   -0.513371
     33          6           0        4.505969    1.336963    0.168165
     34          6           0       -4.020512   -0.336814   -0.293333
     35          6           0        3.102067    1.642431    0.242925
     36          6           0       -2.614322   -0.818612   -0.369919
     37          6           0        2.663842    3.117719    0.562761
     38          6           0       -2.294456   -2.320668   -0.599640
     39          6           0        2.154143    0.727913   -0.023558
     40          6           0       -1.650043    0.169728   -0.242332
     41          6           0        0.711079    1.004392   -0.043052
     42          6           0       -0.226232   -0.052346   -0.249706
     43          1           0       13.790872   -0.436819    1.289546
     44          1           0       13.355434   -1.878824    1.754159
     45          1           0      -14.019771   -0.210588    2.022132
     46          1           0      -14.328556   -0.599456    0.296481
     47          1           0       12.944048   -2.696171   -0.530210
     48          1           0      -13.051450    2.058277    1.327047
     49          1           0       13.949369   -0.114721   -1.400435
     50          1           0       13.068938   -1.451405   -2.512963
     51          1           0      -13.695509    1.329370   -1.606547
     52          1           0      -12.901222    2.691850   -1.040584
     53          1           0       11.543954   -0.739970    3.276334
     54          1           0       10.262740   -0.031040    2.542938
     55          1           0       11.823891    0.658642    2.121036
     56          1           0       10.759919   -3.048958    0.471088
     57          1           0       11.457898   -3.177138    1.962688
     58          1           0        9.688214   -2.350423    1.709197
     59          1           0      -11.137161    0.416595    2.538121
     60          1           0      -10.550656   -1.121670    2.264080
     61          1           0      -11.974485   -0.880039    3.257948
     62          1           0      -13.230949   -2.662072    1.809403
     63          1           0      -11.603250   -2.868655    1.260087
     64          1           0      -12.931936   -2.694143   -0.185229
     65          1           0        8.711803   -0.366041    0.572904
     66          1           0      -10.117290   -2.087923   -0.488551
     67          1           0       10.020743    0.646008   -2.324200
     68          1           0       11.641123    1.199909   -2.777431
     69          1           0       11.167000   -0.465958   -3.293124
     70          1           0      -11.483695    1.553360   -2.866478
     71          1           0      -10.034337    0.471985   -2.384959
     72          1           0      -10.405886    2.193706   -1.765490
     73          1           0       15.100167   -2.647257    0.465386
     74          1           0      -15.302145    1.406394    1.327323
     75          1           0       10.058886    2.111681   -0.577487
     76          1           0       -8.752783    0.363409   -0.106641
     77          1           0        8.708989    4.158837   -0.263433
     78          1           0        7.132741    3.958969    0.583218
     79          1           0        8.576061    3.905205    1.614665
     80          1           0       -8.156675   -3.371578   -0.088389
     81          1           0       -8.423780   -2.893641   -1.740618
     82          1           0       -6.674817   -3.100271   -1.094941
     83          1           0        6.851675    0.644855   -0.414346
     84          1           0       -6.754754    0.493342   -0.271637
     85          1           0        5.700481    3.187776    0.633797
     86          1           0       -5.025613   -2.135319   -0.809223
     87          1           0        4.678238    0.371637   -0.207869
     88          1           0       -4.085448    0.668051    0.173247
     89          1           0        3.090827    3.414588    1.550237
     90          1           0        1.603303    3.151209    0.440326
     91          1           0        3.119456    3.734237   -0.168199
     92          1           0       -2.867404   -2.989406    0.159715
     93          1           0       -2.665973   -2.521637   -1.672871
     94          1           0       -1.169059   -2.182457   -0.626766
     95          1           0        2.491250   -0.310069   -0.411301
     96          1           0       -2.070552    1.144193    0.070643
     97          1           0        0.333644    2.016805    0.115136
     98          1           0        0.218505   -0.932489   -0.348300
 ---------------------------------------------------------------------

 SCF Done:  E(RCAM-B3LYP) =  -1706.96818939     A.U. after   14 cycles

 Excitation energies and oscillator strengths:

 Excited State   1:      Singlet-A      2.7010 eV  459.03 nm  f=3.6895  <S**2>=0.000
     155 ->158        -0.16356
     156 ->157         0.68271
 This state for optimization and/or second-order correction.
 Total Energy, E(TD-HF/TD-DFT) =  -1706.86892963
 Copying the excited state density for this state as the 1-particle RhoCI density.

 The electronic state is 1-A.
 Alpha  occ. eigenvalues --  -19.21555 -19.21028 -10.30896 -10.28835 -10.28401
 Alpha  occ. eigenvalues --  -10.28008 -10.27784 -10.27509 -10.27475 -10.27338
 Alpha  occ. eigenvalues --  -10.27275 -10.27184 -10.27114 -10.27099 -10.27014
 Alpha  occ. eigenvalues --  -10.27011 -10.26964 -10.26877 -10.26827 -10.26805
 Alpha  occ. eigenvalues --  -10.26795 -10.26501 -10.26413 -10.26331 -10.26292
 Alpha  occ. eigenvalues --  -10.26279 -10.26123 -10.26111 -10.26098 -10.25885
 Alpha  occ. eigenvalues --  -10.25841 -10.25597 -10.25449 -10.25190 -10.24949
 Alpha  occ. eigenvalues --  -10.24880 -10.24719 -10.24545 -10.24411 -10.24243
 Alpha  occ. eigenvalues --  -10.24183 -10.22794  -1.06006  -1.05413  -0.93887
 Alpha  occ. eigenvalues --   -0.93375  -0.92272  -0.91967  -0.91106  -0.90070
 Alpha  occ. eigenvalues --   -0.87185  -0.86892  -0.86577  -0.85674  -0.84618
 Alpha  occ. eigenvalues --   -0.83119  -0.81800  -0.80395  -0.80111  -0.77541
 Alpha  occ. eigenvalues --   -0.77051  -0.76727  -0.76637  -0.76545  -0.76058
 Alpha  occ. eigenvalues --   -0.75456  -0.75263  -0.74446  -0.73530  -0.71082
 Alpha  occ. eigenvalues --   -0.69442  -0.67524  -0.65948  -0.65102  -0.63853
 Alpha  occ. eigenvalues --   -0.63401  -0.63214  -0.62700  -0.60731  -0.60323
 Alpha  occ. eigenvalues --   -0.59654  -0.58342  -0.58161  -0.57272  -0.56095
 Alpha  occ. eigenvalues --   -0.55459  -0.55043  -0.54872  -0.54522  -0.53823
 Alpha  occ. eigenvalues --   -0.53541  -0.53088  -0.52427  -0.51383  -0.50818
 Alpha  occ. eigenvalues --   -0.50752  -0.50417  -0.49880  -0.49475  -0.49409
 Alpha  occ. eigenvalues --   -0.49010  -0.48955  -0.48643  -0.48379  -0.48053
 Alpha  occ. eigenvalues --   -0.47824  -0.47701  -0.47444  -0.47104  -0.46836
 Alpha  occ. eigenvalues --   -0.45875  -0.45734  -0.45555  -0.45197  -0.44947
 Alpha  occ. eigenvalues --   -0.44811  -0.44560  -0.44037  -0.43708  -0.43674
 Alpha  occ. eigenvalues --   -0.43537  -0.43304  -0.43052  -0.42679  -0.42246
 Alpha  occ. eigenvalues --   -0.42015  -0.41564  -0.41527  -0.41281  -0.40807
 Alpha  occ. eigenvalues --   -0.40719  -0.40322  -0.40101  -0.39569  -0.39366
 Alpha  occ. eigenvalues --   -0.39272  -0.39094  -0.38813  -0.38278  -0.37894
 Alpha  occ. eigenvalues --   -0.37713  -0.37418  -0.36839  -0.36330  -0.35982
 Alpha  occ. eigenvalues --   -0.35407  -0.34448  -0.33647  -0.32429  -0.32166
 Alpha  occ. eigenvalues --   -0.31853  -0.29719  -0.27798  -0.26159  -0.24090
 Alpha  occ. eigenvalues --   -0.20720
 Alpha virt. eigenvalues --   -0.04464  -0.00348   0.02756   0.05616   0.07135
 Alpha virt. eigenvalues --    0.09033   0.09901   0.10851   0.11205   0.11991
 Alpha virt. eigenvalues --    0.12387   0.12590   0.12883   0.13246   0.13721

 Mulliken charges:
               1
     1  O   -0.588687
     2  O   -0.573409
     3  C   -0.006739
     4  C   -0.005461
     5  C   -0.217293
     6  C   -0.180502
     7  C    0.233776
     8  C    0.140191
     9  C    0.068032
    10  C    0.019663
    11  C   -0.209346
    12  C   -0.243884
    13  C    0.029700
    14  C    0.047552
    15  C   -0.284964
    16  C   -0.313805
    17  C   -0.323154
    18  C   -0.310629
    19  C   -0.127982
    20  C   -0.135797
    21  C   -0.351909
    22  C   -0.325837
    23  C   -0.095025
    24  C   -0.069625
    25  C    0.070222
    26  C    0.158242
    27  C   -0.344448
    28  C   -0.387977
    29  C   -0.107930
    30  C   -0.118643
    31  C   -0.080434
    32  C   -0.114764
    33  C   -0.121180
    34  C   -0.114273
    35  C    0.104838
    36  C    0.081537
    37  C   -0.355354
    38  C   -0.351429
    39  C   -0.141342
    40  C   -0.121115
    41  C   -0.103615
    42  C   -0.084321
    43  H    0.063044
    44  H    0.085709
    45  H    0.081826
    46  H    0.127110
    47  H    0.087315
    48  H    0.096736
    49  H    0.110570
    50  H    0.093024
    51  H    0.120967
    52  H    0.081678
    53  H    0.089057
    54  H    0.110189
    55  H    0.114136
    56  H    0.111077
    57  H    0.075917
    58  H    0.105486
    59  H    0.110785
    60  H    0.120182
    61  H    0.088836
    62  H    0.084833
    63  H    0.085697
    64  H    0.117377
    65  H    0.091864
    66  H    0.061887
    67  H    0.118367
    68  H    0.126311
    69  H    0.081339
    70  H    0.121602
    71  H    0.123270
    72  H    0.108613
    73  H    0.298787
    74  H    0.295739
    75  H    0.087692
    76  H    0.078559
    77  H    0.103221
    78  H    0.112307
    79  H    0.120987
    80  H    0.138449
    81  H    0.098618
    82  H    0.101634
    83  H    0.071512
    84  H    0.085621
    85  H    0.079107
    86  H    0.081152
    87  H    0.077637
    88  H    0.080052
    89  H    0.118244
    90  H    0.105339
    91  H    0.126698
    92  H    0.126210
    93  H    0.120581
    94  H    0.110796
    95  H    0.080666
    96  H    0.087124
    97  H    0.092865
    98  H    0.082722
 Sum of Mulliken charges =  -0.00000

 Dipole moment (field-independent basis, Debye):
    X=              0.4580    Y=             -1.6627    Z=              2.2250  Tot=              2.8152
 Quadrupole moment (field-independent basis, Debye-Ang):
   XX=           -304.3934   YY=           -249.0118   ZZ=           -260.8154
   XY=             22.0722   XZ=              2.8502   YZ=             -0.9161

 Normal termination of Gaussian 16 at Sun Jul  7 18:59:11 2019.
