 Gaussian 16, Revision A.03,
 Gaussian 16:  ES64L-G16RevA.03 25-Dec-2016

 -------------------------------------
 # td=(NStates=1) CAM-B3LYP/6-31G(d,p)
 -------------------------------------

 --
 TD
 --
 Symbolic Z-matrix:
 Charge =  0 Multiplicity = 1

                         Standard orientation:
 ---------------------------------------------------------------------
 Center     Atomic      Atomic             Coordinates (Angstroms)
 Number     Number       Type             X           Y           Z
 ---------------------------------------------------------------------
      1          8           0       14.739263   -2.212486   -0.272470
      2          8           0      -14.697369    2.001998    0.678011
      3          6           0       11.485179   -1.017708    1.207162
      4          6           0      -12.320484   -0.897098    0.791344
      5          6           0       12.981439   -1.382024    0.967422
      6          6           0      -13.711821   -0.212182    0.756503
      7          6           0       13.323453   -1.917957   -0.216216
      8          6           0      -13.530568    1.342697    0.862145
      9          6           0       11.038897   -0.197677    0.108641
     10          6           0      -11.298234   -0.218578   -0.219369
     11          6           0       13.064355   -0.911193   -1.313722
     12          6           0      -12.800531    1.716452   -0.433033
     13          6           0       11.667707   -0.245723   -1.151514
     14          6           0      -11.568700    0.959789   -0.709540
     15          6           0       11.247989   -0.088243    2.502144
     16          6           0       10.665548   -2.343456    1.352618
     17          6           0      -11.742519   -0.942373    2.145073
     18          6           0      -12.565212   -2.399699    0.392769
     19          6           0        9.644808    0.388424    0.219938
     20          6           0      -10.165876   -1.011419   -0.381763
     21          6           0       11.295316    0.432335   -2.481024
     22          6           0      -10.714263    1.640182   -1.772865
     23          6           0        9.444307    1.686775    0.035066
     24          6           0       -8.842828   -0.625100   -0.391323
     25          6           0        8.081164    2.334421    0.047042
     26          6           0       -7.629316   -1.169165   -0.513452
     27          6           0        8.000295    3.750571    0.581074
     28          6           0       -7.774223   -2.671673   -1.019207
     29          6           0        6.948771    1.557936   -0.236646
     30          6           0       -6.465051   -0.611086   -0.228900
     31          6           0        5.569453    1.881763    0.016055
     32          6           0       -5.160187   -1.163186   -0.366754
     33          6           0        4.455177    1.099168   -0.108738
     34          6           0       -4.026970   -0.358191   -0.237726
     35          6           0        3.142123    1.507883    0.038971
     36          6           0       -2.665775   -0.778076   -0.433491
     37          6           0        2.806946    2.878921    0.409615
     38          6           0       -2.389833   -2.180985   -0.788013
     39          6           0        2.104464    0.540737   -0.164474
     40          6           0       -1.625294    0.091520   -0.163092
     41          6           0        0.720030    0.773890   -0.044301
     42          6           0       -0.180080   -0.152510   -0.247951
     43          1           0       13.608873   -0.464033    1.145624
     44          1           0       13.228484   -2.084535    1.914462
     45          1           0      -14.205500   -0.807725    1.495367
     46          1           0      -14.215970   -0.432924   -0.284391
     47          1           0       12.860404   -2.916476   -0.464527
     48          1           0      -12.853313    1.819424    1.630631
     49          1           0       13.805412   -0.167127   -1.360836
     50          1           0       13.245769   -1.390379   -2.346491
     51          1           0      -13.604747    1.601931   -1.400981
     52          1           0      -12.342756    2.762902   -0.407662
     53          1           0       11.872172   -0.536597    3.514050
     54          1           0       10.182050    0.100124    2.716322
     55          1           0       11.801663    0.839097    2.253736
     56          1           0       10.910019   -2.943843    0.414735
     57          1           0       10.730576   -2.693267    2.317164
     58          1           0        9.505350   -2.064416    1.383016
     59          1           0      -11.540503    0.157574    2.517005
     60          1           0      -10.844370   -1.422697    2.164501
     61          1           0      -12.431425   -1.298103    2.997786
     62          1           0      -13.437135   -2.811078    1.019481
     63          1           0      -11.708314   -2.997311    0.722167
     64          1           0      -12.526092   -2.440306   -0.623612
     65          1           0        8.918725   -0.223887    0.694537
     66          1           0      -10.424350   -2.077504   -0.858245
     67          1           0       10.148855    0.864697   -2.451585
     68          1           0       11.898939    1.370703   -2.796171
     69          1           0       11.238423   -0.138997   -3.448605
     70          1           0      -11.313949    1.982644   -2.659674
     71          1           0      -10.274608    0.775997   -2.201780
     72          1           0      -10.010598    2.378273   -1.295222
     73          1           0       14.796774   -2.817989    0.447179
     74          1           0      -15.234925    1.745585    1.485352
     75          1           0       10.302473    2.496757   -0.255456
     76          1           0       -8.837869    0.312428   -0.098231
     77          1           0        8.784115    4.347095    0.122956
     78          1           0        6.917121    3.866825    0.400195
     79          1           0        8.253944    3.763735    1.644450
     80          1           0       -8.219412   -3.205202   -0.007209
     81          1           0       -8.471485   -2.710156   -1.919543
     82          1           0       -6.882010   -3.141876   -1.170558
     83          1           0        7.008647    0.565404   -0.420324
     84          1           0       -6.543743    0.431305    0.092510
     85          1           0        5.343051    2.876730    0.053647
     86          1           0       -5.282397   -2.105919   -0.744160
     87          1           0        4.701756    0.036226   -0.415469
     88          1           0       -4.139301    0.655383    0.379188
     89          1           0        3.127608    3.177657    1.551725
     90          1           0        1.713610    3.078036    0.360786
     91          1           0        3.268102    3.621293   -0.247956
     92          1           0       -2.776233   -3.069897   -0.138258
     93          1           0       -2.993957   -2.532785   -1.603496
     94          1           0       -1.401758   -2.548864   -1.134465
     95          1           0        2.577004   -0.452495   -0.385696
     96          1           0       -1.923159    1.342872    0.180415
     97          1           0        0.375610    1.892343    0.103287
     98          1           0       -0.078736   -1.211706   -0.688822
 ---------------------------------------------------------------------

 SCF Done:  E(RCAM-B3LYP) =  -1706.95088384     A.U. after   14 cycles

 Excitation energies and oscillator strengths:

 Excited State   1:      Singlet-A      2.4694 eV  502.07 nm  f=3.8848  <S**2>=0.000
     155 ->158        -0.16791
     156 ->157         0.68362
 This state for optimization and/or second-order correction.
 Total Energy, E(TD-HF/TD-DFT) =  -1706.86013369
 Copying the excited state density for this state as the 1-particle RhoCI density.

 The electronic state is 1-A.
 Alpha  occ. eigenvalues --  -19.21600 -19.20484 -10.30458 -10.29624 -10.28731
 Alpha  occ. eigenvalues --  -10.28364 -10.28156 -10.28080 -10.28023 -10.28009
 Alpha  occ. eigenvalues --  -10.27459 -10.27401 -10.27210 -10.27137 -10.27113
 Alpha  occ. eigenvalues --  -10.26930 -10.26899 -10.26768 -10.26708 -10.26455
 Alpha  occ. eigenvalues --  -10.26270 -10.26262 -10.26241 -10.26214 -10.26201
 Alpha  occ. eigenvalues --  -10.26171 -10.26130 -10.25964 -10.25817 -10.25795
 Alpha  occ. eigenvalues --  -10.25727 -10.25531 -10.25520 -10.25498 -10.25451
 Alpha  occ. eigenvalues --  -10.25355 -10.25144 -10.24437 -10.24431 -10.24139
 Alpha  occ. eigenvalues --  -10.23960 -10.23711  -1.11558  -1.09931  -0.94573
 Alpha  occ. eigenvalues --   -0.93944  -0.92532  -0.92126  -0.90937  -0.90104
 Alpha  occ. eigenvalues --   -0.87923  -0.87276  -0.86497  -0.85689  -0.85322
 Alpha  occ. eigenvalues --   -0.83269  -0.82426  -0.80841  -0.79167  -0.77961
 Alpha  occ. eigenvalues --   -0.76662  -0.76293  -0.76111  -0.76028  -0.75834
 Alpha  occ. eigenvalues --   -0.75302  -0.74913  -0.74718  -0.73907  -0.71245
 Alpha  occ. eigenvalues --   -0.69301  -0.67668  -0.65988  -0.64732  -0.64335
 Alpha  occ. eigenvalues --   -0.63602  -0.62361  -0.61613  -0.61082  -0.59979
 Alpha  occ. eigenvalues --   -0.59385  -0.59038  -0.58566  -0.58305  -0.56405
 Alpha  occ. eigenvalues --   -0.55992  -0.55797  -0.54961  -0.54841  -0.54239
 Alpha  occ. eigenvalues --   -0.53430  -0.52887  -0.51626  -0.51574  -0.50702
 Alpha  occ. eigenvalues --   -0.50568  -0.50441  -0.50014  -0.49733  -0.49524
 Alpha  occ. eigenvalues --   -0.48704  -0.48452  -0.48353  -0.47734  -0.47668
 Alpha  occ. eigenvalues --   -0.47482  -0.47301  -0.46809  -0.46611  -0.46294
 Alpha  occ. eigenvalues --   -0.46182  -0.46122  -0.45983  -0.45380  -0.45085
 Alpha  occ. eigenvalues --   -0.44710  -0.44245  -0.44028  -0.43895  -0.43780
 Alpha  occ. eigenvalues --   -0.43201  -0.42537  -0.42293  -0.42130  -0.41844
 Alpha  occ. eigenvalues --   -0.41777  -0.41328  -0.41276  -0.41127  -0.40870
 Alpha  occ. eigenvalues --   -0.40609  -0.40066  -0.39968  -0.39418  -0.39140
 Alpha  occ. eigenvalues --   -0.39029  -0.38813  -0.38346  -0.38279  -0.37756
 Alpha  occ. eigenvalues --   -0.37333  -0.36936  -0.36539  -0.36107  -0.35876
 Alpha  occ. eigenvalues --   -0.35006  -0.34083  -0.33498  -0.32739  -0.31944
 Alpha  occ. eigenvalues --   -0.31770  -0.30045  -0.28331  -0.26947  -0.23722
 Alpha  occ. eigenvalues --   -0.20330
 Alpha virt. eigenvalues --   -0.05321  -0.01221   0.02530   0.05221   0.07131
 Alpha virt. eigenvalues --    0.09155   0.10458   0.11004   0.11451   0.12118
 Alpha virt. eigenvalues --    0.12661   0.12914   0.13103   0.13297   0.13418

 Mulliken charges:
               1
     1  O   -0.556705
     2  O   -0.528869
     3  C   -0.040498
     4  C   -0.027241
     5  C   -0.182300
     6  C   -0.188845
     7  C    0.166803
     8  C    0.169318
     9  C    0.062004
    10  C    0.083310
    11  C   -0.220758
    12  C   -0.206906
    13  C    0.053457
    14  C    0.023324
    15  C   -0.300770
    16  C   -0.289374
    17  C   -0.279413
    18  C   -0.307230
    19  C   -0.116502
    20  C   -0.146287
    21  C   -0.369237
    22  C   -0.359423
    23  C   -0.081242
    24  C   -0.095036
    25  C    0.039725
    26  C    0.134488
    27  C   -0.345405
    28  C   -0.358288
    29  C   -0.092484
    30  C   -0.132850
    31  C   -0.099777
    32  C   -0.061701
    33  C   -0.124898
    34  C   -0.130192
    35  C    0.138318
    36  C    0.142103
    37  C   -0.377833
    38  C   -0.401869
    39  C   -0.121512
    40  C   -0.131929
    41  C   -0.090879
    42  C   -0.059997
    43  H    0.108929
    44  H    0.055981
    45  H    0.083284
    46  H    0.094154
    47  H    0.081107
    48  H    0.080677
    49  H    0.132759
    50  H    0.099909
    51  H    0.090919
    52  H    0.097434
    53  H    0.061698
    54  H    0.117266
    55  H    0.114027
    56  H    0.109713
    57  H    0.121508
    58  H    0.075547
    59  H    0.073205
    60  H    0.121051
    61  H    0.083643
    62  H    0.090149
    63  H    0.100212
    64  H    0.113067
    65  H    0.102950
    66  H    0.072338
    67  H    0.093381
    68  H    0.109822
    69  H    0.117584
    70  H    0.106050
    71  H    0.123142
    72  H    0.115848
    73  H    0.294672
    74  H    0.300488
    75  H    0.080191
    76  H    0.056271
    77  H    0.117232
    78  H    0.113025
    79  H    0.130248
    80  H    0.098763
    81  H    0.117390
    82  H    0.105783
    83  H    0.071073
    84  H    0.071213
    85  H    0.072788
    86  H    0.073210
    87  H    0.073416
    88  H    0.093067
    89  H    0.103741
    90  H    0.105110
    91  H    0.124503
    92  H    0.112519
    93  H    0.125092
    94  H    0.115156
    95  H    0.083882
    96  H    0.045290
    97  H    0.093810
    98  H    0.088115
 Sum of Mulliken charges =  -0.00000

 Dipole moment (field-independent basis, Debye):
    X=              0.3815    Y=             -0.9933    Z=              1.7731  Tot=              2.0678
 Quadrupole moment (field-independent basis, Debye-Ang):
   XX=           -286.0494   YY=           -248.5543   ZZ=           -259.0997
   XY=             13.6897   XZ=             -1.6722   YZ=              2.5446

 Normal termination of Gaussian 16 at Mon Jul  8 04:13:52 2019.
