 Gaussian 16, Revision A.03,
 Gaussian 16:  ES64L-G16RevA.03 25-Dec-2016

 -------------------------------------
 # td=(NStates=1) CAM-B3LYP/6-31G(d,p)
 -------------------------------------

 --
 TD
 --
 Symbolic Z-matrix:
 Charge =  0 Multiplicity = 1

                         Standard orientation:
 ---------------------------------------------------------------------
 Center     Atomic      Atomic             Coordinates (Angstroms)
 Number     Number       Type             X           Y           Z
 ---------------------------------------------------------------------
      1          8           0       14.530559   -2.214412   -0.459498
      2          8           0      -14.643105    2.148730    0.485088
      3          6           0       11.398204   -1.021839    1.252420
      4          6           0      -12.301686   -0.892191    0.849981
      5          6           0       12.950106   -1.410090    1.066520
      6          6           0      -13.706269   -0.084597    0.724629
      7          6           0       13.187952   -1.908021   -0.249250
      8          6           0      -13.425347    1.452539    0.640848
      9          6           0       10.894281   -0.244304    0.061611
     10          6           0      -11.240542   -0.357277   -0.168356
     11          6           0       12.916989   -0.953132   -1.425365
     12          6           0      -12.640182    1.701420   -0.677387
     13          6           0       11.547060   -0.279407   -1.168094
     14          6           0      -11.372731    0.885605   -0.669521
     15          6           0       11.305988   -0.096183    2.459499
     16          6           0       10.615125   -2.304461    1.544588
     17          6           0      -11.784368   -0.665156    2.263306
     18          6           0      -12.592256   -2.359131    0.595865
     19          6           0        9.563414    0.484785    0.209044
     20          6           0      -10.046207   -1.145652   -0.313999
     21          6           0       11.056726    0.393667   -2.434793
     22          6           0      -10.399791    1.434784   -1.748767
     23          6           0        9.345707    1.718532   -0.234560
     24          6           0       -8.780924   -0.646237   -0.372595
     25          6           0        7.971335    2.281593    0.114974
     26          6           0       -7.491120   -1.301178   -0.528897
     27          6           0        8.051523    3.774591    0.415692
     28          6           0       -7.688006   -2.861062   -0.743517
     29          6           0        6.895588    1.529488    0.029293
     30          6           0       -6.293001   -0.664890   -0.331087
     31          6           0        5.502889    1.985131    0.197056
     32          6           0       -4.960761   -1.159510   -0.516701
     33          6           0        4.414686    1.248178    0.001711
     34          6           0       -3.955022   -0.408034   -0.297709
     35          6           0        3.063667    1.658042    0.118125
     36          6           0       -2.537558   -0.869135   -0.453225
     37          6           0        2.680685    3.054623    0.479490
     38          6           0       -2.387574   -2.237811   -0.860157
     39          6           0        2.069481    0.659050   -0.160138
     40          6           0       -1.588372    0.048321   -0.238091
     41          6           0        0.669014    0.745670    0.004833
     42          6           0       -0.167253   -0.210407   -0.219113
     43          1           0       13.628141   -0.444535    1.175372
     44          1           0       13.271345   -2.315760    1.850126
     45          1           0      -14.434145   -0.324990    1.555276
     46          1           0      -14.082513   -0.462409   -0.269780
     47          1           0       12.475597   -2.819368   -0.451703
     48          1           0      -12.691138    1.718086    1.481417
     49          1           0       13.814823   -0.227332   -1.614335
     50          1           0       12.799408   -1.792425   -2.250330
     51          1           0      -13.219891    1.520966   -1.587991
     52          1           0      -12.447578    2.845108   -0.777696
     53          1           0       11.686012   -0.381614    3.516415
     54          1           0       10.402144    0.264433    2.582558
     55          1           0       11.872363    0.795972    1.962073
     56          1           0       10.691955   -2.917249    0.705430
     57          1           0       10.950773   -2.904361    2.451088
     58          1           0        9.490648   -2.115392    1.532912
     59          1           0      -11.465697    0.272240    2.526242
     60          1           0      -10.972167   -1.410184    2.288755
     61          1           0      -12.494785   -1.004368    3.043316
     62          1           0      -13.437825   -2.779879    1.091445
     63          1           0      -11.752873   -2.881520    0.847118
     64          1           0      -12.619457   -2.542768   -0.558106
     65          1           0        8.922147   -0.058276    0.962132
     66          1           0      -10.349770   -2.148553   -0.347541
     67          1           0        9.973796    0.489544   -2.344504
     68          1           0       11.364042    1.477128   -2.600177
     69          1           0       11.236774   -0.237506   -3.405894
     70          1           0      -10.907375    1.789660   -2.610974
     71          1           0       -9.583043    0.534051   -2.045183
     72          1           0       -9.813352    2.396743   -1.349674
     73          1           0       14.736091   -3.071027    0.167944
     74          1           0      -15.268241    1.992432    1.249725
     75          1           0        9.870236    2.548470   -0.594766
     76          1           0       -8.694229    0.397104   -0.154999
     77          1           0        8.583306    4.269023   -0.448427
     78          1           0        7.036880    4.162796    0.369384
     79          1           0        8.486956    3.995922    1.337294
     80          1           0       -8.117001   -3.317091    0.105207
     81          1           0       -8.571668   -2.959009   -1.521513
     82          1           0       -6.828297   -3.465729   -1.109791
     83          1           0        6.752410    0.465180   -0.309986
     84          1           0       -6.446658    0.459661   -0.047228
     85          1           0        5.536519    3.187304    0.395133
     86          1           0       -4.951337   -2.089166   -1.239134
     87          1           0        4.694923    0.133894   -0.132742
     88          1           0       -4.062301    0.465904    0.377328
     89          1           0        2.597573    3.296293    1.639090
     90          1           0        1.588925    3.288942    0.126265
     91          1           0        3.347197    3.709401    0.032441
     92          1           0       -3.006382   -2.972078   -0.098627
     93          1           0       -2.942346   -2.467304   -1.754162
     94          1           0       -1.333815   -2.674409   -0.861948
     95          1           0        2.550702   -0.342492   -0.351137
     96          1           0       -1.915414    0.963287    0.045992
     97          1           0        0.311775    1.692393    0.436344
     98          1           0        0.187498   -1.337592   -0.529180
 ---------------------------------------------------------------------

 SCF Done:  E(RCAM-B3LYP) =  -1707.04000287     A.U. after   13 cycles

 Excitation energies and oscillator strengths:

 Excited State   1:      Singlet-A      2.9609 eV  418.73 nm  f=3.5910  <S**2>=0.000
     155 ->158         0.18500
     156 ->157         0.67368
 This state for optimization and/or second-order correction.
 Total Energy, E(TD-HF/TD-DFT) =  -1706.93119044
 Copying the excited state density for this state as the 1-particle RhoCI density.

 The electronic state is 1-A.
 Alpha  occ. eigenvalues --  -19.21711 -19.21463 -10.30902 -10.29545 -10.27741
 Alpha  occ. eigenvalues --  -10.27661 -10.27634 -10.27380 -10.27327 -10.27199
 Alpha  occ. eigenvalues --  -10.26941 -10.26891 -10.26766 -10.26746 -10.26690
 Alpha  occ. eigenvalues --  -10.26663 -10.26553 -10.26541 -10.26493 -10.26452
 Alpha  occ. eigenvalues --  -10.26418 -10.26362 -10.26330 -10.26280 -10.26206
 Alpha  occ. eigenvalues --  -10.26076 -10.25943 -10.25937 -10.25875 -10.25767
 Alpha  occ. eigenvalues --  -10.25700 -10.25561 -10.25537 -10.25505 -10.25489
 Alpha  occ. eigenvalues --  -10.25477 -10.25374 -10.25022 -10.24922 -10.24350
 Alpha  occ. eigenvalues --  -10.23921 -10.23606  -1.08820  -1.08749  -0.93250
 Alpha  occ. eigenvalues --   -0.93179  -0.92820  -0.91639  -0.90584  -0.89613
 Alpha  occ. eigenvalues --   -0.88066  -0.86468  -0.86018  -0.85538  -0.84561
 Alpha  occ. eigenvalues --   -0.83025  -0.82155  -0.80104  -0.78830  -0.78383
 Alpha  occ. eigenvalues --   -0.76942  -0.76733  -0.76563  -0.75910  -0.75273
 Alpha  occ. eigenvalues --   -0.75044  -0.74827  -0.74174  -0.73836  -0.70046
 Alpha  occ. eigenvalues --   -0.68575  -0.67137  -0.65312  -0.64158  -0.63519
 Alpha  occ. eigenvalues --   -0.63006  -0.62474  -0.61306  -0.60066  -0.59439
 Alpha  occ. eigenvalues --   -0.59336  -0.58338  -0.58206  -0.57671  -0.56410
 Alpha  occ. eigenvalues --   -0.55787  -0.54898  -0.53893  -0.53798  -0.53232
 Alpha  occ. eigenvalues --   -0.52829  -0.52396  -0.51739  -0.51646  -0.50401
 Alpha  occ. eigenvalues --   -0.50116  -0.49812  -0.49780  -0.49363  -0.48942
 Alpha  occ. eigenvalues --   -0.48213  -0.48132  -0.48033  -0.47880  -0.47733
 Alpha  occ. eigenvalues --   -0.47427  -0.47206  -0.47104  -0.46586  -0.46301
 Alpha  occ. eigenvalues --   -0.45965  -0.45887  -0.45727  -0.45512  -0.45406
 Alpha  occ. eigenvalues --   -0.44972  -0.44427  -0.44331  -0.43862  -0.43566
 Alpha  occ. eigenvalues --   -0.43352  -0.42891  -0.42356  -0.41929  -0.41818
 Alpha  occ. eigenvalues --   -0.41688  -0.41463  -0.41097  -0.40855  -0.40766
 Alpha  occ. eigenvalues --   -0.40649  -0.40140  -0.39929  -0.39477  -0.39239
 Alpha  occ. eigenvalues --   -0.38803  -0.38454  -0.38373  -0.38049  -0.37727
 Alpha  occ. eigenvalues --   -0.37196  -0.36956  -0.36368  -0.35823  -0.35228
 Alpha  occ. eigenvalues --   -0.34840  -0.33728  -0.33427  -0.32497  -0.31860
 Alpha  occ. eigenvalues --   -0.31476  -0.30473  -0.28703  -0.26649  -0.24121
 Alpha  occ. eigenvalues --   -0.21285
 Alpha virt. eigenvalues --   -0.03658  -0.00357   0.02392   0.05624   0.08008
 Alpha virt. eigenvalues --    0.09287   0.09836   0.11003   0.11387   0.12323
 Alpha virt. eigenvalues --    0.12355   0.12692   0.12881   0.13508   0.13759

 Mulliken charges:
               1
     1  O   -0.556610
     2  O   -0.566006
     3  C   -0.031591
     4  C   -0.027512
     5  C   -0.148319
     6  C   -0.184988
     7  C    0.175612
     8  C    0.185499
     9  C    0.050506
    10  C    0.064218
    11  C   -0.206851
    12  C   -0.220385
    13  C    0.037738
    14  C    0.032202
    15  C   -0.281860
    16  C   -0.303304
    17  C   -0.285323
    18  C   -0.320849
    19  C   -0.125175
    20  C   -0.096047
    21  C   -0.363102
    22  C   -0.354296
    23  C   -0.056740
    24  C   -0.133123
    25  C    0.015608
    26  C    0.113727
    27  C   -0.367484
    28  C   -0.372718
    29  C   -0.082986
    30  C   -0.151010
    31  C   -0.084501
    32  C   -0.072885
    33  C   -0.127443
    34  C   -0.107435
    35  C    0.114020
    36  C    0.135697
    37  C   -0.365672
    38  C   -0.386496
    39  C   -0.134749
    40  C   -0.113424
    41  C   -0.070990
    42  C   -0.072230
    43  H    0.090803
    44  H    0.050752
    45  H    0.069563
    46  H    0.095501
    47  H    0.057249
    48  H    0.074725
    49  H    0.119217
    50  H    0.105558
    51  H    0.125529
    52  H    0.094602
    53  H    0.090672
    54  H    0.107702
    55  H    0.084166
    56  H    0.110186
    57  H    0.101534
    58  H    0.088622
    59  H    0.114596
    60  H    0.096252
    61  H    0.090078
    62  H    0.108949
    63  H    0.110811
    64  H    0.093974
    65  H    0.109856
    66  H    0.078209
    67  H    0.119780
    68  H    0.109861
    69  H    0.095590
    70  H    0.111991
    71  H    0.101087
    72  H    0.087931
    73  H    0.294648
    74  H    0.305192
    75  H    0.098118
    76  H    0.101291
    77  H    0.112273
    78  H    0.110399
    79  H    0.140510
    80  H    0.134341
    81  H    0.098182
    82  H    0.102142
    83  H    0.080030
    84  H    0.075835
    85  H    0.056503
    86  H    0.088752
    87  H    0.080515
    88  H    0.091481
    89  H    0.110257
    90  H    0.102319
    91  H    0.126405
    92  H    0.097737
    93  H    0.132454
    94  H    0.104285
    95  H    0.074216
    96  H    0.071918
    97  H    0.086081
    98  H    0.076049
 Sum of Mulliken charges =  -0.00000

 Dipole moment (field-independent basis, Debye):
    X=             -0.4075    Y=             -1.1178    Z=              2.2182  Tot=              2.5171
 Quadrupole moment (field-independent basis, Debye-Ang):
   XX=           -274.5253   YY=           -243.0394   ZZ=           -261.9842
   XY=             11.2980   XZ=             -6.9277   YZ=              1.5964

 Normal termination of Gaussian 16 at Tue Jul  9 09:07:29 2019.
