 Gaussian 16, Revision A.03,
 Gaussian 16:  ES64L-G16RevA.03 25-Dec-2016

 -------------------------------------
 # td=(NStates=1) CAM-B3LYP/6-31G(d,p)
 -------------------------------------

 --
 TD
 --
 Symbolic Z-matrix:
 Charge =  0 Multiplicity = 1

                         Standard orientation:
 ---------------------------------------------------------------------
 Center     Atomic      Atomic             Coordinates (Angstroms)
 Number     Number       Type             X           Y           Z
 ---------------------------------------------------------------------
      1          8           0       15.001158   -1.876620   -0.507683
      2          8           0      -14.758650    2.064133    0.817337
      3          6           0       11.581344   -1.052599    1.187745
      4          6           0      -12.360803   -0.923758    0.860158
      5          6           0       13.075413   -1.210552    0.986289
      6          6           0      -13.682786   -0.125702    0.925957
      7          6           0       13.485586   -1.818420   -0.293395
      8          6           0      -13.524101    1.383661    0.757570
      9          6           0       10.957682   -0.375968    0.015949
     10          6           0      -11.462575   -0.320305   -0.271159
     11          6           0       13.124253   -0.869551   -1.321830
     12          6           0      -12.876335    1.640835   -0.614686
     13          6           0       11.727024   -0.233083   -1.140511
     14          6           0      -11.648228    0.801365   -0.833277
     15          6           0       11.406426   -0.147975    2.480206
     16          6           0       10.954478   -2.362177    1.477464
     17          6           0      -11.655661   -0.862967    2.215089
     18          6           0      -12.710291   -2.294624    0.489273
     19          6           0        9.640572    0.251545    0.099558
     20          6           0      -10.198790   -1.087051   -0.547783
     21          6           0       11.274834    0.511178   -2.354991
     22          6           0      -10.847069    1.369073   -1.962782
     23          6           0        9.332855    1.516460   -0.071120
     24          6           0       -9.027892   -0.561069   -0.372132
     25          6           0        7.994388    2.093519    0.144124
     26          6           0       -7.724119   -1.266359   -0.512756
     27          6           0        8.134021    3.651878    0.346833
     28          6           0       -7.605397   -2.791669   -0.825322
     29          6           0        6.836443    1.374525    0.031880
     30          6           0       -6.525767   -0.607566   -0.329184
     31          6           0        5.554946    1.947198    0.193215
     32          6           0       -5.136104   -1.085421   -0.485458
     33          6           0        4.427961    1.160864   -0.001438
     34          6           0       -4.094998   -0.265784   -0.202227
     35          6           0        3.058671    1.554726    0.193399
     36          6           0       -2.695562   -0.790725   -0.386297
     37          6           0        2.784582    2.938796    0.704057
     38          6           0       -2.492108   -2.176356   -0.771885
     39          6           0        2.032670    0.737059   -0.219192
     40          6           0       -1.656216    0.199608   -0.244677
     41          6           0        0.694577    0.857431   -0.195830
     42          6           0       -0.258588   -0.076342   -0.391591
     43          1           0       13.647482   -0.331718    1.058370
     44          1           0       13.330854   -1.835080    1.933699
     45          1           0      -14.090207   -0.165330    2.007777
     46          1           0      -14.361665   -0.468975    0.128980
     47          1           0       13.313612   -2.985550   -0.379358
     48          1           0      -12.719499    1.857504    1.591408
     49          1           0       13.816802    0.004611   -1.120475
     50          1           0       13.218869   -1.202340   -2.170056
     51          1           0      -13.735057    1.354701   -1.485356
     52          1           0      -12.524480    2.720317   -0.847118
     53          1           0       11.719914   -0.729356    3.266011
     54          1           0       10.247846   -0.058917    2.586545
     55          1           0       11.765329    0.727105    2.332499
     56          1           0       11.315885   -3.141775    0.704126
     57          1           0       11.149076   -2.960020    2.436642
     58          1           0        9.850576   -2.193971    1.675226
     59          1           0      -11.447160    0.173530    2.577261
     60          1           0      -10.811659   -1.307735    2.209600
     61          1           0      -12.369646   -1.341642    3.016293
     62          1           0      -13.549141   -2.656011    1.008723
     63          1           0      -11.848153   -3.063521    0.609430
     64          1           0      -13.027816   -2.431636   -0.418523
     65          1           0        8.790280   -0.383464    0.434161
     66          1           0      -10.363411   -2.100620   -0.825769
     67          1           0       10.272250    0.635355   -2.268986
     68          1           0       11.651021    1.504811   -2.705100
     69          1           0       11.595078   -0.204811   -3.180814
     70          1           0      -11.588874    1.746879   -2.628847
     71          1           0       -9.949641    0.820589   -2.370601
     72          1           0      -10.228906    2.205427   -1.767513
     73          1           0       15.188866   -2.713130    0.013250
     74          1           0      -15.291929    1.867744    1.598443
     75          1           0       10.172916    2.100069   -0.337523
     76          1           0       -9.034616    0.475815   -0.157032
     77          1           0        9.100440    4.029552   -0.371376
     78          1           0        7.128420    4.178647    0.256543
     79          1           0        8.422900    3.800825    1.434138
     80          1           0       -7.811556   -3.472225    0.066285
     81          1           0       -8.332388   -2.817678   -1.648763
     82          1           0       -6.524952   -3.210853   -1.197340
     83          1           0        6.810455    0.310412    0.042310
     84          1           0       -6.582609    0.536448   -0.102826
     85          1           0        5.464413    2.972159    0.556516
     86          1           0       -4.982384   -2.153759   -0.814145
     87          1           0        4.616886    0.223011   -0.403125
     88          1           0       -4.313852    0.742757    0.098729
     89          1           0        3.367358    2.900528    1.601878
     90          1           0        1.792172    2.952480    0.675851
     91          1           0        3.158354    3.651649   -0.049809
     92          1           0       -2.824445   -2.875295    0.112758
     93          1           0       -2.774114   -2.504415   -1.815868
     94          1           0       -1.443984   -2.335523   -0.807624
     95          1           0        2.295602   -0.295258   -0.494142
     96          1           0       -2.045838    1.239723   -0.034089
     97          1           0        0.056158    1.767833   -0.014196
     98          1           0        0.006060   -1.162149   -0.649763
 ---------------------------------------------------------------------

 SCF Done:  E(RCAM-B3LYP) =  -1707.00020977     A.U. after   14 cycles

 Excitation energies and oscillator strengths:

 Excited State   1:      Singlet-A      2.5660 eV  483.18 nm  f=3.6339  <S**2>=0.000
     155 ->158         0.15168
     156 ->157         0.68908
 This state for optimization and/or second-order correction.
 Total Energy, E(TD-HF/TD-DFT) =  -1706.90591008
 Copying the excited state density for this state as the 1-particle RhoCI density.

 The electronic state is 1-A.
 Alpha  occ. eigenvalues --  -19.21182 -19.20652 -10.31819 -10.30879 -10.28540
 Alpha  occ. eigenvalues --  -10.28173 -10.27995 -10.27618 -10.27225 -10.27201
 Alpha  occ. eigenvalues --  -10.27075 -10.27071 -10.27002 -10.26985 -10.26722
 Alpha  occ. eigenvalues --  -10.26695 -10.26584 -10.26420 -10.26291 -10.26288
 Alpha  occ. eigenvalues --  -10.26226 -10.25887 -10.25833 -10.25762 -10.25745
 Alpha  occ. eigenvalues --  -10.25675 -10.25655 -10.25503 -10.25467 -10.25434
 Alpha  occ. eigenvalues --  -10.25232 -10.24887 -10.24859 -10.24790 -10.24419
 Alpha  occ. eigenvalues --  -10.24398 -10.23995 -10.23917 -10.23885 -10.23771
 Alpha  occ. eigenvalues --  -10.23348 -10.23087  -1.09349  -1.06248  -0.94648
 Alpha  occ. eigenvalues --   -0.94235  -0.92440  -0.91140  -0.90474  -0.89546
 Alpha  occ. eigenvalues --   -0.88152  -0.87768  -0.87622  -0.86282  -0.84960
 Alpha  occ. eigenvalues --   -0.83417  -0.82251  -0.80481  -0.80196  -0.78936
 Alpha  occ. eigenvalues --   -0.77857  -0.76929  -0.76525  -0.76473  -0.76264
 Alpha  occ. eigenvalues --   -0.75795  -0.75031  -0.74722  -0.73342  -0.70154
 Alpha  occ. eigenvalues --   -0.68429  -0.67154  -0.65583  -0.64882  -0.64542
 Alpha  occ. eigenvalues --   -0.63792  -0.62801  -0.61461  -0.60978  -0.60560
 Alpha  occ. eigenvalues --   -0.59712  -0.59222  -0.57990  -0.57197  -0.56563
 Alpha  occ. eigenvalues --   -0.56508  -0.55652  -0.54963  -0.54404  -0.53894
 Alpha  occ. eigenvalues --   -0.53552  -0.53233  -0.52372  -0.51729  -0.51270
 Alpha  occ. eigenvalues --   -0.51238  -0.50312  -0.50066  -0.49724  -0.49376
 Alpha  occ. eigenvalues --   -0.49253  -0.48899  -0.48625  -0.48371  -0.48145
 Alpha  occ. eigenvalues --   -0.47785  -0.47634  -0.47272  -0.46683  -0.46357
 Alpha  occ. eigenvalues --   -0.46204  -0.46087  -0.45375  -0.45011  -0.44552
 Alpha  occ. eigenvalues --   -0.44536  -0.44458  -0.44152  -0.43982  -0.43604
 Alpha  occ. eigenvalues --   -0.43380  -0.43135  -0.42766  -0.42574  -0.42150
 Alpha  occ. eigenvalues --   -0.41825  -0.41564  -0.40908  -0.40741  -0.40702
 Alpha  occ. eigenvalues --   -0.40463  -0.40225  -0.40048  -0.39974  -0.39664
 Alpha  occ. eigenvalues --   -0.39352  -0.39310  -0.38427  -0.38187  -0.38060
 Alpha  occ. eigenvalues --   -0.37659  -0.37536  -0.36608  -0.36218  -0.35864
 Alpha  occ. eigenvalues --   -0.35686  -0.34789  -0.34179  -0.32265  -0.32119
 Alpha  occ. eigenvalues --   -0.31974  -0.29723  -0.28400  -0.26676  -0.24269
 Alpha  occ. eigenvalues --   -0.20118
 Alpha virt. eigenvalues --   -0.04703   0.00185   0.03343   0.06259   0.08227
 Alpha virt. eigenvalues --    0.09487   0.10651   0.11311   0.11999   0.12179
 Alpha virt. eigenvalues --    0.12274   0.12464   0.13100   0.13673   0.13996

 Mulliken charges:
               1
     1  O   -0.572799
     2  O   -0.560404
     3  C   -0.042105
     4  C    0.011492
     5  C   -0.166721
     6  C   -0.195947
     7  C    0.115967
     8  C    0.193987
     9  C    0.084112
    10  C    0.033218
    11  C   -0.154134
    12  C   -0.220171
    13  C    0.000944
    14  C    0.080856
    15  C   -0.275189
    16  C   -0.299606
    17  C   -0.284947
    18  C   -0.309424
    19  C   -0.137512
    20  C   -0.138104
    21  C   -0.357766
    22  C   -0.377546
    23  C   -0.077759
    24  C   -0.061623
    25  C    0.063776
    26  C    0.071651
    27  C   -0.355033
    28  C   -0.354528
    29  C   -0.106135
    30  C   -0.137661
    31  C   -0.084320
    32  C   -0.074631
    33  C   -0.106866
    34  C   -0.102294
    35  C    0.067882
    36  C    0.091947
    37  C   -0.341367
    38  C   -0.379893
    39  C   -0.134704
    40  C   -0.130873
    41  C   -0.064988
    42  C   -0.091762
    43  H    0.111484
    44  H    0.068246
    45  H    0.072366
    46  H    0.104332
    47  H    0.074718
    48  H    0.044785
    49  H    0.132773
    50  H    0.098620
    51  H    0.083873
    52  H    0.098978
    53  H    0.108219
    54  H    0.083629
    55  H    0.110930
    56  H    0.094315
    57  H    0.089785
    58  H    0.099484
    59  H    0.097324
    60  H    0.117443
    61  H    0.080057
    62  H    0.102056
    63  H    0.085986
    64  H    0.116390
    65  H    0.078924
    66  H    0.086616
    67  H    0.129658
    68  H    0.112940
    69  H    0.093596
    70  H    0.115329
    71  H    0.111743
    72  H    0.115518
    73  H    0.296625
    74  H    0.305791
    75  H    0.083919
    76  H    0.089870
    77  H    0.099651
    78  H    0.110463
    79  H    0.127367
    80  H    0.119279
    81  H    0.119773
    82  H    0.093824
    83  H    0.090779
    84  H    0.062400
    85  H    0.081535
    86  H    0.086077
    87  H    0.075083
    88  H    0.087587
    89  H    0.126839
    90  H    0.114610
    91  H    0.119882
    92  H    0.116341
    93  H    0.128139
    94  H    0.111113
    95  H    0.073940
    96  H    0.086357
    97  H    0.075646
    98  H    0.077974
 Sum of Mulliken charges =  -0.00000

 Dipole moment (field-independent basis, Debye):
    X=             -0.2569    Y=             -1.7754    Z=              1.7499  Tot=              2.5060
 Quadrupole moment (field-independent basis, Debye-Ang):
   XX=           -277.8605   YY=           -245.4845   ZZ=           -260.7550
   XY=              9.0980   XZ=             -0.5604   YZ=              1.5367

 Normal termination of Gaussian 16 at Thu Jul  4 01:27:11 2019.
