 Gaussian 16, Revision A.03,
 Gaussian 16:  ES64L-G16RevA.03 25-Dec-2016

 -------------------------------------
 # td=(NStates=1) CAM-B3LYP/6-31G(d,p)
 -------------------------------------

 --
 TD
 --
 Symbolic Z-matrix:
 Charge =  0 Multiplicity = 1

                         Standard orientation:
 ---------------------------------------------------------------------
 Center     Atomic      Atomic             Coordinates (Angstroms)
 Number     Number       Type             X           Y           Z
 ---------------------------------------------------------------------
      1          8           0       14.746599   -2.288553   -0.473205
      2          8           0      -14.842371    1.936890    0.730023
      3          6           0       11.519674   -1.158701    1.196713
      4          6           0      -12.369850   -0.958217    0.720211
      5          6           0       13.030227   -1.596801    0.908757
      6          6           0      -13.669958   -0.188561    0.663907
      7          6           0       13.277196   -2.010387   -0.383552
      8          6           0      -13.601318    1.271693    0.712212
      9          6           0       11.075634   -0.214608   -0.022473
     10          6           0      -11.365381   -0.357775   -0.245273
     11          6           0       13.010640   -0.875058   -1.335446
     12          6           0      -12.820741    1.679641   -0.573220
     13          6           0       11.736394   -0.166972   -1.165820
     14          6           0      -11.583426    0.832245   -0.799139
     15          6           0       11.322166   -0.417006    2.544528
     16          6           0       10.573719   -2.471209    1.151455
     17          6           0      -11.867590   -1.059290    2.171660
     18          6           0      -12.669279   -2.353511    0.204942
     19          6           0        9.625809    0.379178    0.177944
     20          6           0       -9.990969   -1.041209   -0.464942
     21          6           0       11.292865    0.705731   -2.307322
     22          6           0      -10.670449    1.457591   -1.832809
     23          6           0        9.343411    1.636910   -0.074473
     24          6           0       -8.816460   -0.631202   -0.277952
     25          6           0        8.139156    2.210873    0.186992
     26          6           0       -7.551464   -1.284057   -0.401276
     27          6           0        8.129115    3.714075    0.610013
     28          6           0       -7.734017   -2.656348   -0.771153
     29          6           0        6.918170    1.610956   -0.068261
     30          6           0       -6.410749   -0.634104   -0.175825
     31          6           0        5.590370    2.079650   -0.003018
     32          6           0       -5.063506   -1.112740   -0.364902
     33          6           0        4.391468    1.417106   -0.181431
     34          6           0       -4.087008   -0.240629   -0.266167
     35          6           0        3.019296    1.783352    0.062905
     36          6           0       -2.621109   -0.664178   -0.403716
     37          6           0        2.753636    3.025665    0.790190
     38          6           0       -2.338514   -2.038923   -0.764715
     39          6           0        2.046533    0.904564   -0.123807
     40          6           0       -1.637589    0.294701   -0.141643
     41          6           0        0.589179    0.967501    0.061672
     42          6           0       -0.216658   -0.027112   -0.280116
     43          1           0       13.560735   -0.781750    1.485477
     44          1           0       13.330797   -2.390009    1.522963
     45          1           0      -14.480550   -0.404621    1.499497
     46          1           0      -14.255064   -0.378490   -0.358425
     47          1           0       12.653090   -2.859688   -0.771889
     48          1           0      -12.957826    1.675113    1.514652
     49          1           0       13.958221   -0.287170   -1.311714
     50          1           0       13.027916   -1.345880   -2.192792
     51          1           0      -13.536123    1.575932   -1.296895
     52          1           0      -12.538538    2.590548   -0.435650
     53          1           0       11.585803   -1.298004    3.417914
     54          1           0       10.254369   -0.007823    2.664369
     55          1           0       12.150949    0.287414    2.659046
     56          1           0       10.487046   -3.034807    0.149753
     57          1           0       10.894383   -3.283987    1.879315
     58          1           0        9.548699   -2.151665    1.795506
     59          1           0      -12.044189   -0.081343    2.960680
     60          1           0      -10.860925   -1.451497    2.185792
     61          1           0      -12.498474   -1.907405    2.579127
     62          1           0      -13.391085   -3.001587    0.643987
     63          1           0      -11.746268   -3.060448    0.380428
     64          1           0      -12.530946   -2.439260   -0.958723
     65          1           0        9.109708   -0.312849    0.643802
     66          1           0       -9.887436   -2.114660   -0.687697
     67          1           0       10.208580    0.770091   -2.256221
     68          1           0       11.862065    1.588380   -2.429673
     69          1           0       11.677916   -0.045351   -3.213265
     70          1           0      -11.181996    2.189892   -2.523541
     71          1           0       -9.968733    0.672605   -2.388983
     72          1           0       -9.885260    2.135749   -1.502719
     73          1           0       14.984044   -3.186651    0.047548
     74          1           0      -15.288131    1.387297    1.445251
     75          1           0       10.222943    1.967316   -0.244317
     76          1           0       -8.884268    0.265890    0.171737
     77          1           0        8.745539    4.097031   -0.147308
     78          1           0        6.991542    4.149170    0.562173
     79          1           0        8.690811    3.815119    1.654084
     80          1           0       -7.989688   -3.301327    0.031714
     81          1           0       -8.336468   -2.680791   -1.696011
     82          1           0       -6.680671   -2.982423   -0.940858
     83          1           0        7.070837    0.620235   -0.587768
     84          1           0       -6.428700    0.372618    0.036753
     85          1           0        5.822506    3.166113    0.395664
     86          1           0       -4.940264   -2.313234   -0.339889
     87          1           0        4.490930    0.240412   -0.234086
     88          1           0       -4.199561    0.720521   -0.057459
     89          1           0        3.172533    3.055831    1.715980
     90          1           0        1.811226    3.421156    0.714729
     91          1           0        3.487353    3.867736    0.417063
     92          1           0       -2.982926   -2.664776   -0.197883
     93          1           0       -2.822548   -2.302228   -1.628131
     94          1           0       -1.227039   -2.357165   -0.845430
     95          1           0        2.354291   -0.244218   -0.540645
     96          1           0       -2.048780    1.200335    0.032800
     97          1           0        0.278860    1.825727    0.457241
     98          1           0        0.133193   -1.050814   -0.345532
 ---------------------------------------------------------------------

 SCF Done:  E(RCAM-B3LYP) =  -1706.85870044     A.U. after   13 cycles

 Excitation energies and oscillator strengths:

 Excited State   1:      Singlet-A      2.9562 eV  419.41 nm  f=3.4565  <S**2>=0.000
     155 ->158        -0.17999
     156 ->157         0.67812
 This state for optimization and/or second-order correction.
 Total Energy, E(TD-HF/TD-DFT) =  -1706.75006334
 Copying the excited state density for this state as the 1-particle RhoCI density.

 The electronic state is 1-A.
 Alpha  occ. eigenvalues --  -19.21842 -19.21650 -10.30088 -10.29211 -10.28822
 Alpha  occ. eigenvalues --  -10.28141 -10.27539 -10.27440 -10.27417 -10.27389
 Alpha  occ. eigenvalues --  -10.27340 -10.27298 -10.27214 -10.27182 -10.26802
 Alpha  occ. eigenvalues --  -10.26593 -10.26579 -10.26524 -10.26470 -10.26412
 Alpha  occ. eigenvalues --  -10.26294 -10.25981 -10.25956 -10.25863 -10.25796
 Alpha  occ. eigenvalues --  -10.25755 -10.25729 -10.25575 -10.25528 -10.25491
 Alpha  occ. eigenvalues --  -10.25324 -10.25309 -10.25202 -10.24861 -10.24838
 Alpha  occ. eigenvalues --  -10.24811 -10.24288 -10.24206 -10.23997 -10.23308
 Alpha  occ. eigenvalues --  -10.23019 -10.22695  -1.09900  -1.06096  -0.94415
 Alpha  occ. eigenvalues --   -0.93849  -0.93147  -0.92240  -0.91825  -0.90954
 Alpha  occ. eigenvalues --   -0.88376  -0.87184  -0.86814  -0.86431  -0.85724
 Alpha  occ. eigenvalues --   -0.83898  -0.83332  -0.81119  -0.80687  -0.78796
 Alpha  occ. eigenvalues --   -0.77535  -0.76876  -0.76487  -0.76289  -0.75497
 Alpha  occ. eigenvalues --   -0.75451  -0.75102  -0.74479  -0.74255  -0.70773
 Alpha  occ. eigenvalues --   -0.69241  -0.67431  -0.66004  -0.65274  -0.64701
 Alpha  occ. eigenvalues --   -0.64404  -0.62776  -0.62645  -0.61715  -0.60473
 Alpha  occ. eigenvalues --   -0.59481  -0.58646  -0.58365  -0.58098  -0.57633
 Alpha  occ. eigenvalues --   -0.56551  -0.56021  -0.55249  -0.54695  -0.54110
 Alpha  occ. eigenvalues --   -0.53898  -0.53120  -0.52853  -0.52250  -0.51608
 Alpha  occ. eigenvalues --   -0.51070  -0.50459  -0.50282  -0.49786  -0.49513
 Alpha  occ. eigenvalues --   -0.49102  -0.48844  -0.48714  -0.48629  -0.48298
 Alpha  occ. eigenvalues --   -0.48048  -0.47477  -0.47344  -0.47070  -0.46613
 Alpha  occ. eigenvalues --   -0.46424  -0.46244  -0.45818  -0.45183  -0.45072
 Alpha  occ. eigenvalues --   -0.44935  -0.44799  -0.44058  -0.43817  -0.43703
 Alpha  occ. eigenvalues --   -0.43076  -0.43002  -0.42775  -0.42643  -0.41824
 Alpha  occ. eigenvalues --   -0.41682  -0.41114  -0.40951  -0.40570  -0.40361
 Alpha  occ. eigenvalues --   -0.40307  -0.40009  -0.39765  -0.39542  -0.39192
 Alpha  occ. eigenvalues --   -0.39085  -0.38861  -0.38465  -0.38262  -0.37809
 Alpha  occ. eigenvalues --   -0.37684  -0.36915  -0.36337  -0.35592  -0.35204
 Alpha  occ. eigenvalues --   -0.35004  -0.34323  -0.33735  -0.32462  -0.32362
 Alpha  occ. eigenvalues --   -0.32177  -0.29780  -0.28888  -0.27321  -0.24614
 Alpha  occ. eigenvalues --   -0.21296
 Alpha virt. eigenvalues --   -0.03617  -0.00174   0.03542   0.06540   0.08019
 Alpha virt. eigenvalues --    0.09483   0.10258   0.10820   0.11185   0.11479
 Alpha virt. eigenvalues --    0.11754   0.12127   0.13212   0.13582   0.13804

 Mulliken charges:
               1
     1  O   -0.585999
     2  O   -0.550156
     3  C   -0.022862
     4  C    0.029771
     5  C   -0.145476
     6  C   -0.182599
     7  C    0.141955
     8  C    0.154139
     9  C    0.011800
    10  C    0.046997
    11  C   -0.204271
    12  C   -0.206792
    13  C    0.048663
    14  C    0.058413
    15  C   -0.300656
    16  C   -0.302292
    17  C   -0.292052
    18  C   -0.323919
    19  C   -0.100747
    20  C   -0.167487
    21  C   -0.346935
    22  C   -0.378311
    23  C   -0.057787
    24  C   -0.034314
    25  C    0.075314
    26  C    0.115923
    27  C   -0.355288
    28  C   -0.393753
    29  C   -0.119180
    30  C   -0.118040
    31  C   -0.057240
    32  C   -0.088869
    33  C   -0.150198
    34  C   -0.087378
    35  C    0.148051
    36  C    0.094444
    37  C   -0.374850
    38  C   -0.382771
    39  C   -0.142744
    40  C   -0.121576
    41  C   -0.047375
    42  C   -0.082950
    43  H    0.099383
    44  H    0.073780
    45  H    0.047436
    46  H    0.092731
    47  H    0.090021
    48  H    0.071832
    49  H    0.124697
    50  H    0.107057
    51  H    0.126512
    52  H    0.111845
    53  H    0.067545
    54  H    0.115085
    55  H    0.114911
    56  H    0.106229
    57  H    0.094747
    58  H    0.076814
    59  H    0.080142
    60  H    0.116561
    61  H    0.096055
    62  H    0.115092
    63  H    0.080244
    64  H    0.106689
    65  H    0.078675
    66  H    0.060875
    67  H    0.132184
    68  H    0.130499
    69  H    0.068130
    70  H    0.102294
    71  H    0.106841
    72  H    0.118029
    73  H    0.303487
    74  H    0.302877
    75  H    0.082776
    76  H    0.058356
    77  H    0.135308
    78  H    0.100306
    79  H    0.109731
    80  H    0.135987
    81  H    0.132145
    82  H    0.088174
    83  H    0.067897
    84  H    0.076627
    85  H    0.046637
    86  H    0.083961
    87  H    0.082745
    88  H    0.079543
    89  H    0.141988
    90  H    0.115858
    91  H    0.088366
    92  H    0.118566
    93  H    0.133318
    94  H    0.105445
    95  H    0.045888
    96  H    0.073424
    97  H    0.075326
    98  H    0.101723
 Sum of Mulliken charges =  -0.00000

 Dipole moment (field-independent basis, Debye):
    X=              0.8791    Y=             -2.3364    Z=              2.3331  Tot=              3.4169
 Quadrupole moment (field-independent basis, Debye-Ang):
   XX=           -283.7018   YY=           -243.9084   ZZ=           -263.3150
   XY=             10.6397   XZ=              0.9753   YZ=              1.3822

 Normal termination of Gaussian 16 at Sun Jul  7 04:10:51 2019.
