 Gaussian 16, Revision A.03,
 Gaussian 16:  ES64L-G16RevA.03 25-Dec-2016

 -------------------------------------
 # td=(NStates=1) CAM-B3LYP/6-31G(d,p)
 -------------------------------------

 --
 TD
 --
 Symbolic Z-matrix:
 Charge =  0 Multiplicity = 1

                         Standard orientation:
 ---------------------------------------------------------------------
 Center     Atomic      Atomic             Coordinates (Angstroms)
 Number     Number       Type             X           Y           Z
 ---------------------------------------------------------------------
      1          8           0       14.593490   -2.372050   -0.480011
      2          8           0      -14.843281    1.990189    0.469338
      3          6           0       11.480354   -1.014511    1.268771
      4          6           0      -12.332007   -0.868170    1.021250
      5          6           0       12.952759   -1.523718    1.000568
      6          6           0      -13.665134   -0.330827    0.888852
      7          6           0       13.259638   -2.086997   -0.295709
      8          6           0      -13.662539    1.216407    0.709643
      9          6           0       10.921591   -0.343269    0.022805
     10          6           0      -11.355484   -0.238230   -0.041873
     11          6           0       12.856318   -1.100089   -1.401457
     12          6           0      -12.930943    1.561812   -0.631300
     13          6           0       11.565756   -0.388009   -1.167681
     14          6           0      -11.691866    0.749003   -0.913563
     15          6           0       11.407782   -0.064935    2.324646
     16          6           0       10.626611   -2.285625    1.577005
     17          6           0      -11.659138   -0.780881    2.381949
     18          6           0      -12.475329   -2.503392    0.611697
     19          6           0        9.680790    0.408253    0.280361
     20          6           0      -10.072739   -1.133292   -0.192173
     21          6           0       11.033597    0.280289   -2.414115
     22          6           0      -10.766023    1.377574   -2.057203
     23          6           0        9.399550    1.651769   -0.154121
     24          6           0       -8.853594   -0.518275   -0.413420
     25          6           0        8.136212    2.379015    0.033095
     26          6           0       -7.526792   -1.236253   -0.521112
     27          6           0        8.169205    3.759037    0.727240
     28          6           0       -7.572528   -2.664939   -0.841501
     29          6           0        6.994437    1.635593   -0.095375
     30          6           0       -6.377216   -0.592860   -0.460733
     31          6           0        5.652109    2.117223    0.186612
     32          6           0       -5.053735   -1.081322   -0.543072
     33          6           0        4.590985    1.362593   -0.062531
     34          6           0       -3.928015   -0.343271   -0.337959
     35          6           0        3.151703    1.715646    0.080470
     36          6           0       -2.638398   -0.793395   -0.349578
     37          6           0        2.829403    3.151799    0.434945
     38          6           0       -2.344014   -2.108189   -0.941159
     39          6           0        2.163466    0.825083   -0.163669
     40          6           0       -1.654358    0.115102   -0.093088
     41          6           0        0.704719    1.052465    0.118329
     42          6           0       -0.241579    0.051976   -0.263282
     43          1           0       13.470228   -0.628003    1.133785
     44          1           0       13.211745   -2.167034    1.967477
     45          1           0      -14.254525   -0.642186    1.907628
     46          1           0      -14.261350   -0.856868    0.095473
     47          1           0       12.696840   -3.123966   -0.612746
     48          1           0      -12.998447    1.709397    1.465707
     49          1           0       13.891539   -0.352696   -1.521779
     50          1           0       12.433937   -1.884305   -2.376626
     51          1           0      -13.541437    1.465432   -1.633759
     52          1           0      -12.646320    2.607450   -0.702983
     53          1           0       11.966318   -0.286684    3.367158
     54          1           0       10.429341    0.352955    2.517742
     55          1           0       11.947279    0.860992    2.111490
     56          1           0       10.696625   -2.960416    0.927390
     57          1           0       10.905355   -2.733888    2.514268
     58          1           0        9.429951   -2.060528    1.713737
     59          1           0      -11.333327    0.394790    2.712333
     60          1           0      -10.597801   -1.289725    2.350432
     61          1           0      -12.346228   -1.087166    3.103100
     62          1           0      -13.391695   -2.839090    1.227064
     63          1           0      -11.717083   -3.032437    0.895443
     64          1           0      -12.856156   -2.538590   -0.486569
     65          1           0        8.844319   -0.119113    0.778126
     66          1           0      -10.174555   -2.268850   -0.021567
     67          1           0       10.122139    0.722734   -2.375923
     68          1           0       11.694487    1.041475   -2.912538
     69          1           0       10.993115   -0.596109   -3.176161
     70          1           0      -11.432597    1.881694   -2.871168
     71          1           0      -10.038916    0.597385   -2.609376
     72          1           0       -9.957436    2.168133   -1.506226
     73          1           0       14.976175   -3.307715   -0.074376
     74          1           0      -15.790247    1.435463    0.823600
     75          1           0       10.041708    2.242844   -0.519441
     76          1           0       -8.595539    0.495490   -0.383819
     77          1           0        8.815428    4.240719   -0.011285
     78          1           0        7.270028    4.253699    0.545852
     79          1           0        8.552576    3.868658    1.640222
     80          1           0       -8.051882   -3.186301    0.115939
     81          1           0       -8.364639   -2.779164   -1.465204
     82          1           0       -6.566477   -3.129450   -1.129259
     83          1           0        6.935994    0.578312   -0.280869
     84          1           0       -6.596521    0.582355   -0.189138
     85          1           0        5.492429    3.146008    0.237663
     86          1           0       -4.848621   -2.228276   -0.612968
     87          1           0        4.783248    0.153993   -0.247972
     88          1           0       -4.113497    0.855187   -0.258074
     89          1           0        3.415631    3.616738    1.216322
     90          1           0        1.717279    3.298144    0.596395
     91          1           0        3.084167    3.713162   -0.530865
     92          1           0       -2.842901   -2.825980   -0.201241
     93          1           0       -2.767018   -2.181882   -1.926536
     94          1           0       -1.425328   -2.366215   -1.118133
     95          1           0        2.409676   -0.189956   -0.560819
     96          1           0       -2.076453    1.076768    0.387333
     97          1           0        0.354529    1.880831    0.547375
     98          1           0        0.349917   -0.984458   -0.371635
 ---------------------------------------------------------------------

 SCF Done:  E(RCAM-B3LYP) =  -1706.88125438     A.U. after   14 cycles

 Excitation energies and oscillator strengths:

 Excited State   1:      Singlet-A      2.7267 eV  454.71 nm  f=3.5955  <S**2>=0.000
     155 ->158        -0.15704
     156 ->157         0.68504
 This state for optimization and/or second-order correction.
 Total Energy, E(TD-HF/TD-DFT) =  -1706.78105110
 Copying the excited state density for this state as the 1-particle RhoCI density.

 The electronic state is 1-A.
 Alpha  occ. eigenvalues --  -19.22625 -19.21688 -10.31415 -10.31179 -10.28578
 Alpha  occ. eigenvalues --  -10.28559 -10.28254 -10.27767 -10.27679 -10.27568
 Alpha  occ. eigenvalues --  -10.27310 -10.27239 -10.26916 -10.26856 -10.26839
 Alpha  occ. eigenvalues --  -10.26732 -10.26689 -10.26669 -10.26589 -10.26522
 Alpha  occ. eigenvalues --  -10.26502 -10.26368 -10.26335 -10.26296 -10.26246
 Alpha  occ. eigenvalues --  -10.26245 -10.26108 -10.26003 -10.25908 -10.25896
 Alpha  occ. eigenvalues --  -10.25600 -10.25415 -10.25261 -10.25148 -10.25082
 Alpha  occ. eigenvalues --  -10.24765 -10.24641 -10.24397 -10.24274 -10.24248
 Alpha  occ. eigenvalues --  -10.24175 -10.23572  -1.08899  -1.06589  -0.93988
 Alpha  occ. eigenvalues --   -0.92873  -0.92620  -0.91386  -0.90647  -0.89816
 Alpha  occ. eigenvalues --   -0.87046  -0.86542  -0.85917  -0.85011  -0.84022
 Alpha  occ. eigenvalues --   -0.82940  -0.81602  -0.80545  -0.78588  -0.78288
 Alpha  occ. eigenvalues --   -0.77186  -0.76762  -0.76497  -0.76123  -0.75471
 Alpha  occ. eigenvalues --   -0.74959  -0.74590  -0.74241  -0.73603  -0.70591
 Alpha  occ. eigenvalues --   -0.69207  -0.67218  -0.65473  -0.64618  -0.63766
 Alpha  occ. eigenvalues --   -0.63496  -0.62897  -0.61483  -0.60598  -0.59280
 Alpha  occ. eigenvalues --   -0.58860  -0.58064  -0.56916  -0.56230  -0.56005
 Alpha  occ. eigenvalues --   -0.55684  -0.54920  -0.54542  -0.54311  -0.53599
 Alpha  occ. eigenvalues --   -0.52911  -0.52059  -0.51809  -0.51103  -0.50998
 Alpha  occ. eigenvalues --   -0.50705  -0.50078  -0.49893  -0.49584  -0.49348
 Alpha  occ. eigenvalues --   -0.49078  -0.48671  -0.48150  -0.47932  -0.47856
 Alpha  occ. eigenvalues --   -0.47349  -0.46839  -0.46630  -0.46496  -0.46174
 Alpha  occ. eigenvalues --   -0.45515  -0.45475  -0.45239  -0.44465  -0.44409
 Alpha  occ. eigenvalues --   -0.44217  -0.44104  -0.44046  -0.43663  -0.43472
 Alpha  occ. eigenvalues --   -0.43347  -0.42860  -0.42466  -0.42073  -0.41915
 Alpha  occ. eigenvalues --   -0.41789  -0.41583  -0.41145  -0.41109  -0.40830
 Alpha  occ. eigenvalues --   -0.40775  -0.40233  -0.39664  -0.38916  -0.38865
 Alpha  occ. eigenvalues --   -0.38608  -0.38532  -0.38338  -0.38002  -0.37638
 Alpha  occ. eigenvalues --   -0.37115  -0.36778  -0.35743  -0.35661  -0.35062
 Alpha  occ. eigenvalues --   -0.34508  -0.33932  -0.33083  -0.32321  -0.31870
 Alpha  occ. eigenvalues --   -0.31343  -0.29500  -0.27910  -0.26388  -0.24277
 Alpha  occ. eigenvalues --   -0.20650
 Alpha virt. eigenvalues --   -0.04295   0.00164   0.02999   0.05766   0.07980
 Alpha virt. eigenvalues --    0.08344   0.08787   0.09786   0.10148   0.10963
 Alpha virt. eigenvalues --    0.11432   0.11847   0.12212   0.12814   0.13423

 Mulliken charges:
               1
     1  O   -0.571952
     2  O   -0.562532
     3  C   -0.008369
     4  C    0.000768
     5  C   -0.177941
     6  C   -0.203685
     7  C    0.214788
     8  C    0.183300
     9  C    0.074162
    10  C    0.043642
    11  C   -0.212989
    12  C   -0.215250
    13  C    0.055482
    14  C    0.054793
    15  C   -0.313711
    16  C   -0.279786
    17  C   -0.280846
    18  C   -0.310208
    19  C   -0.127886
    20  C   -0.149147
    21  C   -0.342090
    22  C   -0.337705
    23  C   -0.059461
    24  C   -0.078048
    25  C   -0.006656
    26  C    0.123091
    27  C   -0.343906
    28  C   -0.366074
    29  C   -0.085174
    30  C   -0.133376
    31  C   -0.080010
    32  C   -0.109850
    33  C   -0.111140
    34  C   -0.101536
    35  C    0.114604
    36  C    0.127827
    37  C   -0.375215
    38  C   -0.353633
    39  C   -0.137475
    40  C   -0.142122
    41  C   -0.073222
    42  C   -0.106159
    43  H    0.107597
    44  H    0.069206
    45  H    0.060052
    46  H    0.103801
    47  H    0.045799
    48  H    0.094596
    49  H    0.105039
    50  H    0.068691
    51  H    0.093801
    52  H    0.119559
    53  H    0.074118
    54  H    0.119962
    55  H    0.102954
    56  H    0.111947
    57  H    0.097929
    58  H    0.064898
    59  H    0.075164
    60  H    0.107960
    61  H    0.108463
    62  H    0.085855
    63  H    0.113831
    64  H    0.110969
    65  H    0.094476
    66  H    0.094440
    67  H    0.123978
    68  H    0.106994
    69  H    0.086736
    70  H    0.101009
    71  H    0.111459
    72  H    0.095040
    73  H    0.316381
    74  H    0.295988
    75  H    0.063167
    76  H    0.081789
    77  H    0.109476
    78  H    0.117632
    79  H    0.140246
    80  H    0.090337
    81  H    0.131307
    82  H    0.106777
    83  H    0.082275
    84  H    0.054874
    85  H    0.079279
    86  H    0.081074
    87  H    0.060205
    88  H    0.076584
    89  H    0.122848
    90  H    0.107063
    91  H    0.120378
    92  H    0.108387
    93  H    0.126459
    94  H    0.113824
    95  H    0.083188
    96  H    0.075510
    97  H    0.083193
    98  H    0.080131
 Sum of Mulliken charges =  -0.00000

 Dipole moment (field-independent basis, Debye):
    X=             -0.5115    Y=             -1.8932    Z=              1.4408  Tot=              2.4334
 Quadrupole moment (field-independent basis, Debye-Ang):
   XX=           -236.7836   YY=           -243.4367   ZZ=           -264.7198
   XY=             15.5146   XZ=              3.0853   YZ=              0.6097

 Normal termination of Gaussian 16 at Mon Jul  8 23:01:48 2019.
