 Gaussian 16, Revision A.03,
 Gaussian 16:  ES64L-G16RevA.03 25-Dec-2016

 -------------------------------------
 # td=(NStates=1) CAM-B3LYP/6-31G(d,p)
 -------------------------------------

 --
 TD
 --
 Symbolic Z-matrix:
 Charge =  0 Multiplicity = 1

                         Standard orientation:
 ---------------------------------------------------------------------
 Center     Atomic      Atomic             Coordinates (Angstroms)
 Number     Number       Type             X           Y           Z
 ---------------------------------------------------------------------
      1          8           0       14.555610   -2.442024   -0.440739
      2          8           0      -14.841445    1.750856    0.540241
      3          6           0       11.389979   -1.170018    1.113393
      4          6           0      -12.262979   -1.008827    0.739921
      5          6           0       12.888350   -1.518100    1.077754
      6          6           0      -13.650568   -0.369430    0.615193
      7          6           0       13.203854   -2.039120   -0.377197
      8          6           0      -13.589287    1.207510    0.618738
      9          6           0       10.976452   -0.410461   -0.045972
     10          6           0      -11.318420   -0.316782   -0.214304
     11          6           0       12.977162   -1.038301   -1.357092
     12          6           0      -12.881563    1.642539   -0.630563
     13          6           0       11.633861   -0.363724   -1.236649
     14          6           0      -11.581061    0.730504   -0.883085
     15          6           0       11.231326   -0.284249    2.388503
     16          6           0       10.642329   -2.384434    1.231417
     17          6           0      -11.785217   -0.793602    2.213193
     18          6           0      -12.440255   -2.475204    0.461931
     19          6           0        9.667835    0.447244    0.069864
     20          6           0      -10.044752   -0.920058   -0.409834
     21          6           0       11.286777    0.428471   -2.480579
     22          6           0      -10.757606    1.435374   -1.883855
     23          6           0        9.383169    1.735266   -0.313348
     24          6           0       -8.843160   -0.446872   -0.185322
     25          6           0        8.143249    2.317196    0.196611
     26          6           0       -7.608148   -1.181752   -0.443902
     27          6           0        8.341248    3.769476    0.636461
     28          6           0       -7.753567   -2.694136   -0.597745
     29          6           0        6.967839    1.625643    0.035778
     30          6           0       -6.424219   -0.549615   -0.299562
     31          6           0        5.584921    1.986856    0.347411
     32          6           0       -5.046271   -1.085684   -0.446820
     33          6           0        4.530679    1.275940    0.035927
     34          6           0       -3.997981   -0.267135   -0.379085
     35          6           0        3.101220    1.732144    0.133292
     36          6           0       -2.611980   -0.701131   -0.387485
     37          6           0        2.859752    3.200922    0.694560
     38          6           0       -2.362718   -2.099489   -0.616473
     39          6           0        2.050232    0.856647   -0.071508
     40          6           0       -1.671877    0.293370   -0.193009
     41          6           0        0.644443    1.042919    0.180483
     42          6           0       -0.211858    0.129639   -0.102164
     43          1           0       13.325837   -0.578826    1.208518
     44          1           0       13.305280   -2.372193    1.744797
     45          1           0      -14.304099   -0.534869    1.502470
     46          1           0      -14.161325   -0.493249   -0.449279
     47          1           0       12.631028   -2.882329   -0.308558
     48          1           0      -12.892710    1.592385    1.378770
     49          1           0       13.746034   -0.298122   -1.433130
     50          1           0       12.807070   -1.425023   -2.554899
     51          1           0      -13.463175    1.585263   -1.588485
     52          1           0      -12.689356    2.720923   -0.668909
     53          1           0       11.972883   -0.893931    2.965643
     54          1           0       10.204004   -0.216981    2.741985
     55          1           0       11.677879    0.765206    2.219972
     56          1           0       10.600324   -3.056777    0.289381
     57          1           0       10.939494   -3.096029    2.240203
     58          1           0        9.587217   -1.956251    1.282038
     59          1           0      -11.735209    0.303936    2.394926
     60          1           0      -10.742132   -1.106909    2.269658
     61          1           0      -12.372535   -1.449030    2.884473
     62          1           0      -13.416238   -3.037620    0.858185
     63          1           0      -11.474370   -3.136163    0.646256
     64          1           0      -12.446205   -2.566370   -0.626692
     65          1           0        8.798127   -0.109395    0.664752
     66          1           0      -10.077504   -1.908294   -0.748966
     67          1           0       10.053065    0.788711   -2.349121
     68          1           0       11.759266    1.434551   -2.429893
     69          1           0       11.493694   -0.250412   -3.536501
     70          1           0      -11.496690    1.499338   -2.839069
     71          1           0       -9.912242    0.824867   -2.160779
     72          1           0      -10.056115    2.434248   -1.693728
     73          1           0       14.848466   -3.231239    0.072599
     74          1           0      -15.251913    1.584454    1.314748
     75          1           0       10.099090    2.657759   -0.650961
     76          1           0       -8.705821    0.530680    0.149725
     77          1           0        8.697959    4.501103   -0.256933
     78          1           0        7.332484    4.222614    0.883195
     79          1           0        8.973171    3.932547    1.601481
     80          1           0       -8.332822   -3.320526    0.117443
     81          1           0       -8.248088   -2.967134   -1.467613
     82          1           0       -6.601934   -3.188716   -0.621645
     83          1           0        7.050219    0.705832   -0.654742
     84          1           0       -6.608197    0.427139    0.154894
     85          1           0        5.552893    2.828579    0.778247
     86          1           0       -4.861168   -2.136318   -0.595973
     87          1           0        4.584532    0.158210   -0.509790
     88          1           0       -4.222829    0.934506   -0.146074
     89          1           0        3.550090    3.350588    1.502035
     90          1           0        1.747265    3.185607    0.871838
     91          1           0        3.303758    3.787058   -0.114732
     92          1           0       -2.800445   -2.709666    0.097087
     93          1           0       -2.841354   -2.579560   -1.510035
     94          1           0       -1.274259   -2.539304   -0.677605
     95          1           0        2.381932   -0.115370   -0.331677
     96          1           0       -2.111934    1.278805   -0.184086
     97          1           0        0.282233    1.974675    0.482133
     98          1           0        0.114895   -0.760850   -0.412856
 ---------------------------------------------------------------------

 SCF Done:  E(RCAM-B3LYP) =  -1706.93991412     A.U. after   14 cycles

 Excitation energies and oscillator strengths:

 Excited State   1:      Singlet-A      3.1445 eV  394.29 nm  f=3.5875  <S**2>=0.000
     155 ->158         0.19581
     156 ->157         0.67126
 This state for optimization and/or second-order correction.
 Total Energy, E(TD-HF/TD-DFT) =  -1706.82435589
 Copying the excited state density for this state as the 1-particle RhoCI density.

 The electronic state is 1-A.
 Alpha  occ. eigenvalues --  -19.21004 -19.19934 -10.29511 -10.28933 -10.28320
 Alpha  occ. eigenvalues --  -10.28316 -10.28004 -10.27831 -10.27786 -10.27673
 Alpha  occ. eigenvalues --  -10.27666 -10.27595 -10.27352 -10.27331 -10.27011
 Alpha  occ. eigenvalues --  -10.26720 -10.26627 -10.26501 -10.26475 -10.26465
 Alpha  occ. eigenvalues --  -10.26356 -10.26240 -10.26236 -10.26221 -10.26192
 Alpha  occ. eigenvalues --  -10.26147 -10.26045 -10.26002 -10.25814 -10.25670
 Alpha  occ. eigenvalues --  -10.25665 -10.25628 -10.25349 -10.25139 -10.24938
 Alpha  occ. eigenvalues --  -10.24845 -10.24821 -10.24722 -10.24530 -10.24492
 Alpha  occ. eigenvalues --  -10.24356 -10.24321  -1.12894  -1.08276  -0.95037
 Alpha  occ. eigenvalues --   -0.94676  -0.92474  -0.91407  -0.90760  -0.89965
 Alpha  occ. eigenvalues --   -0.88094  -0.87730  -0.87008  -0.85472  -0.84409
 Alpha  occ. eigenvalues --   -0.83266  -0.82449  -0.79718  -0.79220  -0.78508
 Alpha  occ. eigenvalues --   -0.76667  -0.76206  -0.76085  -0.75919  -0.75610
 Alpha  occ. eigenvalues --   -0.75284  -0.74645  -0.74479  -0.74237  -0.70349
 Alpha  occ. eigenvalues --   -0.68656  -0.67605  -0.65981  -0.65004  -0.63980
 Alpha  occ. eigenvalues --   -0.63667  -0.63196  -0.62837  -0.60504  -0.60259
 Alpha  occ. eigenvalues --   -0.59814  -0.59700  -0.59304  -0.57926  -0.56824
 Alpha  occ. eigenvalues --   -0.55979  -0.55504  -0.54796  -0.54101  -0.53808
 Alpha  occ. eigenvalues --   -0.52882  -0.52713  -0.52333  -0.51824  -0.51035
 Alpha  occ. eigenvalues --   -0.50559  -0.50041  -0.49960  -0.49226  -0.48954
 Alpha  occ. eigenvalues --   -0.48512  -0.48408  -0.48137  -0.48079  -0.47501
 Alpha  occ. eigenvalues --   -0.47414  -0.47156  -0.47039  -0.46914  -0.46136
 Alpha  occ. eigenvalues --   -0.45494  -0.45448  -0.45327  -0.45079  -0.45025
 Alpha  occ. eigenvalues --   -0.44560  -0.44172  -0.44072  -0.43943  -0.43265
 Alpha  occ. eigenvalues --   -0.43036  -0.42686  -0.42575  -0.42374  -0.41906
 Alpha  occ. eigenvalues --   -0.41643  -0.41237  -0.40786  -0.40706  -0.40611
 Alpha  occ. eigenvalues --   -0.40318  -0.40057  -0.39940  -0.39495  -0.39371
 Alpha  occ. eigenvalues --   -0.39064  -0.38486  -0.38264  -0.38047  -0.37670
 Alpha  occ. eigenvalues --   -0.37316  -0.37143  -0.36588  -0.36548  -0.35527
 Alpha  occ. eigenvalues --   -0.35141  -0.34140  -0.33877  -0.32018  -0.31620
 Alpha  occ. eigenvalues --   -0.30034  -0.29748  -0.28588  -0.27161  -0.24720
 Alpha  occ. eigenvalues --   -0.21898
 Alpha virt. eigenvalues --   -0.03273   0.00116   0.03244   0.05942   0.08118
 Alpha virt. eigenvalues --    0.08836   0.09767   0.11147   0.11650   0.11985
 Alpha virt. eigenvalues --    0.12446   0.12725   0.12953   0.13344   0.13361

 Mulliken charges:
               1
     1  O   -0.591125
     2  O   -0.518903
     3  C   -0.038245
     4  C    0.010258
     5  C   -0.203514
     6  C   -0.181190
     7  C    0.206442
     8  C    0.148176
     9  C    0.070855
    10  C    0.061678
    11  C   -0.186707
    12  C   -0.218224
    13  C    0.053523
    14  C    0.063734
    15  C   -0.289148
    16  C   -0.267098
    17  C   -0.301964
    18  C   -0.315388
    19  C   -0.125652
    20  C   -0.155146
    21  C   -0.345475
    22  C   -0.353281
    23  C   -0.108550
    24  C   -0.064748
    25  C    0.076072
    26  C    0.122757
    27  C   -0.373847
    28  C   -0.373749
    29  C   -0.130846
    30  C   -0.145569
    31  C   -0.042182
    32  C   -0.093140
    33  C   -0.097115
    34  C   -0.103281
    35  C    0.055650
    36  C    0.161113
    37  C   -0.356851
    38  C   -0.415413
    39  C   -0.130612
    40  C   -0.155312
    41  C   -0.051827
    42  C   -0.062130
    43  H    0.102145
    44  H    0.072749
    45  H    0.069558
    46  H    0.096862
    47  H    0.083680
    48  H    0.076679
    49  H    0.132231
    50  H    0.060075
    51  H    0.099900
    52  H    0.108229
    53  H    0.103246
    54  H    0.105262
    55  H    0.100459
    56  H    0.105619
    57  H    0.070751
    58  H    0.086579
    59  H    0.099267
    60  H    0.108764
    61  H    0.103219
    62  H    0.099509
    63  H    0.081935
    64  H    0.109918
    65  H    0.095488
    66  H    0.074324
    67  H    0.090755
    68  H    0.126616
    69  H    0.087068
    70  H    0.090403
    71  H    0.115421
    72  H    0.095611
    73  H    0.303180
    74  H    0.290535
    75  H    0.093581
    76  H    0.073039
    77  H    0.110227
    78  H    0.106777
    79  H    0.120174
    80  H    0.124231
    81  H    0.129520
    82  H    0.072345
    83  H    0.085335
    84  H    0.082361
    85  H    0.053794
    86  H    0.086023
    87  H    0.068702
    88  H    0.074004
    89  H    0.127896
    90  H    0.110149
    91  H    0.128369
    92  H    0.137800
    93  H    0.124255
    94  H    0.105624
    95  H    0.075604
    96  H    0.080361
    97  H    0.078219
    98  H    0.071544
 Sum of Mulliken charges =  -0.00000

 Dipole moment (field-independent basis, Debye):
    X=              0.1674    Y=             -1.0795    Z=              2.1230  Tot=              2.3876
 Quadrupole moment (field-independent basis, Debye-Ang):
   XX=           -277.8330   YY=           -241.4573   ZZ=           -264.7614
   XY=             11.7521   XZ=             -3.9880   YZ=              1.8488

 Normal termination of Gaussian 16 at Fri Jun 28 15:25:41 2019.
