 Gaussian 16, Revision A.03,
 Gaussian 16:  ES64L-G16RevA.03 25-Dec-2016

 -------------------------------------
 # td=(NStates=1) CAM-B3LYP/6-31G(d,p)
 -------------------------------------

 --
 TD
 --
 Symbolic Z-matrix:
 Charge =  0 Multiplicity = 1

                         Standard orientation:
 ---------------------------------------------------------------------
 Center     Atomic      Atomic             Coordinates (Angstroms)
 Number     Number       Type             X           Y           Z
 ---------------------------------------------------------------------
      1          8           0       14.641747   -2.307302   -0.334897
      2          8           0      -14.679067    2.173700    0.706817
      3          6           0       11.341584   -1.147926    1.276898
      4          6           0      -12.440517   -0.847766    0.856889
      5          6           0       12.842333   -1.514262    1.094163
      6          6           0      -13.760478   -0.107813    0.784625
      7          6           0       13.240825   -2.024801   -0.268940
      8          6           0      -13.524779    1.420854    0.840147
      9          6           0       11.040289   -0.370045    0.097969
     10          6           0      -11.351052   -0.361694   -0.128151
     11          6           0       12.978288   -0.938512   -1.294752
     12          6           0      -12.662845    1.781551   -0.358378
     13          6           0       11.635640   -0.321594   -1.137167
     14          6           0      -11.399732    0.879456   -0.746407
     15          6           0       11.237304   -0.162247    2.483645
     16          6           0       10.524195   -2.396584    1.446240
     17          6           0      -11.807874   -0.968100    2.196070
     18          6           0      -12.613205   -2.458200    0.331645
     19          6           0        9.685883    0.281714    0.232461
     20          6           0      -10.075694   -1.116597   -0.429574
     21          6           0       11.203246    0.527141   -2.250073
     22          6           0      -10.623275    1.399189   -1.936991
     23          6           0        9.404075    1.672706    0.011910
     24          6           0       -8.884973   -0.629537   -0.296937
     25          6           0        8.044185    2.291999    0.102480
     26          6           0       -7.624539   -1.409033   -0.431295
     27          6           0        8.057802    3.747397    0.419909
     28          6           0       -7.714090   -2.860529   -0.839897
     29          6           0        7.059683    1.506324   -0.184796
     30          6           0       -6.469069   -0.701214   -0.301084
     31          6           0        5.627018    2.102542   -0.063616
     32          6           0       -5.131371   -1.214141   -0.512303
     33          6           0        4.482520    1.318128   -0.119175
     34          6           0       -4.028649   -0.462097   -0.304761
     35          6           0        3.171285    1.771648    0.043584
     36          6           0       -2.502352   -0.799879   -0.459052
     37          6           0        2.810028    3.099024    0.618884
     38          6           0       -2.294062   -2.144089   -0.923963
     39          6           0        2.109942    0.894743   -0.296990
     40          6           0       -1.584943    0.166668   -0.292552
     41          6           0        0.739292    1.007695   -0.057747
     42          6           0       -0.145888    0.045639   -0.360229
     43          1           0       13.199851   -0.657581    1.161332
     44          1           0       13.340406   -2.134540    1.943305
     45          1           0      -14.477858   -0.515900    1.512713
     46          1           0      -14.258113   -0.425859   -0.062614
     47          1           0       12.809357   -3.101391   -0.651347
     48          1           0      -12.927931    1.716930    1.653118
     49          1           0       13.717049   -0.022457   -1.339126
     50          1           0       13.020383   -1.315456   -2.213875
     51          1           0      -13.400368    1.625530   -1.138078
     52          1           0      -12.279786    2.801662   -0.386935
     53          1           0       11.679770   -0.566152    3.377347
     54          1           0       10.184597    0.155481    2.830181
     55          1           0       11.695019    0.769754    2.390617
     56          1           0       10.622094   -3.056434    0.484758
     57          1           0       10.825372   -3.000766    2.220851
     58          1           0        9.434229   -2.073173    1.455490
     59          1           0      -11.538880    0.108571    2.270335
     60          1           0      -10.947995   -1.588794    2.254489
     61          1           0      -12.519732   -1.324659    3.034665
     62          1           0      -13.421795   -2.851454    0.984587
     63          1           0      -11.733301   -2.926820    0.449999
     64          1           0      -13.095850   -2.472333   -0.611601
     65          1           0        8.806529   -0.307730    0.621194
     66          1           0      -10.309865   -2.117150   -0.719596
     67          1           0       10.261734    0.827927   -2.199713
     68          1           0       12.016137    1.233896   -2.405285
     69          1           0       11.120762    0.008494   -3.225358
     70          1           0      -11.257956    2.001644   -2.736959
     71          1           0      -10.066866    0.628102   -2.337697
     72          1           0       -9.951810    1.980310   -1.355876
     73          1           0       14.858527   -2.993449    0.344346
     74          1           0      -15.213179    1.772641    1.483787
     75          1           0       10.199681    2.295321   -0.615681
     76          1           0       -8.599677    0.295782    0.200377
     77          1           0        8.789607    4.318507   -0.290926
     78          1           0        7.005959    4.274925    0.257884
     79          1           0        8.377231    3.914424    1.342561
     80          1           0       -8.380084   -3.514548   -0.179235
     81          1           0       -7.995943   -2.914765   -1.935163
     82          1           0       -6.763971   -3.323102   -0.715482
     83          1           0        7.116842    0.677103   -0.751797
     84          1           0       -6.630263    0.285889   -0.013828
     85          1           0        5.469337    3.188254    0.048028
     86          1           0       -5.071945   -2.190732   -0.955765
     87          1           0        4.690693    0.200984   -0.142644
     88          1           0       -3.924327    0.722451   -0.066442
     89          1           0        3.155164    3.385965    1.608319
     90          1           0        1.613642    3.222418    0.669393
     91          1           0        3.106777    3.802108    0.083310
     92          1           0       -2.689632   -2.915800   -0.271490
     93          1           0       -2.711984   -2.179067   -1.961551
     94          1           0       -1.175983   -2.246170   -1.008246
     95          1           0        2.439323   -0.055300   -0.926167
     96          1           0       -2.033039    1.152312   -0.003871
     97          1           0        0.185661    1.850277    0.634150
     98          1           0        0.358786   -1.103808   -0.126282
 ---------------------------------------------------------------------

 SCF Done:  E(RCAM-B3LYP) =  -1706.94755625     A.U. after   14 cycles

 Excitation energies and oscillator strengths:

 Excited State   1:      Singlet-A      2.7818 eV  445.70 nm  f=3.0739  <S**2>=0.000
     155 ->158         0.13355
     156 ->157         0.68658
 This state for optimization and/or second-order correction.
 Total Energy, E(TD-HF/TD-DFT) =  -1706.84532730
 Copying the excited state density for this state as the 1-particle RhoCI density.

 The electronic state is 1-A.
 Alpha  occ. eigenvalues --  -19.22121 -19.20737 -10.31660 -10.29727 -10.27732
 Alpha  occ. eigenvalues --  -10.27662 -10.27435 -10.27388 -10.27358 -10.27260
 Alpha  occ. eigenvalues --  -10.27166 -10.27084 -10.26929 -10.26890 -10.26882
 Alpha  occ. eigenvalues --  -10.26740 -10.26737 -10.26726 -10.26464 -10.26385
 Alpha  occ. eigenvalues --  -10.26199 -10.26169 -10.26034 -10.25910 -10.25797
 Alpha  occ. eigenvalues --  -10.25274 -10.25240 -10.25204 -10.25164 -10.25157
 Alpha  occ. eigenvalues --  -10.24968 -10.24950 -10.24865 -10.24820 -10.24557
 Alpha  occ. eigenvalues --  -10.24377 -10.24370 -10.24288 -10.24028 -10.24004
 Alpha  occ. eigenvalues --  -10.23987 -10.23795  -1.10515  -1.08569  -0.94997
 Alpha  occ. eigenvalues --   -0.92661  -0.91719  -0.91233  -0.90618  -0.89837
 Alpha  occ. eigenvalues --   -0.88378  -0.86934  -0.86045  -0.84912  -0.84623
 Alpha  occ. eigenvalues --   -0.82686  -0.81618  -0.79985  -0.79918  -0.78346
 Alpha  occ. eigenvalues --   -0.77586  -0.77452  -0.76722  -0.76583  -0.76389
 Alpha  occ. eigenvalues --   -0.75930  -0.75854  -0.74562  -0.73874  -0.69972
 Alpha  occ. eigenvalues --   -0.68368  -0.67209  -0.65724  -0.65654  -0.64394
 Alpha  occ. eigenvalues --   -0.62774  -0.62554  -0.60565  -0.59644  -0.59253
 Alpha  occ. eigenvalues --   -0.58750  -0.58685  -0.57565  -0.57175  -0.55683
 Alpha  occ. eigenvalues --   -0.55277  -0.55119  -0.54602  -0.54562  -0.53770
 Alpha  occ. eigenvalues --   -0.53247  -0.52785  -0.52109  -0.51703  -0.51273
 Alpha  occ. eigenvalues --   -0.50681  -0.50409  -0.49850  -0.49664  -0.49532
 Alpha  occ. eigenvalues --   -0.49395  -0.49280  -0.49012  -0.48785  -0.48724
 Alpha  occ. eigenvalues --   -0.48510  -0.48170  -0.47858  -0.47317  -0.47057
 Alpha  occ. eigenvalues --   -0.46476  -0.46145  -0.45905  -0.45595  -0.45142
 Alpha  occ. eigenvalues --   -0.44565  -0.44290  -0.44155  -0.44020  -0.43238
 Alpha  occ. eigenvalues --   -0.42897  -0.42859  -0.42838  -0.42564  -0.42454
 Alpha  occ. eigenvalues --   -0.42283  -0.42156  -0.41960  -0.41460  -0.41273
 Alpha  occ. eigenvalues --   -0.40884  -0.40491  -0.40287  -0.40195  -0.39277
 Alpha  occ. eigenvalues --   -0.38942  -0.38927  -0.38428  -0.37206  -0.36727
 Alpha  occ. eigenvalues --   -0.36480  -0.36470  -0.36038  -0.35255  -0.35158
 Alpha  occ. eigenvalues --   -0.34798  -0.34294  -0.33342  -0.31994  -0.31833
 Alpha  occ. eigenvalues --   -0.31400  -0.29302  -0.27305  -0.25958  -0.24261
 Alpha  occ. eigenvalues --   -0.20785
 Alpha virt. eigenvalues --   -0.03936   0.00533   0.02460   0.06282   0.07557
 Alpha virt. eigenvalues --    0.08477   0.09522   0.10502   0.11630   0.11806
 Alpha virt. eigenvalues --    0.12284   0.12905   0.13364   0.13585   0.13799

 Mulliken charges:
               1
     1  O   -0.569583
     2  O   -0.542992
     3  C   -0.018706
     4  C   -0.029928
     5  C   -0.174608
     6  C   -0.204643
     7  C    0.174769
     8  C    0.161628
     9  C    0.058299
    10  C    0.044204
    11  C   -0.203488
    12  C   -0.226253
    13  C    0.054378
    14  C    0.008240
    15  C   -0.320468
    16  C   -0.285664
    17  C   -0.272267
    18  C   -0.327846
    19  C   -0.144182
    20  C   -0.162341
    21  C   -0.354267
    22  C   -0.334591
    23  C   -0.136942
    24  C   -0.070982
    25  C    0.113994
    26  C    0.095081
    27  C   -0.354573
    28  C   -0.371890
    29  C   -0.120191
    30  C   -0.104958
    31  C   -0.118698
    32  C   -0.115283
    33  C   -0.122299
    34  C   -0.096800
    35  C    0.115553
    36  C    0.116598
    37  C   -0.364685
    38  C   -0.374201
    39  C   -0.142941
    40  C   -0.133487
    41  C   -0.071106
    42  C   -0.109276
    43  H    0.116839
    44  H    0.059441
    45  H    0.078776
    46  H    0.113695
    47  H    0.058761
    48  H    0.086330
    49  H    0.107687
    50  H    0.114731
    51  H    0.115435
    52  H    0.097304
    53  H    0.096185
    54  H    0.101645
    55  H    0.119655
    56  H    0.091204
    57  H    0.114739
    58  H    0.094255
    59  H    0.096779
    60  H    0.113896
    61  H    0.080601
    62  H    0.087397
    63  H    0.112778
    64  H    0.108568
    65  H    0.094969
    66  H    0.090794
    67  H    0.128067
    68  H    0.116237
    69  H    0.100779
    70  H    0.104012
    71  H    0.126685
    72  H    0.127897
    73  H    0.301541
    74  H    0.307050
    75  H    0.080366
    76  H    0.086224
    77  H    0.109133
    78  H    0.096146
    79  H    0.142612
    80  H    0.109056
    81  H    0.122946
    82  H    0.110685
    83  H    0.104429
    84  H    0.075735
    85  H    0.077996
    86  H    0.095078
    87  H    0.083858
    88  H    0.062260
    89  H    0.117347
    90  H    0.090391
    91  H    0.133434
    92  H    0.122406
    93  H    0.124619
    94  H    0.099582
    95  H    0.080288
    96  H    0.076405
    97  H    0.090154
    98  H    0.081513
 Sum of Mulliken charges =  -0.00000

 Dipole moment (field-independent basis, Debye):
    X=              1.3113    Y=             -1.4128    Z=              1.7322  Tot=              2.5915
 Quadrupole moment (field-independent basis, Debye-Ang):
   XX=           -258.7947   YY=           -246.0759   ZZ=           -258.5206
   XY=             19.4645   XZ=             -2.9193   YZ=              0.9072

 Normal termination of Gaussian 16 at Wed Jul  3 04:35:39 2019.
