 Gaussian 16, Revision A.03,
 Gaussian 16:  ES64L-G16RevA.03 25-Dec-2016

 -------------------------------------
 # td=(NStates=1) CAM-B3LYP/6-31G(d,p)
 -------------------------------------

 --
 TD
 --
 Symbolic Z-matrix:
 Charge =  0 Multiplicity = 1

                         Standard orientation:
 ---------------------------------------------------------------------
 Center     Atomic      Atomic             Coordinates (Angstroms)
 Number     Number       Type             X           Y           Z
 ---------------------------------------------------------------------
      1          8           0       14.732840   -2.133927   -0.425107
      2          8           0      -14.708214    2.145575    0.734767
      3          6           0       11.495402   -1.145218    1.204174
      4          6           0      -12.374260   -0.954268    0.803415
      5          6           0       12.939160   -1.507061    1.046092
      6          6           0      -13.705460   -0.149165    0.782802
      7          6           0       13.395338   -1.808275   -0.268789
      8          6           0      -13.444455    1.399147    0.749432
      9          6           0       10.912551   -0.269692   -0.074988
     10          6           0      -11.392731   -0.338657   -0.193363
     11          6           0       13.112554   -0.556172   -1.269775
     12          6           0      -12.653989    1.760935   -0.557444
     13          6           0       11.722998   -0.127124   -1.139596
     14          6           0      -11.497960    0.912218   -0.770266
     15          6           0       11.246165   -0.518377    2.569892
     16          6           0       10.639116   -2.497070    1.274985
     17          6           0      -11.865727   -0.912534    2.220721
     18          6           0      -12.693693   -2.458882    0.435004
     19          6           0        9.576973    0.402802    0.142685
     20          6           0      -10.014913   -1.022237   -0.409377
     21          6           0       11.137355    0.547630   -2.414182
     22          6           0      -10.609215    1.592897   -1.867093
     23          6           0        9.288558    1.652946   -0.164932
     24          6           0       -8.799408   -0.533673   -0.248483
     25          6           0        8.003584    2.338092    0.150480
     26          6           0       -7.586950   -1.260681   -0.473421
     27          6           0        8.080316    3.715688    0.572750
     28          6           0       -7.755466   -2.719135   -0.791237
     29          6           0        6.913998    1.597447   -0.008853
     30          6           0       -6.419697   -0.600857   -0.250673
     31          6           0        5.535962    2.051157    0.174566
     32          6           0       -5.084121   -1.176872   -0.493936
     33          6           0        4.359568    1.251483    0.036013
     34          6           0       -3.987945   -0.509642   -0.405501
     35          6           0        3.042858    1.594499    0.173733
     36          6           0       -2.598626   -0.883097   -0.637009
     37          6           0        2.844306    2.976225    0.578928
     38          6           0       -2.439169   -2.232684   -1.166042
     39          6           0        2.107639    0.700359    0.021566
     40          6           0       -1.680787   -0.021849   -0.350375
     41          6           0        0.632834    0.805041    0.038591
     42          6           0       -0.216294   -0.164555   -0.292244
     43          1           0       13.556342   -0.645742    1.279376
     44          1           0       13.308442   -2.192133    1.925596
     45          1           0      -14.226077   -0.353629    1.784476
     46          1           0      -14.266445   -0.344413   -0.091695
     47          1           0       12.933517   -2.675659   -0.657433
     48          1           0      -12.792488    1.800707    1.705538
     49          1           0       13.880228    0.304196   -1.040187
     50          1           0       13.093084   -0.906859   -2.412174
     51          1           0      -13.271817    1.638503   -1.490357
     52          1           0      -12.464086    2.717163   -0.372603
     53          1           0       11.773094   -1.353043    3.153304
     54          1           0       10.179603   -0.231564    2.876572
     55          1           0       11.948638    0.360194    2.932444
     56          1           0       10.602194   -3.010838    0.313881
     57          1           0       11.086278   -3.019243    2.069681
     58          1           0        9.569256   -2.435419    1.533813
     59          1           0      -11.758710    0.136489    2.590274
     60          1           0      -10.877146   -1.453050    2.438109
     61          1           0      -12.592685   -1.370335    2.864289
     62          1           0      -13.531789   -2.823427    0.922644
     63          1           0      -11.837744   -3.252761    0.664879
     64          1           0      -12.827500   -2.496831   -0.651253
     65          1           0        8.923144   -0.272937    0.777701
     66          1           0      -10.068067   -2.056760   -0.539666
     67          1           0       10.192485    0.724115   -2.586781
     68          1           0       11.838488    1.460571   -2.361118
     69          1           0       11.540472   -0.119918   -3.244302
     70          1           0      -10.973132    2.174023   -2.659598
     71          1           0      -10.179055    0.740017   -2.154895
     72          1           0       -9.882903    2.254563   -1.322834
     73          1           0       15.091603   -2.933411    0.000760
     74          1           0      -14.990601    1.804414    1.603030
     75          1           0       10.205177    2.197188   -0.643383
     76          1           0       -8.884328    0.608853   -0.140780
     77          1           0        8.523107    4.353335   -0.165325
     78          1           0        7.112420    4.113782    0.893278
     79          1           0        8.787819    3.809334    1.467999
     80          1           0       -8.139877   -3.347208   -0.000328
     81          1           0       -8.508850   -2.815755   -1.635661
     82          1           0       -6.906160   -3.369218   -1.196259
     83          1           0        6.945963    0.592012   -0.168458
     84          1           0       -6.239891    0.475039   -0.037306
     85          1           0        5.376814    2.966718    0.664001
     86          1           0       -5.046865   -2.273021   -0.625699
     87          1           0        4.477146    0.389962   -0.400568
     88          1           0       -3.999545    0.697750   -0.152867
     89          1           0        3.322130    3.358451    1.426801
     90          1           0        1.772526    3.235239    0.776321
     91          1           0        3.066847    3.478530   -0.295604
     92          1           0       -3.002302   -2.975053   -0.588849
     93          1           0       -2.832884   -2.197906   -2.194354
     94          1           0       -1.209504   -2.550069   -1.254711
     95          1           0        2.441082   -0.278598   -0.211343
     96          1           0       -1.939076    0.977784    0.133996
     97          1           0        0.286099    1.713409    0.224644
     98          1           0        0.220323   -1.005441   -0.573805
 ---------------------------------------------------------------------

 SCF Done:  E(RCAM-B3LYP) =  -1707.01918066     A.U. after   14 cycles

 Excitation energies and oscillator strengths:

 Excited State   1:      Singlet-A      3.1414 eV  394.68 nm  f=3.5649  <S**2>=0.000
     155 ->158        -0.18617
     156 ->157         0.67176
 This state for optimization and/or second-order correction.
 Total Energy, E(TD-HF/TD-DFT) =  -1706.90373711
 Copying the excited state density for this state as the 1-particle RhoCI density.

 The electronic state is 1-A.
 Alpha  occ. eigenvalues --  -19.21350 -19.20362 -10.31662 -10.30087 -10.28194
 Alpha  occ. eigenvalues --  -10.28114 -10.27594 -10.27234 -10.27055 -10.26830
 Alpha  occ. eigenvalues --  -10.26721 -10.26601 -10.26555 -10.26525 -10.26409
 Alpha  occ. eigenvalues --  -10.26334 -10.26318 -10.26098 -10.26092 -10.26026
 Alpha  occ. eigenvalues --  -10.25975 -10.25894 -10.25844 -10.25710 -10.25609
 Alpha  occ. eigenvalues --  -10.25483 -10.25441 -10.25388 -10.25376 -10.25181
 Alpha  occ. eigenvalues --  -10.25108 -10.25074 -10.24998 -10.24734 -10.24726
 Alpha  occ. eigenvalues --  -10.24685 -10.24519 -10.24347 -10.24175 -10.23947
 Alpha  occ. eigenvalues --  -10.23775 -10.23773  -1.09623  -1.08508  -0.93377
 Alpha  occ. eigenvalues --   -0.93190  -0.92851  -0.92560  -0.91242  -0.90829
 Alpha  occ. eigenvalues --   -0.87842  -0.87432  -0.87266  -0.85292  -0.84691
 Alpha  occ. eigenvalues --   -0.82714  -0.82118  -0.80871  -0.79653  -0.78885
 Alpha  occ. eigenvalues --   -0.77444  -0.76608  -0.76234  -0.76018  -0.75875
 Alpha  occ. eigenvalues --   -0.75604  -0.75337  -0.74887  -0.74299  -0.70642
 Alpha  occ. eigenvalues --   -0.68793  -0.67550  -0.65813  -0.64652  -0.64426
 Alpha  occ. eigenvalues --   -0.63656  -0.62615  -0.62328  -0.60941  -0.60105
 Alpha  occ. eigenvalues --   -0.59753  -0.59114  -0.58348  -0.57276  -0.56678
 Alpha  occ. eigenvalues --   -0.56401  -0.55216  -0.54960  -0.54562  -0.53571
 Alpha  occ. eigenvalues --   -0.53136  -0.52447  -0.52332  -0.51738  -0.51344
 Alpha  occ. eigenvalues --   -0.50689  -0.50326  -0.50217  -0.49857  -0.49563
 Alpha  occ. eigenvalues --   -0.49492  -0.49003  -0.48723  -0.48663  -0.48514
 Alpha  occ. eigenvalues --   -0.48330  -0.48256  -0.48085  -0.47671  -0.46777
 Alpha  occ. eigenvalues --   -0.46156  -0.45948  -0.45335  -0.45148  -0.45004
 Alpha  occ. eigenvalues --   -0.44663  -0.44329  -0.43740  -0.43429  -0.43165
 Alpha  occ. eigenvalues --   -0.42763  -0.42656  -0.42540  -0.42514  -0.42117
 Alpha  occ. eigenvalues --   -0.42039  -0.41544  -0.41233  -0.41087  -0.40904
 Alpha  occ. eigenvalues --   -0.40683  -0.40399  -0.39987  -0.39535  -0.39499
 Alpha  occ. eigenvalues --   -0.39280  -0.38852  -0.38734  -0.38169  -0.37962
 Alpha  occ. eigenvalues --   -0.37631  -0.37205  -0.36394  -0.36275  -0.35823
 Alpha  occ. eigenvalues --   -0.34934  -0.33964  -0.33125  -0.32537  -0.32032
 Alpha  occ. eigenvalues --   -0.31979  -0.29994  -0.28074  -0.26376  -0.24283
 Alpha  occ. eigenvalues --   -0.21684
 Alpha virt. eigenvalues --   -0.03200   0.00251   0.03778   0.06137   0.07949
 Alpha virt. eigenvalues --    0.10593   0.11759   0.11938   0.12303   0.12661
 Alpha virt. eigenvalues --    0.12792   0.13169   0.13377   0.13723   0.13882

 Mulliken charges:
               1
     1  O   -0.580519
     2  O   -0.547488
     3  C   -0.014671
     4  C    0.001834
     5  C   -0.189671
     6  C   -0.186602
     7  C    0.206343
     8  C    0.115034
     9  C    0.053834
    10  C    0.049152
    11  C   -0.224734
    12  C   -0.198089
    13  C    0.012279
    14  C    0.007338
    15  C   -0.281894
    16  C   -0.303115
    17  C   -0.294245
    18  C   -0.310807
    19  C   -0.094353
    20  C   -0.162765
    21  C   -0.325945
    22  C   -0.350698
    23  C   -0.125501
    24  C   -0.057736
    25  C    0.097212
    26  C    0.111553
    27  C   -0.375656
    28  C   -0.391017
    29  C   -0.086629
    30  C   -0.122174
    31  C   -0.109357
    32  C   -0.094469
    33  C   -0.121962
    34  C   -0.103213
    35  C    0.175760
    36  C    0.179539
    37  C   -0.387157
    38  C   -0.372366
    39  C   -0.166790
    40  C   -0.165801
    41  C   -0.058938
    42  C   -0.056394
    43  H    0.105920
    44  H    0.072564
    45  H    0.071191
    46  H    0.116768
    47  H    0.075035
    48  H    0.061016
    49  H    0.115459
    50  H    0.094342
    51  H    0.115988
    52  H    0.119147
    53  H    0.081794
    54  H    0.106462
    55  H    0.083323
    56  H    0.105450
    57  H    0.101042
    58  H    0.098311
    59  H    0.096009
    60  H    0.100882
    61  H    0.099818
    62  H    0.113066
    63  H    0.085632
    64  H    0.107659
    65  H    0.081451
    66  H    0.065438
    67  H    0.126186
    68  H    0.101867
    69  H    0.087564
    70  H    0.118118
    71  H    0.134309
    72  H    0.111345
    73  H    0.305227
    74  H    0.304806
    75  H    0.090616
    76  H    0.077498
    77  H    0.128484
    78  H    0.114534
    79  H    0.117021
    80  H    0.134006
    81  H    0.119655
    82  H    0.105834
    83  H    0.082446
    84  H    0.087915
    85  H    0.071967
    86  H    0.075797
    87  H    0.060671
    88  H    0.057929
    89  H    0.129750
    90  H    0.092232
    91  H    0.136615
    92  H    0.126450
    93  H    0.133484
    94  H    0.078363
    95  H    0.068268
    96  H    0.077228
    97  H    0.060681
    98  H    0.060244
 Sum of Mulliken charges =  -0.00000

 Dipole moment (field-independent basis, Debye):
    X=              0.6128    Y=             -1.8740    Z=              1.5413  Tot=              2.5026
 Quadrupole moment (field-independent basis, Debye-Ang):
   XX=           -273.8320   YY=           -242.5626   ZZ=           -259.2159
   XY=             12.8503   XZ=              1.4043   YZ=              1.8589

 Normal termination of Gaussian 16 at Fri Jun 28 03:08:16 2019.
