 Gaussian 16, Revision A.03,
 Gaussian 16:  ES64L-G16RevA.03 25-Dec-2016

 -------------------------------------
 # td=(NStates=1) CAM-B3LYP/6-31G(d,p)
 -------------------------------------

 --
 TD
 --
 Symbolic Z-matrix:
 Charge =  0 Multiplicity = 1

                         Standard orientation:
 ---------------------------------------------------------------------
 Center     Atomic      Atomic             Coordinates (Angstroms)
 Number     Number       Type             X           Y           Z
 ---------------------------------------------------------------------
      1          8           0       14.648505   -2.187501   -0.699046
      2          8           0      -14.876843    1.800134    0.704124
      3          6           0       11.474951   -1.177155    1.212736
      4          6           0      -12.273197   -0.924278    0.836102
      5          6           0       13.018051   -1.598037    0.895302
      6          6           0      -13.642757   -0.345660    0.756093
      7          6           0       13.290648   -1.827679   -0.536529
      8          6           0      -13.612185    1.272825    0.744880
      9          6           0       11.013777   -0.254375    0.107562
     10          6           0      -11.294988   -0.251301   -0.245807
     11          6           0       12.888457   -0.740104   -1.425806
     12          6           0      -12.795236    1.641695   -0.547978
     13          6           0       11.650613   -0.129709   -1.064436
     14          6           0      -11.668728    0.960674   -0.809477
     15          6           0       11.293767   -0.586597    2.628336
     16          6           0       10.687098   -2.551744    1.150855
     17          6           0      -11.752460   -0.845188    2.249997
     18          6           0      -12.474825   -2.394019    0.382476
     19          6           0        9.654283    0.331965    0.426551
     20          6           0      -10.004435   -0.999670   -0.466829
     21          6           0       10.989705    0.618698   -2.229285
     22          6           0      -10.782295    1.622181   -1.865395
     23          6           0        9.278769    1.623914   -0.016590
     24          6           0       -8.793260   -0.506130   -0.342925
     25          6           0        8.072366    2.307569    0.246535
     26          6           0       -7.508257   -1.252010   -0.464411
     27          6           0        8.198382    3.700598    0.610759
     28          6           0       -7.617723   -2.709454   -0.817437
     29          6           0        6.929020    1.628534    0.069817
     30          6           0       -6.344947   -0.708038   -0.190273
     31          6           0        5.582285    2.131912    0.317595
     32          6           0       -5.051896   -1.216917   -0.289918
     33          6           0        4.558133    1.295811    0.022449
     34          6           0       -3.951728   -0.392468   -0.231214
     35          6           0        3.127767    1.795244    0.080796
     36          6           0       -2.578286   -0.798785   -0.354268
     37          6           0        2.762596    3.059195    0.447850
     38          6           0       -2.500254   -2.246301   -0.819867
     39          6           0        2.107048    0.803392   -0.215322
     40          6           0       -1.659580    0.220284   -0.392623
     41          6           0        0.703531    0.984136   -0.168528
     42          6           0       -0.212689   -0.001176   -0.344807
     43          1           0       13.633603   -0.801741    1.314119
     44          1           0       13.245446   -2.599571    1.441094
     45          1           0      -14.496664   -0.755339    1.508280
     46          1           0      -14.183991   -0.627095   -0.314046
     47          1           0       12.605881   -2.833731   -0.825485
     48          1           0      -12.917116    1.560480    1.661518
     49          1           0       13.682156   -0.073222   -1.447998
     50          1           0       12.986999   -1.272380   -2.484970
     51          1           0      -13.490182    1.915823   -1.400344
     52          1           0      -12.599949    2.713193   -0.521083
     53          1           0       11.883242   -1.299918    3.255768
     54          1           0       10.281441   -0.512301    2.932034
     55          1           0       11.800609    0.314028    2.880090
     56          1           0       10.852054   -2.844116   -0.007626
     57          1           0       11.006982   -3.273012    1.903642
     58          1           0        9.607362   -2.434487    1.418096
     59          1           0      -11.998200    0.227238    2.510848
     60          1           0      -10.777227   -1.134635    2.295083
     61          1           0      -12.197573   -1.416206    2.918771
     62          1           0      -13.389981   -2.756593    0.781870
     63          1           0      -11.651791   -3.130675    0.856677
     64          1           0      -12.677813   -2.643648   -0.590643
     65          1           0        8.977335   -0.196278    1.134380
     66          1           0      -10.199358   -2.060877   -0.870863
     67          1           0        9.949937    0.818050   -1.844453
     68          1           0       11.373118    1.611615   -2.420359
     69          1           0       11.100840    0.113613   -3.141031
     70          1           0      -11.357493    2.105852   -2.591200
     71          1           0      -10.270605    0.857878   -2.510951
     72          1           0       -9.978033    2.368049   -1.278933
     73          1           0       14.745758   -2.912921   -0.167141
     74          1           0      -15.414163    1.610325    1.490107
     75          1           0       10.115533    2.259409   -0.447278
     76          1           0       -8.583684    0.634964   -0.392062
     77          1           0        9.007107    4.227696   -0.059467
     78          1           0        7.191039    4.166272    0.731950
     79          1           0        8.581763    4.011328    1.668349
     80          1           0       -8.142284   -3.441940   -0.223405
     81          1           0       -8.331182   -2.857458   -1.604149
     82          1           0       -6.624584   -3.160314   -1.195200
     83          1           0        7.050052    0.713383   -0.168563
     84          1           0       -6.521299    0.396204    0.055665
     85          1           0        5.257829    3.049261    0.654576
     86          1           0       -4.637495   -2.254748   -0.679141
     87          1           0        4.668987    0.400632   -0.487981
     88          1           0       -4.062829    0.600312    0.221358
     89          1           0        3.086961    3.255761    1.647269
     90          1           0        1.716446    3.392002    0.368387
     91          1           0        3.460266    3.899390   -0.179141
     92          1           0       -2.772391   -3.113999   -0.081552
     93          1           0       -3.031601   -2.309933   -1.642708
     94          1           0       -1.369353   -2.697071   -0.889834
     95          1           0        2.580068   -0.232107   -0.421830
     96          1           0       -2.024138    1.335243   -0.326643
     97          1           0        0.369549    1.897329    0.205469
     98          1           0        0.140183   -0.961067   -0.761748
 ---------------------------------------------------------------------

 SCF Done:  E(RCAM-B3LYP) =  -1706.95499529     A.U. after   14 cycles

 Excitation energies and oscillator strengths:

 Excited State   1:      Singlet-A      2.6694 eV  464.46 nm  f=3.5125  <S**2>=0.000
     155 ->158         0.16741
     156 ->157         0.68182
 This state for optimization and/or second-order correction.
 Total Energy, E(TD-HF/TD-DFT) =  -1706.85689556
 Copying the excited state density for this state as the 1-particle RhoCI density.

 The electronic state is 1-A.
 Alpha  occ. eigenvalues --  -19.22103 -19.20754 -10.31865 -10.30798 -10.28159
 Alpha  occ. eigenvalues --  -10.27826 -10.27783 -10.27761 -10.27647 -10.27270
 Alpha  occ. eigenvalues --  -10.27189 -10.27084 -10.27022 -10.26835 -10.26584
 Alpha  occ. eigenvalues --  -10.26567 -10.26560 -10.26559 -10.26432 -10.26413
 Alpha  occ. eigenvalues --  -10.26323 -10.26188 -10.26103 -10.26049 -10.26046
 Alpha  occ. eigenvalues --  -10.25963 -10.25939 -10.25865 -10.25830 -10.25810
 Alpha  occ. eigenvalues --  -10.25809 -10.25577 -10.25570 -10.25546 -10.24762
 Alpha  occ. eigenvalues --  -10.24728 -10.24683 -10.24562 -10.24153 -10.23847
 Alpha  occ. eigenvalues --  -10.23455 -10.22395  -1.11407  -1.10999  -0.93871
 Alpha  occ. eigenvalues --   -0.93264  -0.92533  -0.92105  -0.91081  -0.90185
 Alpha  occ. eigenvalues --   -0.88195  -0.87441  -0.87053  -0.85436  -0.84794
 Alpha  occ. eigenvalues --   -0.83515  -0.81490  -0.79609  -0.79238  -0.78580
 Alpha  occ. eigenvalues --   -0.77326  -0.76835  -0.76404  -0.76387  -0.75812
 Alpha  occ. eigenvalues --   -0.75149  -0.74964  -0.74475  -0.73829  -0.70574
 Alpha  occ. eigenvalues --   -0.69030  -0.67988  -0.65883  -0.64833  -0.64377
 Alpha  occ. eigenvalues --   -0.63883  -0.62853  -0.61476  -0.61000  -0.59380
 Alpha  occ. eigenvalues --   -0.59258  -0.58870  -0.58627  -0.57734  -0.56079
 Alpha  occ. eigenvalues --   -0.55641  -0.55495  -0.55006  -0.54325  -0.54082
 Alpha  occ. eigenvalues --   -0.53585  -0.53133  -0.52308  -0.51947  -0.51674
 Alpha  occ. eigenvalues --   -0.50673  -0.50486  -0.50267  -0.49853  -0.49372
 Alpha  occ. eigenvalues --   -0.48809  -0.48617  -0.48456  -0.48284  -0.47908
 Alpha  occ. eigenvalues --   -0.47475  -0.47238  -0.46904  -0.46762  -0.46183
 Alpha  occ. eigenvalues --   -0.45966  -0.45774  -0.45657  -0.44862  -0.44737
 Alpha  occ. eigenvalues --   -0.44590  -0.44539  -0.44211  -0.43955  -0.43535
 Alpha  occ. eigenvalues --   -0.43264  -0.43137  -0.42755  -0.42511  -0.41905
 Alpha  occ. eigenvalues --   -0.41800  -0.41534  -0.41296  -0.41129  -0.40709
 Alpha  occ. eigenvalues --   -0.40563  -0.40166  -0.39986  -0.39620  -0.39322
 Alpha  occ. eigenvalues --   -0.38919  -0.38749  -0.38521  -0.38093  -0.37965
 Alpha  occ. eigenvalues --   -0.37699  -0.37466  -0.36233  -0.35900  -0.35144
 Alpha  occ. eigenvalues --   -0.34814  -0.33934  -0.32833  -0.31938  -0.31674
 Alpha  occ. eigenvalues --   -0.30562  -0.29581  -0.27466  -0.26005  -0.23988
 Alpha  occ. eigenvalues --   -0.20714
 Alpha virt. eigenvalues --   -0.04513  -0.00345   0.02530   0.05587   0.07401
 Alpha virt. eigenvalues --    0.08808   0.10630   0.10946   0.11445   0.12234
 Alpha virt. eigenvalues --    0.12319   0.12696   0.12934   0.13341   0.13800

 Mulliken charges:
               1
     1  O   -0.541527
     2  O   -0.553950
     3  C   -0.047135
     4  C    0.015037
     5  C   -0.191403
     6  C   -0.201721
     7  C    0.167184
     8  C    0.189546
     9  C    0.093612
    10  C    0.002555
    11  C   -0.219688
    12  C   -0.271725
    13  C    0.059576
    14  C    0.130694
    15  C   -0.307755
    16  C   -0.288324
    17  C   -0.280929
    18  C   -0.317311
    19  C   -0.123891
    20  C   -0.146137
    21  C   -0.371312
    22  C   -0.355809
    23  C   -0.160721
    24  C   -0.080350
    25  C    0.125930
    26  C    0.135937
    27  C   -0.381555
    28  C   -0.387161
    29  C   -0.079726
    30  C   -0.132735
    31  C   -0.080261
    32  C   -0.084400
    33  C   -0.095688
    34  C   -0.123585
    35  C    0.145674
    36  C    0.132102
    37  C   -0.395232
    38  C   -0.394207
    39  C   -0.137409
    40  C   -0.139303
    41  C   -0.069342
    42  C   -0.087460
    43  H    0.103402
    44  H    0.065823
    45  H    0.059901
    46  H    0.074605
    47  H    0.036014
    48  H    0.062762
    49  H    0.132788
    50  H    0.104118
    51  H    0.120769
    52  H    0.115039
    53  H    0.091239
    54  H    0.108078
    55  H    0.109996
    56  H    0.094517
    57  H    0.104418
    58  H    0.090671
    59  H    0.083367
    60  H    0.114619
    61  H    0.108541
    62  H    0.099005
    63  H    0.070464
    64  H    0.113394
    65  H    0.098860
    66  H    0.099005
    67  H    0.122647
    68  H    0.107786
    69  H    0.107681
    70  H    0.111004
    71  H    0.116144
    72  H    0.093804
    73  H    0.297994
    74  H    0.314497
    75  H    0.099337
    76  H    0.082220
    77  H    0.108083
    78  H    0.109938
    79  H    0.112132
    80  H    0.122181
    81  H    0.110488
    82  H    0.098562
    83  H    0.065033
    84  H    0.072984
    85  H    0.083396
    86  H    0.083996
    87  H    0.088165
    88  H    0.077433
    89  H    0.096527
    90  H    0.125334
    91  H    0.088411
    92  H    0.120085
    93  H    0.155900
    94  H    0.087106
    95  H    0.073533
    96  H    0.089701
    97  H    0.078423
    98  H    0.087988
 Sum of Mulliken charges =  -0.00000

 Dipole moment (field-independent basis, Debye):
    X=             -1.0407    Y=             -0.3695    Z=              1.7352  Tot=              2.0568
 Quadrupole moment (field-independent basis, Debye-Ang):
   XX=           -267.4650   YY=           -243.7554   ZZ=           -260.3651
   XY=              4.8941   XZ=              4.5406   YZ=              2.2141

 Normal termination of Gaussian 16 at Sun Jul  7 16:00:52 2019.
