 Gaussian 16, Revision A.03,
 Gaussian 16:  ES64L-G16RevA.03 25-Dec-2016

 -------------------------------------
 # td=(NStates=1) CAM-B3LYP/6-31G(d,p)
 -------------------------------------

 --
 TD
 --
 Symbolic Z-matrix:
 Charge =  0 Multiplicity = 1

                         Standard orientation:
 ---------------------------------------------------------------------
 Center     Atomic      Atomic             Coordinates (Angstroms)
 Number     Number       Type             X           Y           Z
 ---------------------------------------------------------------------
      1          8           0       14.591898   -2.308324   -0.396987
      2          8           0      -14.611357    1.998429    0.650987
      3          6           0       11.336411   -1.044223    1.184780
      4          6           0      -12.217423   -0.875837    0.903597
      5          6           0       12.874184   -1.644917    1.005041
      6          6           0      -13.582076   -0.213329    0.917153
      7          6           0       13.190703   -2.162811   -0.302387
      8          6           0      -13.364249    1.329991    0.663861
      9          6           0       10.954455   -0.301506   -0.004770
     10          6           0      -11.360584   -0.343354   -0.154188
     11          6           0       12.823236   -1.036234   -1.397269
     12          6           0      -12.701022    1.657365   -0.649201
     13          6           0       11.567491   -0.285500   -1.204523
     14          6           0      -11.577247    0.720129   -0.925806
     15          6           0       11.350157   -0.223095    2.496469
     16          6           0       10.465756   -2.325043    1.492768
     17          6           0      -11.533225   -0.734074    2.323233
     18          6           0      -12.559493   -2.407039    0.773527
     19          6           0        9.616068    0.342290    0.244577
     20          6           0      -10.060881   -1.108058   -0.281031
     21          6           0       11.131908    0.485032   -2.406644
     22          6           0      -10.765440    1.262242   -2.152172
     23          6           0        9.310247    1.579181   -0.023298
     24          6           0       -8.874523   -0.638833   -0.202194
     25          6           0        8.078698    2.336069    0.189580
     26          6           0       -7.508125   -1.358917   -0.427697
     27          6           0        8.139716    3.813799    0.498408
     28          6           0       -7.686179   -2.855638   -0.682844
     29          6           0        6.955488    1.608782   -0.023770
     30          6           0       -6.394988   -0.625411   -0.426697
     31          6           0        5.608745    2.116773    0.202091
     32          6           0       -5.089705   -1.156028   -0.647412
     33          6           0        4.505240    1.343239   -0.066068
     34          6           0       -4.021835   -0.271152   -0.426463
     35          6           0        3.084848    1.721169    0.104591
     36          6           0       -2.552344   -0.618564   -0.597246
     37          6           0        2.774286    3.091212    0.728734
     38          6           0       -2.332238   -2.041815   -1.037153
     39          6           0        2.145829    0.834112   -0.101943
     40          6           0       -1.657234    0.261241   -0.383785
     41          6           0        0.609154    1.040110   -0.061932
     42          6           0       -0.202763    0.057744   -0.441310
     43          1           0       13.379737   -0.839438    1.328246
     44          1           0       13.031782   -2.306606    1.895073
     45          1           0      -14.065569   -0.492762    1.811340
     46          1           0      -13.944585   -0.635147    0.132585
     47          1           0       12.666332   -2.922111   -0.743387
     48          1           0      -12.698938    1.588216    1.517647
     49          1           0       13.579452   -0.278105   -1.370567
     50          1           0       12.610692   -1.444465   -2.336365
     51          1           0      -13.571878    1.775610   -1.498946
     52          1           0      -12.365804    2.607751   -0.576053
     53          1           0       11.646985   -0.752985    3.226456
     54          1           0       10.324908    0.025944    2.821523
     55          1           0       11.936617    0.600509    2.344533
     56          1           0       10.434704   -2.959517    0.618432
     57          1           0       10.662066   -3.122260    2.219422
     58          1           0        9.353669   -2.157900    1.551285
     59          1           0      -11.350974    0.361688    2.513140
     60          1           0      -10.525787   -1.186469    2.122691
     61          1           0      -12.339367   -1.069171    3.035330
     62          1           0      -13.411763   -2.757259    1.492224
     63          1           0      -11.793678   -2.926226    1.157561
     64          1           0      -12.936304   -2.606030   -0.238157
     65          1           0        8.833991   -0.078913    0.599673
     66          1           0      -10.051089   -2.247627   -0.442403
     67          1           0       10.148119    0.828485   -2.127848
     68          1           0       11.851594    1.426158   -2.590004
     69          1           0       11.281628   -0.153920   -3.303916
     70          1           0      -11.658044    1.462489   -2.990631
     71          1           0      -10.174149    0.417391   -2.532086
     72          1           0      -10.240605    2.160887   -1.971268
     73          1           0       14.797164   -3.290998    0.111596
     74          1           0      -14.940378    1.980113    1.519276
     75          1           0       10.233032    2.229283   -0.349552
     76          1           0       -8.786385    0.437072    0.103813
     77          1           0        8.692221    4.405767   -0.254658
     78          1           0        7.165704    4.214101    0.470559
     79          1           0        8.606316    3.785058    1.605671
     80          1           0       -7.859917   -3.463919    0.339337
     81          1           0       -8.411507   -3.207527   -1.456713
     82          1           0       -6.751004   -3.320289   -0.952683
     83          1           0        7.221626    0.718192   -0.380978
     84          1           0       -6.512398    0.359263   -0.107372
     85          1           0        5.437414    3.097578    0.411332
     86          1           0       -5.195043   -2.163545   -0.849710
     87          1           0        4.746857    0.366382   -0.434213
     88          1           0       -4.105925    0.720093   -0.084856
     89          1           0        3.350582    3.197709    1.588165
     90          1           0        1.781837    3.350873    1.135125
     91          1           0        2.968251    3.972745    0.069616
     92          1           0       -2.920762   -2.628671   -0.504373
     93          1           0       -2.639531   -2.287857   -2.090093
     94          1           0       -1.207314   -2.306061   -1.003307
     95          1           0        2.291345   -0.326597   -0.286011
     96          1           0       -1.851609    1.244183   -0.016651
     97          1           0        0.390446    2.013896    0.176408
     98          1           0        0.154625   -0.910526   -0.660898
 ---------------------------------------------------------------------

 SCF Done:  E(RCAM-B3LYP) =  -1706.98614442     A.U. after   13 cycles

 Excitation energies and oscillator strengths:

 Excited State   1:      Singlet-A      3.4094 eV  363.65 nm  f=3.5575  <S**2>=0.000
     155 ->158        -0.21828
     156 ->157         0.65548
 This state for optimization and/or second-order correction.
 Total Energy, E(TD-HF/TD-DFT) =  -1706.86085121
 Copying the excited state density for this state as the 1-particle RhoCI density.

 The electronic state is 1-A.
 Alpha  occ. eigenvalues --  -19.22196 -19.20229 -10.29740 -10.29541 -10.27676
 Alpha  occ. eigenvalues --  -10.27361 -10.27277 -10.27192 -10.27120 -10.26676
 Alpha  occ. eigenvalues --  -10.26543 -10.26471 -10.26392 -10.26368 -10.26311
 Alpha  occ. eigenvalues --  -10.26074 -10.26055 -10.26026 -10.26019 -10.25947
 Alpha  occ. eigenvalues --  -10.25920 -10.25725 -10.25650 -10.25633 -10.25537
 Alpha  occ. eigenvalues --  -10.25482 -10.25237 -10.25131 -10.25126 -10.25105
 Alpha  occ. eigenvalues --  -10.25097 -10.25056 -10.24963 -10.24620 -10.24400
 Alpha  occ. eigenvalues --  -10.24313 -10.24309 -10.23977 -10.23682 -10.23535
 Alpha  occ. eigenvalues --  -10.22043 -10.22017  -1.09743  -1.07792  -0.94013
 Alpha  occ. eigenvalues --   -0.93614  -0.92183  -0.91461  -0.90679  -0.89834
 Alpha  occ. eigenvalues --   -0.87198  -0.87130  -0.86727  -0.85771  -0.84799
 Alpha  occ. eigenvalues --   -0.82620  -0.81800  -0.80594  -0.79428  -0.78195
 Alpha  occ. eigenvalues --   -0.77252  -0.76738  -0.76443  -0.76185  -0.75873
 Alpha  occ. eigenvalues --   -0.75812  -0.75688  -0.75146  -0.74774  -0.70498
 Alpha  occ. eigenvalues --   -0.68604  -0.67263  -0.66623  -0.65513  -0.64771
 Alpha  occ. eigenvalues --   -0.64480  -0.63303  -0.62054  -0.61833  -0.60015
 Alpha  occ. eigenvalues --   -0.59156  -0.58793  -0.58717  -0.57414  -0.56633
 Alpha  occ. eigenvalues --   -0.55666  -0.55033  -0.54384  -0.54093  -0.53798
 Alpha  occ. eigenvalues --   -0.53122  -0.53084  -0.52518  -0.52452  -0.51081
 Alpha  occ. eigenvalues --   -0.50731  -0.50330  -0.50083  -0.49766  -0.49354
 Alpha  occ. eigenvalues --   -0.48900  -0.48690  -0.48454  -0.48326  -0.48097
 Alpha  occ. eigenvalues --   -0.47968  -0.47561  -0.47275  -0.47017  -0.46754
 Alpha  occ. eigenvalues --   -0.46032  -0.45831  -0.45299  -0.44893  -0.44727
 Alpha  occ. eigenvalues --   -0.44689  -0.44441  -0.44400  -0.43869  -0.43854
 Alpha  occ. eigenvalues --   -0.43566  -0.43513  -0.43386  -0.43029  -0.42531
 Alpha  occ. eigenvalues --   -0.42322  -0.42171  -0.41698  -0.41426  -0.40843
 Alpha  occ. eigenvalues --   -0.40758  -0.40146  -0.40026  -0.39212  -0.39005
 Alpha  occ. eigenvalues --   -0.38947  -0.38458  -0.38184  -0.37898  -0.37812
 Alpha  occ. eigenvalues --   -0.37701  -0.37044  -0.36009  -0.35725  -0.35491
 Alpha  occ. eigenvalues --   -0.35214  -0.34452  -0.33931  -0.32595  -0.31606
 Alpha  occ. eigenvalues --   -0.30492  -0.29695  -0.28199  -0.27295  -0.24465
 Alpha  occ. eigenvalues --   -0.22223
 Alpha virt. eigenvalues --   -0.02399   0.00534   0.04496   0.06458   0.07678
 Alpha virt. eigenvalues --    0.09170   0.09912   0.11481   0.12665   0.13028
 Alpha virt. eigenvalues --    0.13478   0.13621   0.13772   0.14225   0.14459

 Mulliken charges:
               1
     1  O   -0.553080
     2  O   -0.551557
     3  C   -0.056698
     4  C   -0.071098
     5  C   -0.175113
     6  C   -0.149626
     7  C    0.173730
     8  C    0.144381
     9  C    0.075522
    10  C    0.080294
    11  C   -0.229781
    12  C   -0.206783
    13  C    0.043504
    14  C    0.038771
    15  C   -0.285881
    16  C   -0.324072
    17  C   -0.297627
    18  C   -0.296435
    19  C   -0.080618
    20  C   -0.170578
    21  C   -0.344732
    22  C   -0.340029
    23  C   -0.135751
    24  C   -0.068207
    25  C    0.070788
    26  C    0.088560
    27  C   -0.349763
    28  C   -0.387155
    29  C   -0.097764
    30  C   -0.095706
    31  C   -0.087457
    32  C   -0.074623
    33  C   -0.110724
    34  C   -0.122496
    35  C    0.110658
    36  C    0.128254
    37  C   -0.389778
    38  C   -0.363199
    39  C   -0.146475
    40  C   -0.138530
    41  C   -0.068457
    42  C   -0.074987
    43  H    0.109375
    44  H    0.070849
    45  H    0.076246
    46  H    0.099787
    47  H    0.092043
    48  H    0.069325
    49  H    0.128093
    50  H    0.098619
    51  H    0.097979
    52  H    0.123020
    53  H    0.108000
    54  H    0.097780
    55  H    0.106148
    56  H    0.094313
    57  H    0.104627
    58  H    0.090139
    59  H    0.091841
    60  H    0.113502
    61  H    0.098031
    62  H    0.080630
    63  H    0.109385
    64  H    0.108481
    65  H    0.064596
    66  H    0.079725
    67  H    0.129178
    68  H    0.099124
    69  H    0.105141
    70  H    0.082770
    71  H    0.121347
    72  H    0.127369
    73  H    0.296834
    74  H    0.296309
    75  H    0.060977
    76  H    0.067675
    77  H    0.123807
    78  H    0.117059
    79  H    0.111177
    80  H    0.108709
    81  H    0.129863
    82  H    0.107164
    83  H    0.075993
    84  H    0.079417
    85  H    0.078553
    86  H    0.083202
    87  H    0.081508
    88  H    0.087353
    89  H    0.133630
    90  H    0.111740
    91  H    0.113723
    92  H    0.130095
    93  H    0.116809
    94  H    0.092548
    95  H    0.071367
    96  H    0.077585
    97  H    0.077730
    98  H    0.082026
 Sum of Mulliken charges =  -0.00000

 Dipole moment (field-independent basis, Debye):
    X=              0.4661    Y=             -1.5102    Z=              1.8597  Tot=              2.4406
 Quadrupole moment (field-independent basis, Debye-Ang):
   XX=           -294.1184   YY=           -237.1899   ZZ=           -259.0172
   XY=             -0.5868   XZ=             -8.4107   YZ=              3.9748

 Normal termination of Gaussian 16 at Wed Jul  3 21:10:31 2019.
