 Gaussian 16, Revision A.03,
 Gaussian 16:  ES64L-G16RevA.03 25-Dec-2016

 -------------------------------------
 # td=(NStates=1) CAM-B3LYP/6-31G(d,p)
 -------------------------------------

 --
 TD
 --
 Symbolic Z-matrix:
 Charge =  0 Multiplicity = 1

                         Standard orientation:
 ---------------------------------------------------------------------
 Center     Atomic      Atomic             Coordinates (Angstroms)
 Number     Number       Type             X           Y           Z
 ---------------------------------------------------------------------
      1          8           0       14.726446   -2.164808   -0.549234
      2          8           0      -14.961949    1.886154    0.682583
      3          6           0       11.662087   -1.022515    1.294528
      4          6           0      -12.276472   -0.883116    0.855316
      5          6           0       13.081487   -1.317065    1.011418
      6          6           0      -13.816561   -0.256346    0.806221
      7          6           0       13.355777   -1.964539   -0.356465
      8          6           0      -13.650844    1.297911    0.658457
      9          6           0       10.992560   -0.323190    0.053860
     10          6           0      -11.426078   -0.264861   -0.250055
     11          6           0       12.932266   -1.023527   -1.503169
     12          6           0      -12.986806    1.577369   -0.651768
     13          6           0       11.670115   -0.237869   -1.218523
     14          6           0      -11.709582    0.860733   -0.896435
     15          6           0       11.582450   -0.087949    2.495965
     16          6           0       10.777668   -2.294296    1.537030
     17          6           0      -11.662085   -0.680763    2.251060
     18          6           0      -12.493524   -2.419113    0.659429
     19          6           0        9.768485    0.372662    0.206841
     20          6           0      -10.102097   -1.050029   -0.518519
     21          6           0       10.963132    0.271383   -2.422738
     22          6           0      -10.892583    1.436386   -2.033393
     23          6           0        9.369838    1.570884   -0.165808
     24          6           0       -8.818111   -0.530989   -0.465158
     25          6           0        8.071290    2.159563    0.081797
     26          6           0       -7.605525   -1.282421   -0.632044
     27          6           0        8.117870    3.679580    0.293227
     28          6           0       -7.796665   -2.783837   -0.848705
     29          6           0        6.856755    1.518122    0.071469
     30          6           0       -6.432831   -0.607100   -0.427336
     31          6           0        5.484377    2.080542    0.211618
     32          6           0       -5.087353   -1.147792   -0.512671
     33          6           0        4.519208    1.245113    0.017576
     34          6           0       -4.078715   -0.381455   -0.215397
     35          6           0        3.089922    1.658773    0.194567
     36          6           0       -2.575227   -0.681282   -0.391080
     37          6           0        2.892783    3.030596    0.542450
     38          6           0       -2.234642   -2.079301   -0.685596
     39          6           0        2.141816    0.712876   -0.023156
     40          6           0       -1.662612    0.180293   -0.022367
     41          6           0        0.709552    0.943789    0.158996
     42          6           0       -0.243703   -0.070226   -0.126573
     43          1           0       13.778853   -0.367028    1.012289
     44          1           0       13.440240   -2.116990    1.545107
     45          1           0      -14.343843   -0.624436    1.689399
     46          1           0      -14.301709   -0.651065   -0.134194
     47          1           0       12.896941   -2.755337   -0.433941
     48          1           0      -13.023074    1.649643    1.440425
     49          1           0       13.709108   -0.117972   -1.668713
     50          1           0       13.138072   -1.497826   -2.565046
     51          1           0      -13.817538    1.364500   -1.453081
     52          1           0      -12.796862    2.534760   -0.610021
     53          1           0       12.170515   -0.523300    3.186410
     54          1           0       10.607819    0.012010    2.737120
     55          1           0       12.184765    0.794504    2.226388
     56          1           0       11.119775   -2.941268    0.798914
     57          1           0       10.958896   -2.804677    2.511262
     58          1           0        9.774397   -2.125682    1.570319
     59          1           0      -11.609694    0.393215    2.535760
     60          1           0      -10.608825   -1.030413    2.229592
     61          1           0      -12.141179   -1.235148    3.043779
     62          1           0      -13.290922   -2.898440    1.420348
     63          1           0      -11.555702   -2.906482    0.912225
     64          1           0      -12.832346   -2.569737   -0.324370
     65          1           0        8.961349   -0.238813    0.678737
     66          1           0      -10.155765   -2.166944   -0.556513
     67          1           0        9.948182    0.568221   -2.378881
     68          1           0       11.577977    1.176047   -3.014846
     69          1           0       11.028453   -0.483729   -3.269440
     70          1           0      -11.617337    1.907120   -2.831088
     71          1           0      -10.085774    0.790170   -2.136966
     72          1           0      -10.423693    2.276514   -1.692999
     73          1           0       14.773306   -2.877962    0.144837
     74          1           0      -15.374629    1.640438    1.692221
     75          1           0        9.930936    2.256794   -0.736739
     76          1           0       -8.762538    0.463199   -0.142079
     77          1           0        8.605952    4.322316   -0.595679
     78          1           0        7.163427    4.072787    0.261372
     79          1           0        8.829284    4.079834    1.291187
     80          1           0       -8.362580   -3.276092   -0.093279
     81          1           0       -8.343417   -2.811193   -1.828706
     82          1           0       -6.939371   -3.318709   -0.807763
     83          1           0        6.958416    0.462823   -0.182730
     84          1           0       -6.734344    0.484399   -0.119830
     85          1           0        5.392737    3.137408    0.562731
     86          1           0       -4.874046   -2.245771   -0.876061
     87          1           0        4.738430    0.168168   -0.197034
     88          1           0       -4.271002    0.536411    0.080931
     89          1           0        3.503726    3.471820    1.457113
     90          1           0        1.786685    3.178825    0.832545
     91          1           0        3.181955    3.666561   -0.463038
     92          1           0       -2.519015   -2.899418    0.030407
     93          1           0       -2.568809   -2.575109   -1.711073
     94          1           0       -1.066370   -2.193844   -0.896864
     95          1           0        2.528748   -0.238311   -0.225148
     96          1           0       -1.863543    1.173676    0.466513
     97          1           0        0.248146    1.959323    0.482531
     98          1           0        0.306316   -1.062524   -0.170361
 ---------------------------------------------------------------------

 SCF Done:  E(RCAM-B3LYP) =  -1706.99130240     A.U. after   14 cycles

 Excitation energies and oscillator strengths:

 Excited State   1:      Singlet-A      3.1150 eV  398.02 nm  f=3.6234  <S**2>=0.000
     155 ->158        -0.19339
     156 ->157         0.66544
 This state for optimization and/or second-order correction.
 Total Energy, E(TD-HF/TD-DFT) =  -1706.87682711
 Copying the excited state density for this state as the 1-particle RhoCI density.

 The electronic state is 1-A.
 Alpha  occ. eigenvalues --  -19.22072 -19.21714 -10.29443 -10.28797 -10.27927
 Alpha  occ. eigenvalues --  -10.27783 -10.27726 -10.27513 -10.27368 -10.27303
 Alpha  occ. eigenvalues --  -10.27162 -10.27133 -10.27080 -10.27007 -10.26974
 Alpha  occ. eigenvalues --  -10.26947 -10.26820 -10.26811 -10.26754 -10.26592
 Alpha  occ. eigenvalues --  -10.26590 -10.26293 -10.26236 -10.26112 -10.26051
 Alpha  occ. eigenvalues --  -10.25930 -10.25883 -10.25864 -10.25800 -10.25587
 Alpha  occ. eigenvalues --  -10.25373 -10.25157 -10.25060 -10.24974 -10.24910
 Alpha  occ. eigenvalues --  -10.24785 -10.24751 -10.24388 -10.24140 -10.24016
 Alpha  occ. eigenvalues --  -10.23986 -10.22478  -1.11346  -1.06392  -0.93598
 Alpha  occ. eigenvalues --   -0.92738  -0.92431  -0.91844  -0.90504  -0.90023
 Alpha  occ. eigenvalues --   -0.87441  -0.86803  -0.86628  -0.85790  -0.84193
 Alpha  occ. eigenvalues --   -0.83134  -0.82086  -0.80251  -0.79565  -0.78015
 Alpha  occ. eigenvalues --   -0.77872  -0.77135  -0.75862  -0.75630  -0.75604
 Alpha  occ. eigenvalues --   -0.75319  -0.74914  -0.74849  -0.73857  -0.69976
 Alpha  occ. eigenvalues --   -0.69206  -0.67020  -0.65715  -0.64800  -0.63974
 Alpha  occ. eigenvalues --   -0.63649  -0.62358  -0.61363  -0.60616  -0.60167
 Alpha  occ. eigenvalues --   -0.59924  -0.59584  -0.58121  -0.57680  -0.56442
 Alpha  occ. eigenvalues --   -0.56021  -0.55079  -0.54289  -0.53985  -0.53475
 Alpha  occ. eigenvalues --   -0.53269  -0.52650  -0.52421  -0.51785  -0.51309
 Alpha  occ. eigenvalues --   -0.50820  -0.50509  -0.50008  -0.49598  -0.49133
 Alpha  occ. eigenvalues --   -0.48835  -0.48486  -0.47777  -0.47618  -0.47478
 Alpha  occ. eigenvalues --   -0.47421  -0.47264  -0.47170  -0.46795  -0.46585
 Alpha  occ. eigenvalues --   -0.45950  -0.45722  -0.45121  -0.45028  -0.44874
 Alpha  occ. eigenvalues --   -0.44839  -0.44596  -0.44094  -0.43658  -0.43465
 Alpha  occ. eigenvalues --   -0.43172  -0.43153  -0.42671  -0.42553  -0.42500
 Alpha  occ. eigenvalues --   -0.42071  -0.41950  -0.41645  -0.41286  -0.40518
 Alpha  occ. eigenvalues --   -0.40304  -0.40281  -0.39929  -0.39505  -0.39469
 Alpha  occ. eigenvalues --   -0.39063  -0.38670  -0.38593  -0.38478  -0.38232
 Alpha  occ. eigenvalues --   -0.38014  -0.37982  -0.37057  -0.36637  -0.36147
 Alpha  occ. eigenvalues --   -0.35338  -0.34635  -0.33880  -0.32589  -0.32239
 Alpha  occ. eigenvalues --   -0.30438  -0.29462  -0.28243  -0.25791  -0.23975
 Alpha  occ. eigenvalues --   -0.21719
 Alpha virt. eigenvalues --   -0.03272   0.00122   0.02374   0.05864   0.07777
 Alpha virt. eigenvalues --    0.09256   0.09704   0.10703   0.11206   0.11626
 Alpha virt. eigenvalues --    0.12073   0.12861   0.12919   0.13563   0.13677

 Mulliken charges:
               1
     1  O   -0.534552
     2  O   -0.572671
     3  C   -0.017100
     4  C   -0.028751
     5  C   -0.187612
     6  C   -0.186407
     7  C    0.158988
     8  C    0.165068
     9  C    0.036817
    10  C    0.061312
    11  C   -0.238572
    12  C   -0.206350
    13  C    0.086098
    14  C    0.044422
    15  C   -0.275224
    16  C   -0.314981
    17  C   -0.304051
    18  C   -0.297778
    19  C   -0.130436
    20  C   -0.172421
    21  C   -0.361059
    22  C   -0.356679
    23  C   -0.077824
    24  C   -0.098671
    25  C    0.056565
    26  C    0.115037
    27  C   -0.347796
    28  C   -0.365145
    29  C   -0.129493
    30  C   -0.147132
    31  C   -0.075523
    32  C   -0.086234
    33  C   -0.102287
    34  C   -0.074124
    35  C    0.139789
    36  C    0.124922
    37  C   -0.377517
    38  C   -0.388819
    39  C   -0.122117
    40  C   -0.119800
    41  C   -0.108487
    42  C   -0.096843
    43  H    0.106857
    44  H    0.070931
    45  H    0.076735
    46  H    0.094134
    47  H    0.088533
    48  H    0.082071
    49  H    0.101633
    50  H    0.102915
    51  H    0.109774
    52  H    0.111958
    53  H    0.104936
    54  H    0.108018
    55  H    0.099379
    56  H    0.106797
    57  H    0.089267
    58  H    0.119255
    59  H    0.093959
    60  H    0.104525
    61  H    0.102280
    62  H    0.077835
    63  H    0.098201
    64  H    0.113272
    65  H    0.077416
    66  H    0.088224
    67  H    0.130841
    68  H    0.074385
    69  H    0.104633
    70  H    0.105711
    71  H    0.120921
    72  H    0.123655
    73  H    0.297782
    74  H    0.301920
    75  H    0.093097
    76  H    0.084384
    77  H    0.091348
    78  H    0.113530
    79  H    0.086241
    80  H    0.125790
    81  H    0.123142
    82  H    0.108639
    83  H    0.072956
    84  H    0.082299
    85  H    0.100370
    86  H    0.090884
    87  H    0.086172
    88  H    0.066289
    89  H    0.114128
    90  H    0.099386
    91  H    0.111032
    92  H    0.127123
    93  H    0.096416
    94  H    0.095582
    95  H    0.082061
    96  H    0.093481
    97  H    0.084076
    98  H    0.096261
 Sum of Mulliken charges =  -0.00000

 Dipole moment (field-independent basis, Debye):
    X=              0.8331    Y=             -1.9089    Z=              2.5580  Tot=              3.2987
 Quadrupole moment (field-independent basis, Debye-Ang):
   XX=           -300.8946   YY=           -243.3191   ZZ=           -260.6582
   XY=             -1.9416   XZ=             -8.5264   YZ=             -0.4962

 Normal termination of Gaussian 16 at Tue Jul  2 00:57:56 2019.
