 Gaussian 16, Revision A.03,
 Gaussian 16:  ES64L-G16RevA.03 25-Dec-2016

 -------------------------------------
 # td=(NStates=1) CAM-B3LYP/6-31G(d,p)
 -------------------------------------

 --
 TD
 --
 Symbolic Z-matrix:
 Charge =  0 Multiplicity = 1

                         Standard orientation:
 ---------------------------------------------------------------------
 Center     Atomic      Atomic             Coordinates (Angstroms)
 Number     Number       Type             X           Y           Z
 ---------------------------------------------------------------------
      1          8           0       14.707830   -2.119961   -0.475243
      2          8           0      -14.604688    2.138655    0.762668
      3          6           0       11.447966   -1.185813    1.298792
      4          6           0      -12.361562   -0.901708    0.768557
      5          6           0       12.976961   -1.441097    1.094507
      6          6           0      -13.706113   -0.176827    0.721687
      7          6           0       13.312915   -1.931817   -0.336871
      8          6           0      -13.408730    1.355802    0.731315
      9          6           0       10.991259   -0.318965    0.050696
     10          6           0      -11.340420   -0.373188   -0.100624
     11          6           0       12.868675   -0.927493   -1.318551
     12          6           0      -12.710337    1.728825   -0.624192
     13          6           0       11.624444   -0.206588   -1.081544
     14          6           0      -11.511895    0.778258   -0.773783
     15          6           0       11.267400   -0.412361    2.536022
     16          6           0       10.525954   -2.394481    1.347496
     17          6           0      -11.631521   -0.958691    2.240612
     18          6           0      -12.693199   -2.429180    0.537682
     19          6           0        9.677368    0.401245    0.256814
     20          6           0      -10.095398   -1.051705   -0.341856
     21          6           0       11.143583    0.497121   -2.401112
     22          6           0      -10.646151    1.282437   -1.863104
     23          6           0        9.399499    1.569893   -0.079141
     24          6           0       -8.948809   -0.563212   -0.209188
     25          6           0        8.017561    2.257983    0.070233
     26          6           0       -7.638967   -1.380472   -0.446553
     27          6           0        7.953675    3.709541    0.382155
     28          6           0       -7.692813   -2.802273   -0.860937
     29          6           0        6.982022    1.519864   -0.027843
     30          6           0       -6.500167   -0.651830   -0.199945
     31          6           0        5.597276    1.958710    0.176774
     32          6           0       -5.142830   -1.038656   -0.553268
     33          6           0        4.529103    1.297039   -0.085338
     34          6           0       -4.059033   -0.293867   -0.446762
     35          6           0        3.109746    1.646947    0.050873
     36          6           0       -2.594137   -0.691955   -0.521312
     37          6           0        2.793124    2.988758    0.606911
     38          6           0       -2.396272   -2.027919   -1.060332
     39          6           0        2.089113    0.775449   -0.221053
     40          6           0       -1.603562    0.150598   -0.251172
     41          6           0        0.719774    0.958999    0.059671
     42          6           0       -0.189082   -0.047105   -0.370535
     43          1           0       13.762356   -0.447823    1.091931
     44          1           0       13.335814   -1.956756    1.911045
     45          1           0      -14.562997   -0.299865    1.416902
     46          1           0      -14.182373   -0.467713   -0.283830
     47          1           0       12.909167   -2.852426   -0.404867
     48          1           0      -12.845026    1.678567    1.654224
     49          1           0       13.736911   -0.195914   -1.293224
     50          1           0       12.904727   -1.450717   -2.365041
     51          1           0      -13.440395    1.926641   -1.537032
     52          1           0      -12.155661    2.751372   -0.466535
     53          1           0       11.728131   -0.877052    3.536381
     54          1           0       10.287436   -0.177675    2.711222
     55          1           0       11.971725    0.427900    2.488226
     56          1           0       10.712932   -3.065530    0.441164
     57          1           0       10.745386   -2.874959    2.244193
     58          1           0        9.357991   -2.087929    1.390566
     59          1           0      -11.364326   -0.001150    2.652199
     60          1           0      -10.687103   -1.329481    2.020253
     61          1           0      -12.272580   -1.481313    3.059266
     62          1           0      -13.382957   -2.587863    1.309240
     63          1           0      -11.799772   -2.959283    0.477831
     64          1           0      -12.994003   -2.631352   -0.448346
     65          1           0        8.819368   -0.164038    0.572820
     66          1           0      -10.191491   -2.091019   -0.383568
     67          1           0       10.146402    0.614851   -2.270717
     68          1           0       11.654221    1.446069   -2.431813
     69          1           0       11.566588   -0.183170   -3.141309
     70          1           0      -11.229255    1.767357   -2.769449
     71          1           0      -10.034298    0.491302   -2.155937
     72          1           0       -9.788363    2.098665   -1.551803
     73          1           0       15.225063   -2.814013    0.310043
     74          1           0      -14.933099    2.030361    1.714340
     75          1           0       10.075470    2.368274   -0.479479
     76          1           0       -8.803014    0.553484   -0.011597
     77          1           0        8.771202    4.314971   -0.027444
     78          1           0        7.000721    4.407678    0.509906
     79          1           0        8.588269    3.900869    1.327313
     80          1           0       -7.922665   -3.304239   -0.017403
     81          1           0       -8.502861   -2.970559   -1.702729
     82          1           0       -6.747679   -3.254714   -0.953343
     83          1           0        7.150693    0.477952   -0.429331
     84          1           0       -6.751709    0.413534   -0.091781
     85          1           0        5.375259    2.903014    0.646582
     86          1           0       -5.063115   -2.139698   -0.695599
     87          1           0        4.891405    0.323454   -0.609009
     88          1           0       -4.394767    0.629123    0.029961
     89          1           0        3.167466    3.450753    1.611822
     90          1           0        1.766532    3.202822    0.751336
     91          1           0        2.960555    3.935662   -0.092107
     92          1           0       -2.749471   -2.816755   -0.400754
     93          1           0       -2.974177   -2.321829   -1.882964
     94          1           0       -1.455828   -2.329985   -1.083954
     95          1           0        2.370027   -0.245268   -0.441418
     96          1           0       -1.970822    1.182971   -0.016879
     97          1           0        0.082528    1.841640    0.635557
     98          1           0        0.371794   -0.930354   -0.909170
 ---------------------------------------------------------------------

 SCF Done:  E(RCAM-B3LYP) =  -1706.94247202     A.U. after   14 cycles

 Excitation energies and oscillator strengths:

 Excited State   1:      Singlet-A      3.0959 eV  400.48 nm  f=3.3720  <S**2>=0.000
     155 ->158         0.14445
     156 ->157         0.68706
 This state for optimization and/or second-order correction.
 Total Energy, E(TD-HF/TD-DFT) =  -1706.82870080
 Copying the excited state density for this state as the 1-particle RhoCI density.

 The electronic state is 1-A.
 Alpha  occ. eigenvalues --  -19.21727 -19.20724 -10.30454 -10.28983 -10.28178
 Alpha  occ. eigenvalues --  -10.27990 -10.27850 -10.27730 -10.27728 -10.27308
 Alpha  occ. eigenvalues --  -10.27277 -10.26909 -10.26541 -10.26512 -10.26377
 Alpha  occ. eigenvalues --  -10.26257 -10.26123 -10.26112 -10.26018 -10.25970
 Alpha  occ. eigenvalues --  -10.25921 -10.25868 -10.25818 -10.25728 -10.25673
 Alpha  occ. eigenvalues --  -10.25602 -10.25599 -10.25520 -10.25427 -10.25424
 Alpha  occ. eigenvalues --  -10.25301 -10.25262 -10.25162 -10.24713 -10.24671
 Alpha  occ. eigenvalues --  -10.24615 -10.24570 -10.24314 -10.24067 -10.24022
 Alpha  occ. eigenvalues --  -10.23464 -10.23224  -1.07942  -1.06670  -0.94738
 Alpha  occ. eigenvalues --   -0.93830  -0.92067  -0.91735  -0.90786  -0.90180
 Alpha  occ. eigenvalues --   -0.87926  -0.87515  -0.86799  -0.85958  -0.84987
 Alpha  occ. eigenvalues --   -0.83723  -0.82201  -0.80789  -0.80191  -0.78719
 Alpha  occ. eigenvalues --   -0.77732  -0.76852  -0.76783  -0.76266  -0.75900
 Alpha  occ. eigenvalues --   -0.75598  -0.75281  -0.74600  -0.74429  -0.69983
 Alpha  occ. eigenvalues --   -0.68105  -0.67042  -0.65328  -0.64630  -0.64382
 Alpha  occ. eigenvalues --   -0.63391  -0.62418  -0.60863  -0.60550  -0.60281
 Alpha  occ. eigenvalues --   -0.59931  -0.58736  -0.58496  -0.57710  -0.56166
 Alpha  occ. eigenvalues --   -0.55685  -0.55423  -0.55337  -0.54393  -0.53898
 Alpha  occ. eigenvalues --   -0.53534  -0.52778  -0.52529  -0.51830  -0.51271
 Alpha  occ. eigenvalues --   -0.51174  -0.50657  -0.49736  -0.49581  -0.49153
 Alpha  occ. eigenvalues --   -0.48878  -0.48086  -0.47997  -0.47879  -0.47499
 Alpha  occ. eigenvalues --   -0.47469  -0.47256  -0.47043  -0.46810  -0.46493
 Alpha  occ. eigenvalues --   -0.46306  -0.45892  -0.45783  -0.44974  -0.44927
 Alpha  occ. eigenvalues --   -0.44135  -0.43923  -0.43797  -0.43617  -0.43425
 Alpha  occ. eigenvalues --   -0.43186  -0.42740  -0.42250  -0.42018  -0.41824
 Alpha  occ. eigenvalues --   -0.41592  -0.41469  -0.41341  -0.41083  -0.41038
 Alpha  occ. eigenvalues --   -0.39864  -0.39720  -0.39680  -0.39484  -0.39122
 Alpha  occ. eigenvalues --   -0.38790  -0.38672  -0.38307  -0.38170  -0.37928
 Alpha  occ. eigenvalues --   -0.37662  -0.37221  -0.36326  -0.36290  -0.35893
 Alpha  occ. eigenvalues --   -0.35469  -0.34940  -0.33783  -0.32917  -0.30995
 Alpha  occ. eigenvalues --   -0.30943  -0.29664  -0.28481  -0.27174  -0.25172
 Alpha  occ. eigenvalues --   -0.21551
 Alpha virt. eigenvalues --   -0.03400   0.01133   0.04075   0.06397   0.07537
 Alpha virt. eigenvalues --    0.08254   0.10307   0.11398   0.11844   0.12185
 Alpha virt. eigenvalues --    0.12300   0.12748   0.12919   0.13210   0.13677

 Mulliken charges:
               1
     1  O   -0.586349
     2  O   -0.568211
     3  C   -0.005218
     4  C   -0.043277
     5  C   -0.200647
     6  C   -0.187432
     7  C    0.206116
     8  C    0.158210
     9  C    0.051571
    10  C    0.114591
    11  C   -0.235169
    12  C   -0.215162
    13  C    0.038934
    14  C    0.040568
    15  C   -0.290652
    16  C   -0.293254
    17  C   -0.313238
    18  C   -0.290905
    19  C   -0.117624
    20  C   -0.158586
    21  C   -0.328144
    22  C   -0.355407
    23  C   -0.099314
    24  C   -0.062076
    25  C    0.138233
    26  C    0.097172
    27  C   -0.394025
    28  C   -0.371846
    29  C   -0.156943
    30  C   -0.146534
    31  C   -0.061176
    32  C   -0.071269
    33  C   -0.115288
    34  C   -0.127743
    35  C    0.125821
    36  C    0.131788
    37  C   -0.395351
    38  C   -0.381517
    39  C   -0.140242
    40  C   -0.144150
    41  C   -0.071766
    42  C   -0.093906
    43  H    0.066017
    44  H    0.081472
    45  H    0.081631
    46  H    0.098896
    47  H    0.083543
    48  H    0.081058
    49  H    0.123150
    50  H    0.095846
    51  H    0.116087
    52  H    0.097001
    53  H    0.071379
    54  H    0.112799
    55  H    0.108584
    56  H    0.098701
    57  H    0.110739
    58  H    0.093253
    59  H    0.098881
    60  H    0.117711
    61  H    0.085481
    62  H    0.114151
    63  H    0.097181
    64  H    0.101615
    65  H    0.087871
    66  H    0.074710
    67  H    0.127466
    68  H    0.121666
    69  H    0.105979
    70  H    0.096712
    71  H    0.124472
    72  H    0.081026
    73  H    0.301937
    74  H    0.297919
    75  H    0.076494
    76  H    0.091291
    77  H    0.114995
    78  H    0.127482
    79  H    0.105171
    80  H    0.142276
    81  H    0.117680
    82  H    0.114978
    83  H    0.079792
    84  H    0.077330
    85  H    0.071362
    86  H    0.065014
    87  H    0.057132
    88  H    0.076880
    89  H    0.111559
    90  H    0.117742
    91  H    0.097820
    92  H    0.111569
    93  H    0.130912
    94  H    0.110465
    95  H    0.096806
    96  H    0.086756
    97  H    0.092373
    98  H    0.090606
 Sum of Mulliken charges =  -0.00000

 Dipole moment (field-independent basis, Debye):
    X=              0.5597    Y=             -2.0951    Z=              2.4155  Tot=              3.2461
 Quadrupole moment (field-independent basis, Debye-Ang):
   XX=           -264.5218   YY=           -242.7398   ZZ=           -260.4716
   XY=             10.9699   XZ=              1.0556   YZ=              4.0369

 Normal termination of Gaussian 16 at Fri Jun 28 06:32:57 2019.
