 Gaussian 16, Revision A.03,
 Gaussian 16:  ES64L-G16RevA.03 25-Dec-2016

 -------------------------------------
 # td=(NStates=1) CAM-B3LYP/6-31G(d,p)
 -------------------------------------

 --
 TD
 --
 Symbolic Z-matrix:
 Charge =  0 Multiplicity = 1

                         Standard orientation:
 ---------------------------------------------------------------------
 Center     Atomic      Atomic             Coordinates (Angstroms)
 Number     Number       Type             X           Y           Z
 ---------------------------------------------------------------------
      1          8           0       14.707119   -2.289232   -0.467960
      2          8           0      -14.796298    1.959008    0.778000
      3          6           0       11.481486   -1.064564    1.237271
      4          6           0      -12.278200   -1.062967    0.778100
      5          6           0       13.029458   -1.363904    1.062076
      6          6           0      -13.683021   -0.228016    0.887357
      7          6           0       13.252898   -2.079777   -0.331387
      8          6           0      -13.573510    1.230154    0.790720
      9          6           0       10.989794   -0.248957    0.140643
     10          6           0      -11.307226   -0.350553   -0.199315
     11          6           0       12.791641   -1.145490   -1.434875
     12          6           0      -12.765504    1.708060   -0.573926
     13          6           0       11.596935   -0.292603   -1.092841
     14          6           0      -11.575726    0.890382   -0.725511
     15          6           0       11.302999   -0.318973    2.631628
     16          6           0       10.782238   -2.360578    1.345134
     17          6           0      -11.726116   -0.956215    2.271051
     18          6           0      -12.471205   -2.444515    0.450313
     19          6           0        9.682265    0.406016    0.331246
     20          6           0      -10.127483   -1.090261   -0.442946
     21          6           0       11.042566    0.165855   -2.412994
     22          6           0      -10.671055    1.523456   -1.850949
     23          6           0        9.413248    1.630228   -0.080195
     24          6           0       -8.877292   -0.558287   -0.419693
     25          6           0        8.073815    2.270926    0.024125
     26          6           0       -7.578801   -1.313882   -0.587572
     27          6           0        8.225551    3.784194    0.476338
     28          6           0       -7.654824   -2.822411   -0.681933
     29          6           0        6.925728    1.683330   -0.033413
     30          6           0       -6.457611   -0.630861   -0.514021
     31          6           0        5.638338    2.108744    0.118955
     32          6           0       -5.092996   -1.070134   -0.552547
     33          6           0        4.470325    1.449943   -0.016934
     34          6           0       -4.044205   -0.173764   -0.262488
     35          6           0        3.130446    1.828586    0.066378
     36          6           0       -2.653839   -0.705877   -0.331910
     37          6           0        2.708951    3.189902    0.623704
     38          6           0       -2.469201   -2.155231   -0.840162
     39          6           0        2.166640    0.837668   -0.169729
     40          6           0       -1.647718    0.184603   -0.314655
     41          6           0        0.679045    1.104121   -0.167045
     42          6           0       -0.164767    0.057410   -0.403828
     43          1           0       13.456010   -0.365992    1.072651
     44          1           0       13.478866   -1.963141    1.852360
     45          1           0      -14.263780   -0.583390    1.651721
     46          1           0      -14.416527   -0.688833    0.023895
     47          1           0       12.518679   -3.008795   -0.455943
     48          1           0      -12.695414    1.480157    1.637303
     49          1           0       13.719892   -0.515363   -1.512925
     50          1           0       12.724688   -1.565891   -2.539861
     51          1           0      -13.517516    1.496367   -1.467841
     52          1           0      -12.689417    2.817575   -0.699556
     53          1           0       11.729526   -1.069683    3.309847
     54          1           0       10.099198   -0.217022    2.873407
     55          1           0       12.117221    0.552226    2.723062
     56          1           0       10.825036   -2.861262    0.310073
     57          1           0       11.182814   -2.937208    2.212586
     58          1           0        9.613067   -2.268245    1.703017
     59          1           0      -11.754608   -0.017755    2.797300
     60          1           0      -10.734322   -1.364713    2.158872
     61          1           0      -12.250972   -1.654934    3.036000
     62          1           0      -13.357039   -2.886124    0.997249
     63          1           0      -11.712249   -2.990622    0.896101
     64          1           0      -12.738021   -2.615395   -0.558942
     65          1           0        8.963784   -0.140482    0.735516
     66          1           0      -10.178460   -2.144445   -0.212654
     67          1           0        9.900720    0.495763   -2.278126
     68          1           0       11.556525    1.172744   -2.598635
     69          1           0       11.135904   -0.552199   -3.195612
     70          1           0      -11.400719    1.591121   -2.605597
     71          1           0       -9.710110    0.918602   -2.230679
     72          1           0      -10.306445    2.306765   -1.635792
     73          1           0       14.852485   -2.855769    0.259746
     74          1           0      -15.449541    1.800852    1.463673
     75          1           0       10.132903    2.293795   -0.494253
     76          1           0       -8.952228    0.577175   -0.387212
     77          1           0        9.174352    4.151378    0.014208
     78          1           0        7.349591    4.149905    0.199053
     79          1           0        8.585432    3.715126    1.501013
     80          1           0       -7.910229   -3.451209    0.252957
     81          1           0       -8.231987   -3.214149   -1.568183
     82          1           0       -6.629140   -3.101844   -0.822772
     83          1           0        6.737342    0.691758   -0.249710
     84          1           0       -6.459000    0.502095   -0.432332
     85          1           0        5.507680    3.019537    0.488491
     86          1           0       -4.873277   -2.093780   -0.737306
     87          1           0        4.447591    0.565426   -0.464121
     88          1           0       -4.029962    0.885129   -0.195022
     89          1           0        3.384392    3.375980    1.350384
     90          1           0        1.624396    2.957786    0.901613
     91          1           0        2.869948    3.982982   -0.109675
     92          1           0       -2.787008   -3.048525   -0.087175
     93          1           0       -3.106175   -2.450725   -1.557078
     94          1           0       -1.207006   -2.362259   -1.112888
     95          1           0        2.405788   -0.184070   -0.555182
     96          1           0       -1.993874    1.214511   -0.168070
     97          1           0        0.282228    2.141817    0.260722
     98          1           0        0.308008   -0.735516   -0.995005
 ---------------------------------------------------------------------

 SCF Done:  E(RCAM-B3LYP) =  -1706.91814581     A.U. after   14 cycles

 Excitation energies and oscillator strengths:

 Excited State   1:      Singlet-A      2.8513 eV  434.83 nm  f=3.6888  <S**2>=0.000
     155 ->158         0.18859
     156 ->157         0.67030
 This state for optimization and/or second-order correction.
 Total Energy, E(TD-HF/TD-DFT) =  -1706.81336184
 Copying the excited state density for this state as the 1-particle RhoCI density.

 The electronic state is 1-A.
 Alpha  occ. eigenvalues --  -19.21653 -19.21579 -10.32390 -10.31975 -10.28289
 Alpha  occ. eigenvalues --  -10.27813 -10.27647 -10.27596 -10.27436 -10.27374
 Alpha  occ. eigenvalues --  -10.27274 -10.27246 -10.27220 -10.27069 -10.26962
 Alpha  occ. eigenvalues --  -10.26843 -10.26794 -10.26645 -10.26638 -10.26611
 Alpha  occ. eigenvalues --  -10.26516 -10.26460 -10.26271 -10.26087 -10.25976
 Alpha  occ. eigenvalues --  -10.25955 -10.25869 -10.25635 -10.25619 -10.25408
 Alpha  occ. eigenvalues --  -10.25317 -10.25162 -10.25028 -10.24940 -10.24781
 Alpha  occ. eigenvalues --  -10.24541 -10.24484 -10.24411 -10.24286 -10.23619
 Alpha  occ. eigenvalues --  -10.23589 -10.22900  -1.09430  -1.08964  -0.94396
 Alpha  occ. eigenvalues --   -0.93217  -0.92785  -0.91470  -0.90625  -0.89665
 Alpha  occ. eigenvalues --   -0.87393  -0.87223  -0.86983  -0.85871  -0.84913
 Alpha  occ. eigenvalues --   -0.83168  -0.81835  -0.80406  -0.80215  -0.77801
 Alpha  occ. eigenvalues --   -0.77379  -0.76482  -0.76198  -0.76166  -0.75830
 Alpha  occ. eigenvalues --   -0.75356  -0.74924  -0.74357  -0.74183  -0.70933
 Alpha  occ. eigenvalues --   -0.68954  -0.67633  -0.66267  -0.64769  -0.64500
 Alpha  occ. eigenvalues --   -0.63831  -0.62823  -0.62389  -0.61766  -0.60842
 Alpha  occ. eigenvalues --   -0.59880  -0.58553  -0.58228  -0.57815  -0.56454
 Alpha  occ. eigenvalues --   -0.55960  -0.55208  -0.54669  -0.53804  -0.53590
 Alpha  occ. eigenvalues --   -0.53288  -0.52685  -0.52233  -0.51865  -0.51454
 Alpha  occ. eigenvalues --   -0.50980  -0.50638  -0.50293  -0.50042  -0.49755
 Alpha  occ. eigenvalues --   -0.49085  -0.48849  -0.48576  -0.48067  -0.47830
 Alpha  occ. eigenvalues --   -0.47461  -0.47106  -0.46868  -0.46456  -0.46331
 Alpha  occ. eigenvalues --   -0.45969  -0.45669  -0.45232  -0.45040  -0.44801
 Alpha  occ. eigenvalues --   -0.44654  -0.44291  -0.44175  -0.43709  -0.43681
 Alpha  occ. eigenvalues --   -0.43563  -0.43188  -0.42975  -0.42913  -0.42767
 Alpha  occ. eigenvalues --   -0.41678  -0.41544  -0.41334  -0.41130  -0.40562
 Alpha  occ. eigenvalues --   -0.40380  -0.40030  -0.39768  -0.39503  -0.39357
 Alpha  occ. eigenvalues --   -0.38740  -0.38629  -0.38286  -0.37981  -0.37646
 Alpha  occ. eigenvalues --   -0.37629  -0.37248  -0.36572  -0.36295  -0.36056
 Alpha  occ. eigenvalues --   -0.34573  -0.33781  -0.33454  -0.32552  -0.32002
 Alpha  occ. eigenvalues --   -0.31659  -0.30419  -0.27763  -0.26442  -0.23575
 Alpha  occ. eigenvalues --   -0.21213
 Alpha virt. eigenvalues --   -0.04119  -0.00571   0.03090   0.05179   0.07470
 Alpha virt. eigenvalues --    0.09755   0.11083   0.11393   0.11674   0.12727
 Alpha virt. eigenvalues --    0.13107   0.13230   0.13313   0.13501   0.13824

 Mulliken charges:
               1
     1  O   -0.549212
     2  O   -0.568152
     3  C   -0.060168
     4  C   -0.014599
     5  C   -0.188586
     6  C   -0.176985
     7  C    0.138970
     8  C    0.199805
     9  C    0.077467
    10  C    0.090411
    11  C   -0.236347
    12  C   -0.232319
    13  C    0.066408
    14  C    0.018517
    15  C   -0.289937
    16  C   -0.270951
    17  C   -0.309768
    18  C   -0.311157
    19  C   -0.078608
    20  C   -0.127702
    21  C   -0.360091
    22  C   -0.339485
    23  C   -0.101764
    24  C   -0.105439
    25  C    0.009461
    26  C    0.092449
    27  C   -0.346911
    28  C   -0.372993
    29  C   -0.042726
    30  C   -0.100129
    31  C   -0.086427
    32  C   -0.100934
    33  C   -0.096276
    34  C   -0.109648
    35  C    0.089723
    36  C    0.136738
    37  C   -0.349754
    38  C   -0.356162
    39  C   -0.149489
    40  C   -0.155724
    41  C   -0.082192
    42  C   -0.096102
    43  H    0.112733
    44  H    0.081372
    45  H    0.094385
    46  H    0.051351
    47  H    0.077171
    48  H    0.048553
    49  H    0.130192
    50  H    0.098272
    51  H    0.104746
    52  H    0.116933
    53  H    0.096109
    54  H    0.094185
    55  H    0.093287
    56  H    0.100340
    57  H    0.101854
    58  H    0.070874
    59  H    0.111774
    60  H    0.105330
    61  H    0.080033
    62  H    0.089181
    63  H    0.111902
    64  H    0.118912
    65  H    0.088467
    66  H    0.080961
    67  H    0.101704
    68  H    0.113515
    69  H    0.118425
    70  H    0.111838
    71  H    0.094769
    72  H    0.122517
    73  H    0.304106
    74  H    0.307683
    75  H    0.083761
    76  H    0.086016
    77  H    0.104753
    78  H    0.122380
    79  H    0.135312
    80  H    0.115398
    81  H    0.122605
    82  H    0.105559
    83  H    0.061178
    84  H    0.081287
    85  H    0.046124
    86  H    0.084964
    87  H    0.058197
    88  H    0.094705
    89  H    0.128823
    90  H    0.100782
    91  H    0.122371
    92  H    0.089926
    93  H    0.141305
    94  H    0.075631
    95  H    0.089196
    96  H    0.077481
    97  H    0.091538
    98  H    0.094023
 Sum of Mulliken charges =  -0.00000

 Dipole moment (field-independent basis, Debye):
    X=              0.0200    Y=             -1.4539    Z=              1.8212  Tot=              2.3304
 Quadrupole moment (field-independent basis, Debye-Ang):
   XX=           -260.0710   YY=           -246.4554   ZZ=           -261.3491
   XY=              9.3229   XZ=              0.9819   YZ=             -0.9869

 Normal termination of Gaussian 16 at Fri Jun 28 07:36:02 2019.
