 Gaussian 16, Revision A.03,
 Gaussian 16:  ES64L-G16RevA.03 25-Dec-2016

 -------------------------------------
 # td=(NStates=1) CAM-B3LYP/6-31G(d,p)
 -------------------------------------

 --
 TD
 --
 Symbolic Z-matrix:
 Charge =  0 Multiplicity = 1

                         Standard orientation:
 ---------------------------------------------------------------------
 Center     Atomic      Atomic             Coordinates (Angstroms)
 Number     Number       Type             X           Y           Z
 ---------------------------------------------------------------------
      1          8           0       14.685320   -2.237300   -0.642267
      2          8           0      -14.898418    1.969802    0.559856
      3          6           0       11.578581   -0.998218    1.335694
      4          6           0      -12.382078   -0.891728    0.897958
      5          6           0       13.070937   -1.295878    1.076043
      6          6           0      -13.693553   -0.174955    0.778508
      7          6           0       13.306471   -1.906836   -0.328787
      8          6           0      -13.590682    1.328266    0.682617
      9          6           0       10.980928   -0.309475    0.029866
     10          6           0      -11.361144   -0.288096   -0.085680
     11          6           0       12.832430   -0.982829   -1.493018
     12          6           0      -12.787877    1.674574   -0.507581
     13          6           0       11.483142   -0.369034   -1.221833
     14          6           0      -11.587353    0.834135   -0.789726
     15          6           0       11.484303   -0.025492    2.540877
     16          6           0       10.857258   -2.287072    1.651187
     17          6           0      -11.689594   -0.777596    2.302729
     18          6           0      -12.587668   -2.472548    0.573793
     19          6           0        9.741056    0.381928    0.326069
     20          6           0       -9.974343   -1.015467   -0.361512
     21          6           0       10.970711    0.275440   -2.396482
     22          6           0      -10.754688    1.486371   -1.880467
     23          6           0        9.351205    1.605425   -0.044467
     24          6           0       -8.788718   -0.548447   -0.233860
     25          6           0        8.066918    2.192148    0.163779
     26          6           0       -7.569997   -1.281733   -0.544212
     27          6           0        8.072495    3.681735    0.270646
     28          6           0       -7.727760   -2.732768   -0.637078
     29          6           0        6.880910    1.487830    0.007417
     30          6           0       -6.366010   -0.624087   -0.362265
     31          6           0        5.513404    2.060377    0.195637
     32          6           0       -5.044438   -1.167288   -0.521473
     33          6           0        4.451847    1.282740    0.026736
     34          6           0       -3.960165   -0.461368   -0.395344
     35          6           0        3.075941    1.619693    0.103751
     36          6           0       -2.545831   -0.800327   -0.493073
     37          6           0        2.812973    3.173732    0.330338
     38          6           0       -2.306399   -2.196630   -1.079281
     39          6           0        2.090396    0.675608   -0.029105
     40          6           0       -1.734529    0.083871   -0.269413
     41          6           0        0.672483    0.908885   -0.064096
     42          6           0       -0.254754   -0.041694   -0.309009
     43          1           0       13.632258   -0.427900    1.092640
     44          1           0       13.294553   -2.028445    1.892413
     45          1           0      -14.370432   -0.364606    1.510051
     46          1           0      -13.994236   -0.620527   -0.243557
     47          1           0       12.751945   -2.833502   -0.310603
     48          1           0      -13.085177    1.545495    1.676753
     49          1           0       13.505242   -0.197054   -1.440327
     50          1           0       12.667998   -1.641803   -2.554462
     51          1           0      -13.593008    1.500116   -1.379336
     52          1           0      -12.558546    2.728004   -0.603805
     53          1           0       12.022280   -0.686299    3.302613
     54          1           0       10.300513   -0.056538    3.038371
     55          1           0       11.977758    1.064344    2.327586
     56          1           0       10.958446   -2.865309    0.839146
     57          1           0       11.173164   -2.931891    2.416872
     58          1           0        9.778558   -1.958359    1.746893
     59          1           0      -11.629730    0.256234    2.747644
     60          1           0      -10.603472   -1.189323    2.154393
     61          1           0      -12.415111   -1.199437    3.090913
     62          1           0      -13.676110   -2.700573    0.977403
     63          1           0      -11.832207   -3.078398    0.951661
     64          1           0      -12.685282   -2.535839   -0.528151
     65          1           0        8.895569   -0.196942    0.968072
     66          1           0      -10.100193   -2.155928   -0.441565
     67          1           0       10.036382    0.905175   -2.083881
     68          1           0       11.707891    1.058708   -2.839812
     69          1           0       10.820700   -0.558561   -3.069225
     70          1           0      -11.507904    1.341970   -2.762015
     71          1           0       -9.853298    0.926711   -2.201863
     72          1           0      -10.344542    2.560467   -1.611747
     73          1           0       14.937769   -2.956637    0.100668
     74          1           0      -15.291792    1.957931    1.433410
     75          1           0       10.088205    2.522798   -0.319727
     76          1           0       -8.542474    0.294040    0.012133
     77          1           0        8.861494    4.152580   -0.225050
     78          1           0        7.151571    4.321436    0.166397
     79          1           0        8.432917    4.076355    1.426803
     80          1           0       -8.223392   -3.308207    0.290283
     81          1           0       -8.360356   -3.113086   -1.586832
     82          1           0       -6.853962   -3.405310   -0.686611
     83          1           0        6.992901    0.567788   -0.333488
     84          1           0       -6.524571    0.529336   -0.282082
     85          1           0        5.498764    3.084785    0.675892
     86          1           0       -4.990509   -2.085767   -1.012544
     87          1           0        4.703745    0.224632   -0.284610
     88          1           0       -4.138264    0.494631   -0.154549
     89          1           0        3.273476    3.291896    1.354140
     90          1           0        1.774046    3.565025    0.086527
     91          1           0        3.545813    3.741814   -0.365721
     92          1           0       -3.009109   -2.977416   -0.477140
     93          1           0       -2.445212   -2.210734   -2.157554
     94          1           0       -1.203279   -2.588790   -0.766421
     95          1           0        2.599562   -0.424848   -0.098880
     96          1           0       -1.902421    1.181976   -0.025138
     97          1           0        0.417642    1.902036    0.347140
     98          1           0        0.117356   -0.977423   -0.596118
 ---------------------------------------------------------------------

 SCF Done:  E(RCAM-B3LYP) =  -1706.95819049     A.U. after   13 cycles

 Excitation energies and oscillator strengths:

 Excited State   1:      Singlet-A      3.0833 eV  402.11 nm  f=3.4197  <S**2>=0.000
     155 ->158        -0.19172
     156 ->157         0.66792
 This state for optimization and/or second-order correction.
 Total Energy, E(TD-HF/TD-DFT) =  -1706.84488008
 Copying the excited state density for this state as the 1-particle RhoCI density.

 The electronic state is 1-A.
 Alpha  occ. eigenvalues --  -19.21909 -19.21230 -10.30455 -10.30370 -10.28079
 Alpha  occ. eigenvalues --  -10.27940 -10.27843 -10.27836 -10.27559 -10.27325
 Alpha  occ. eigenvalues --  -10.27312 -10.27047 -10.27000 -10.26949 -10.26933
 Alpha  occ. eigenvalues --  -10.26899 -10.26768 -10.26662 -10.26606 -10.26551
 Alpha  occ. eigenvalues --  -10.26489 -10.26376 -10.26328 -10.26147 -10.26022
 Alpha  occ. eigenvalues --  -10.25987 -10.25927 -10.25913 -10.25905 -10.25866
 Alpha  occ. eigenvalues --  -10.25848 -10.25645 -10.25636 -10.25336 -10.25194
 Alpha  occ. eigenvalues --  -10.24998 -10.24990 -10.24953 -10.24386 -10.24122
 Alpha  occ. eigenvalues --  -10.23838 -10.23146  -1.08537  -1.07060  -0.93827
 Alpha  occ. eigenvalues --   -0.93455  -0.93187  -0.91617  -0.91283  -0.90136
 Alpha  occ. eigenvalues --   -0.88437  -0.87702  -0.86310  -0.85851  -0.84324
 Alpha  occ. eigenvalues --   -0.83347  -0.81859  -0.80282  -0.79969  -0.77447
 Alpha  occ. eigenvalues --   -0.76826  -0.76092  -0.76045  -0.75480  -0.75347
 Alpha  occ. eigenvalues --   -0.75174  -0.75054  -0.74632  -0.74371  -0.70582
 Alpha  occ. eigenvalues --   -0.68545  -0.67186  -0.65697  -0.64792  -0.63481
 Alpha  occ. eigenvalues --   -0.63135  -0.62609  -0.61598  -0.60927  -0.60442
 Alpha  occ. eigenvalues --   -0.59960  -0.58758  -0.58567  -0.57251  -0.56202
 Alpha  occ. eigenvalues --   -0.55105  -0.54634  -0.54371  -0.54198  -0.53529
 Alpha  occ. eigenvalues --   -0.53299  -0.52914  -0.52199  -0.51951  -0.51464
 Alpha  occ. eigenvalues --   -0.50477  -0.49864  -0.49711  -0.49531  -0.49284
 Alpha  occ. eigenvalues --   -0.49035  -0.48497  -0.48425  -0.47964  -0.47451
 Alpha  occ. eigenvalues --   -0.47182  -0.46927  -0.46791  -0.46506  -0.46344
 Alpha  occ. eigenvalues --   -0.45689  -0.45279  -0.44989  -0.44967  -0.44599
 Alpha  occ. eigenvalues --   -0.44525  -0.44347  -0.44057  -0.43504  -0.43302
 Alpha  occ. eigenvalues --   -0.43148  -0.42877  -0.42530  -0.42196  -0.42096
 Alpha  occ. eigenvalues --   -0.41565  -0.41322  -0.41151  -0.40650  -0.40569
 Alpha  occ. eigenvalues --   -0.40353  -0.39867  -0.39782  -0.39695  -0.39471
 Alpha  occ. eigenvalues --   -0.39119  -0.38550  -0.38120  -0.37889  -0.37370
 Alpha  occ. eigenvalues --   -0.37285  -0.37056  -0.37008  -0.36268  -0.35997
 Alpha  occ. eigenvalues --   -0.35909  -0.34992  -0.33865  -0.32896  -0.32017
 Alpha  occ. eigenvalues --   -0.31919  -0.29703  -0.28257  -0.26862  -0.24330
 Alpha  occ. eigenvalues --   -0.21844
 Alpha virt. eigenvalues --   -0.03478  -0.00167   0.02926   0.06523   0.07956
 Alpha virt. eigenvalues --    0.09574   0.10667   0.11203   0.11860   0.12159
 Alpha virt. eigenvalues --    0.12207   0.12545   0.12749   0.12880   0.13274

 Mulliken charges:
               1
     1  O   -0.565957
     2  O   -0.558462
     3  C   -0.021137
     4  C   -0.004735
     5  C   -0.186954
     6  C   -0.172520
     7  C    0.152441
     8  C    0.153780
     9  C    0.049007
    10  C    0.021996
    11  C   -0.199586
    12  C   -0.212893
    13  C    0.058537
    14  C    0.070509
    15  C   -0.268125
    16  C   -0.298630
    17  C   -0.302271
    18  C   -0.308823
    19  C   -0.125698
    20  C   -0.172383
    21  C   -0.347383
    22  C   -0.347621
    23  C   -0.125996
    24  C    0.020742
    25  C    0.115845
    26  C    0.124594
    27  C   -0.380683
    28  C   -0.387562
    29  C   -0.113576
    30  C   -0.152832
    31  C   -0.087731
    32  C   -0.088009
    33  C   -0.105632
    34  C   -0.082705
    35  C    0.110812
    36  C    0.148018
    37  C   -0.371388
    38  C   -0.366618
    39  C   -0.136065
    40  C   -0.122577
    41  C   -0.096988
    42  C   -0.086526
    43  H    0.104849
    44  H    0.076405
    45  H    0.080021
    46  H    0.088908
    47  H    0.076858
    48  H    0.072195
    49  H    0.136166
    50  H    0.086027
    51  H    0.100995
    52  H    0.108136
    53  H    0.092747
    54  H    0.072872
    55  H    0.100716
    56  H    0.115328
    57  H    0.106008
    58  H    0.096301
    59  H    0.094946
    60  H    0.107264
    61  H    0.084418
    62  H    0.091453
    63  H    0.116320
    64  H    0.109786
    65  H    0.084750
    66  H    0.078461
    67  H    0.112298
    68  H    0.107175
    69  H    0.114453
    70  H    0.109477
    71  H    0.114859
    72  H    0.104759
    73  H    0.301930
    74  H    0.304969
    75  H    0.079141
    76  H    0.037760
    77  H    0.126888
    78  H    0.115530
    79  H    0.069107
    80  H    0.104771
    81  H    0.100782
    82  H    0.108074
    83  H    0.071260
    84  H    0.077709
    85  H    0.089140
    86  H    0.086333
    87  H    0.082072
    88  H    0.064473
    89  H    0.128160
    90  H    0.112743
    91  H    0.113372
    92  H    0.103539
    93  H    0.141949
    94  H    0.094728
    95  H    0.071241
    96  H    0.082638
    97  H    0.085964
    98  H    0.072558
 Sum of Mulliken charges =  -0.00000

 Dipole moment (field-independent basis, Debye):
    X=              0.9652    Y=             -1.1618    Z=              2.0633  Tot=              2.5571
 Quadrupole moment (field-independent basis, Debye-Ang):
   XX=           -283.9761   YY=           -243.8718   ZZ=           -262.4148
   XY=              3.7703   XZ=             -2.8793   YZ=              0.9297

 Normal termination of Gaussian 16 at Thu Jun 27 02:40:53 2019.
