 Gaussian 16, Revision A.03,
 Gaussian 16:  ES64L-G16RevA.03 25-Dec-2016

 -------------------------------------
 # td=(NStates=1) CAM-B3LYP/6-31G(d,p)
 -------------------------------------

 --
 TD
 --
 Symbolic Z-matrix:
 Charge =  0 Multiplicity = 1

                         Standard orientation:
 ---------------------------------------------------------------------
 Center     Atomic      Atomic             Coordinates (Angstroms)
 Number     Number       Type             X           Y           Z
 ---------------------------------------------------------------------
      1          8           0       14.589747   -2.260199   -0.405063
      2          8           0      -14.731947    1.983958    0.668784
      3          6           0       11.376378   -1.176560    1.267834
      4          6           0      -12.249394   -0.892570    0.825988
      5          6           0       12.832600   -1.411524    1.058354
      6          6           0      -13.574241   -0.160950    0.717629
      7          6           0       13.168843   -1.986631   -0.247642
      8          6           0      -13.460100    1.416258    0.623166
      9          6           0       10.824871   -0.372615   -0.031394
     10          6           0      -11.256670   -0.228568   -0.175914
     11          6           0       12.846760   -0.958433   -1.256880
     12          6           0      -12.805689    1.760247   -0.642164
     13          6           0       11.513362   -0.386793   -1.204018
     14          6           0      -11.482657    0.971248   -0.773302
     15          6           0       11.219839   -0.307499    2.507579
     16          6           0       10.512492   -2.436717    1.405672
     17          6           0      -11.703005   -0.791629    2.272532
     18          6           0      -12.660853   -2.347072    0.428497
     19          6           0        9.553998    0.353538    0.145819
     20          6           0      -10.038023   -1.062118   -0.446520
     21          6           0       11.134007    0.381683   -2.464030
     22          6           0      -10.472062    1.500023   -1.723135
     23          6           0        9.321659    1.689608   -0.083085
     24          6           0       -8.805626   -0.627088   -0.338895
     25          6           0        8.101220    2.383810    0.180293
     26          6           0       -7.612236   -1.412571   -0.414444
     27          6           0        8.136354    3.894705    0.512382
     28          6           0       -7.585517   -2.885643   -0.665886
     29          6           0        6.940693    1.709670    0.022193
     30          6           0       -6.384406   -0.821068   -0.230909
     31          6           0        5.521746    2.160431    0.256529
     32          6           0       -5.028241   -1.201168   -0.489378
     33          6           0        4.415802    1.399206   -0.114116
     34          6           0       -3.988238   -0.539927   -0.279410
     35          6           0        3.027507    1.736386    0.022035
     36          6           0       -2.529275   -0.916850   -0.581626
     37          6           0        2.779847    3.233118    0.580773
     38          6           0       -2.258655   -2.308431   -0.823809
     39          6           0        2.064640    0.926829   -0.239814
     40          6           0       -1.548448    0.022570   -0.349267
     41          6           0        0.630797    1.036602   -0.118569
     42          6           0       -0.063390   -0.056785   -0.498273
     43          1           0       13.472465   -0.493609    1.351794
     44          1           0       13.118858   -2.155514    1.736249
     45          1           0      -14.098670   -0.331702    1.581359
     46          1           0      -14.107714   -0.558763   -0.186744
     47          1           0       12.584001   -2.759564   -0.440217
     48          1           0      -12.872795    1.705317    1.432384
     49          1           0       13.511421   -0.089619   -1.140797
     50          1           0       13.403026   -1.304909   -2.304011
     51          1           0      -13.337663    1.354402   -1.633838
     52          1           0      -12.810252    2.883323   -0.762695
     53          1           0       11.856115   -0.727363    3.481607
     54          1           0       10.244053   -0.083590    2.905036
     55          1           0       11.739729    0.494505    2.227935
     56          1           0       10.212323   -3.204499    0.537729
     57          1           0       10.912446   -2.943866    2.269181
     58          1           0        9.483662   -2.016820    1.846598
     59          1           0      -11.594048    0.189075    2.719772
     60          1           0      -10.909972   -1.748561    2.317368
     61          1           0      -12.345598   -1.347041    2.872440
     62          1           0      -13.220466   -2.789391    1.305149
     63          1           0      -11.492409   -3.003649    0.253095
     64          1           0      -12.904903   -2.630102   -0.523044
     65          1           0        8.870804   -0.063863    0.652396
     66          1           0      -10.201826   -2.217182   -0.583652
     67          1           0       10.092605    0.972415   -2.310057
     68          1           0       11.871495    1.071069   -3.026591
     69          1           0       10.973151   -0.310933   -3.232511
     70          1           0      -10.989696    1.902852   -2.644936
     71          1           0       -9.544996    1.002946   -1.949534
     72          1           0      -10.089168    2.349180   -1.116446
     73          1           0       14.909446   -3.124600    0.162961
     74          1           0      -14.843884    2.141195    1.830495
     75          1           0       10.355865    2.230087   -0.443089
     76          1           0       -8.622801    0.402316    0.026072
     77          1           0        8.837688    4.276784   -0.206542
     78          1           0        7.099266    4.308411    0.429326
     79          1           0        8.573216    3.812446    1.552012
     80          1           0       -7.905258   -3.324158    0.551482
     81          1           0       -8.562535   -3.261914   -1.341717
     82          1           0       -6.605906   -3.293542   -1.073040
     83          1           0        6.950606    0.799999   -0.619469
     84          1           0       -6.334506    0.171839    0.176297
     85          1           0        5.258922    3.128338    0.610407
     86          1           0       -4.943808   -2.243254   -0.705168
     87          1           0        4.504833    0.391829   -0.624266
     88          1           0       -4.293028    0.526813   -0.183477
     89          1           0        3.208793    3.277829    1.695329
     90          1           0        1.650279    3.348829    0.757687
     91          1           0        3.036146    4.275529   -0.059995
     92          1           0       -2.472219   -2.973805   -0.019752
     93          1           0       -2.697318   -2.697691   -1.786417
     94          1           0       -1.189812   -2.551291   -1.094843
     95          1           0        2.414946   -0.111243   -0.581825
     96          1           0       -1.962604    1.004167    0.033422
     97          1           0        0.258294    1.918842    0.206801
     98          1           0        0.186867   -1.088707   -0.846260
 ---------------------------------------------------------------------

 SCF Done:  E(RCAM-B3LYP) =  -1706.89379283     A.U. after   14 cycles

 Excitation energies and oscillator strengths:

 Excited State   1:      Singlet-A      3.0460 eV  407.03 nm  f=3.5197  <S**2>=0.000
     155 ->158         0.21986
     156 ->157         0.65906
 This state for optimization and/or second-order correction.
 Total Energy, E(TD-HF/TD-DFT) =  -1706.78185317
 Copying the excited state density for this state as the 1-particle RhoCI density.

 The electronic state is 1-A.
 Alpha  occ. eigenvalues --  -19.23032 -19.21822 -10.29559 -10.29185 -10.28584
 Alpha  occ. eigenvalues --  -10.28535 -10.27973 -10.27748 -10.27727 -10.27449
 Alpha  occ. eigenvalues --  -10.27190 -10.26880 -10.26866 -10.26862 -10.26822
 Alpha  occ. eigenvalues --  -10.26716 -10.26677 -10.26619 -10.26566 -10.26531
 Alpha  occ. eigenvalues --  -10.26518 -10.26423 -10.26391 -10.26156 -10.26060
 Alpha  occ. eigenvalues --  -10.25924 -10.25867 -10.25727 -10.25690 -10.25578
 Alpha  occ. eigenvalues --  -10.25544 -10.25442 -10.25325 -10.25254 -10.25089
 Alpha  occ. eigenvalues --  -10.24999 -10.24752 -10.24597 -10.24527 -10.24256
 Alpha  occ. eigenvalues --  -10.24192 -10.23512  -1.08431  -1.06580  -0.93997
 Alpha  occ. eigenvalues --   -0.93126  -0.92164  -0.91585  -0.90520  -0.89858
 Alpha  occ. eigenvalues --   -0.87659  -0.87461  -0.86973  -0.85639  -0.84881
 Alpha  occ. eigenvalues --   -0.83235  -0.81824  -0.80320  -0.79868  -0.77171
 Alpha  occ. eigenvalues --   -0.76282  -0.76206  -0.75611  -0.75458  -0.75396
 Alpha  occ. eigenvalues --   -0.74908  -0.74699  -0.74253  -0.73599  -0.70313
 Alpha  occ. eigenvalues --   -0.68815  -0.67390  -0.65919  -0.65244  -0.63826
 Alpha  occ. eigenvalues --   -0.63565  -0.62816  -0.61623  -0.60939  -0.59442
 Alpha  occ. eigenvalues --   -0.59286  -0.58777  -0.58540  -0.57120  -0.56068
 Alpha  occ. eigenvalues --   -0.55469  -0.54773  -0.54605  -0.53778  -0.53442
 Alpha  occ. eigenvalues --   -0.52968  -0.52416  -0.52362  -0.51766  -0.51160
 Alpha  occ. eigenvalues --   -0.50430  -0.50142  -0.49689  -0.49594  -0.49127
 Alpha  occ. eigenvalues --   -0.48881  -0.48644  -0.48277  -0.48213  -0.47662
 Alpha  occ. eigenvalues --   -0.47506  -0.47084  -0.46677  -0.46461  -0.46199
 Alpha  occ. eigenvalues --   -0.45849  -0.45592  -0.45380  -0.44919  -0.44525
 Alpha  occ. eigenvalues --   -0.44224  -0.43918  -0.43613  -0.43333  -0.42823
 Alpha  occ. eigenvalues --   -0.42729  -0.42524  -0.42093  -0.41750  -0.41413
 Alpha  occ. eigenvalues --   -0.41350  -0.41010  -0.40434  -0.40407  -0.40322
 Alpha  occ. eigenvalues --   -0.40094  -0.39786  -0.39623  -0.39496  -0.39300
 Alpha  occ. eigenvalues --   -0.38890  -0.38546  -0.38377  -0.37905  -0.37537
 Alpha  occ. eigenvalues --   -0.37131  -0.37105  -0.36696  -0.36573  -0.36020
 Alpha  occ. eigenvalues --   -0.35365  -0.34263  -0.33816  -0.32730  -0.31646
 Alpha  occ. eigenvalues --   -0.30544  -0.29291  -0.28040  -0.26307  -0.23625
 Alpha  occ. eigenvalues --   -0.21530
 Alpha virt. eigenvalues --   -0.03302  -0.00152   0.02780   0.06227   0.06472
 Alpha virt. eigenvalues --    0.07914   0.09717   0.10311   0.10383   0.11713
 Alpha virt. eigenvalues --    0.12224   0.12775   0.12919   0.13119   0.13474

 Mulliken charges:
               1
     1  O   -0.585340
     2  O   -0.545556
     3  C   -0.006413
     4  C   -0.009211
     5  C   -0.173749
     6  C   -0.162672
     7  C    0.187517
     8  C    0.167311
     9  C    0.005880
    10  C    0.040902
    11  C   -0.235628
    12  C   -0.209280
    13  C    0.091467
    14  C    0.042762
    15  C   -0.292959
    16  C   -0.296833
    17  C   -0.306113
    18  C   -0.288527
    19  C   -0.083638
    20  C   -0.128522
    21  C   -0.369876
    22  C   -0.357992
    23  C   -0.117503
    24  C   -0.077273
    25  C    0.060620
    26  C    0.130971
    27  C   -0.341913
    28  C   -0.345533
    29  C   -0.133880
    30  C   -0.151522
    31  C   -0.103577
    32  C   -0.027790
    33  C   -0.116084
    34  C   -0.125494
    35  C    0.140506
    36  C    0.101487
    37  C   -0.369220
    38  C   -0.392146
    39  C   -0.146730
    40  C   -0.134341
    41  C   -0.054133
    42  C   -0.067108
    43  H    0.096234
    44  H    0.075850
    45  H    0.073086
    46  H    0.097661
    47  H    0.095772
    48  H    0.081359
    49  H    0.126007
    50  H    0.081961
    51  H    0.108925
    52  H    0.103629
    53  H    0.066793
    54  H    0.111086
    55  H    0.124291
    56  H    0.100100
    57  H    0.103981
    58  H    0.087468
    59  H    0.113153
    60  H    0.088106
    61  H    0.107685
    62  H    0.107714
    63  H    0.017493
    64  H    0.135695
    65  H    0.070913
    66  H    0.076649
    67  H    0.103213
    68  H    0.105805
    69  H    0.123553
    70  H    0.098272
    71  H    0.132098
    72  H    0.109146
    73  H    0.303286
    74  H    0.295947
    75  H    0.077565
    76  H    0.090144
    77  H    0.128515
    78  H    0.115580
    79  H    0.124509
    80  H    0.083345
    81  H    0.088065
    82  H    0.122434
    83  H    0.091912
    84  H    0.058849
    85  H    0.086302
    86  H    0.057621
    87  H    0.071527
    88  H    0.069960
    89  H    0.110865
    90  H    0.091762
    91  H    0.103312
    92  H    0.139325
    93  H    0.114092
    94  H    0.096939
    95  H    0.073525
    96  H    0.075059
    97  H    0.094092
    98  H    0.098904
 Sum of Mulliken charges =  -0.00000

 Dipole moment (field-independent basis, Debye):
    X=             -0.4200    Y=             -0.9955    Z=              2.4853  Tot=              2.7100
 Quadrupole moment (field-independent basis, Debye-Ang):
   XX=           -274.9981   YY=           -243.2041   ZZ=           -257.2066
   XY=             -7.8506   XZ=             -8.6329   YZ=              4.4345

 Normal termination of Gaussian 16 at Fri Jul  5 05:46:56 2019.
