 Gaussian 16, Revision A.03,
 Gaussian 16:  ES64L-G16RevA.03 25-Dec-2016

 -------------------------------------
 # td=(NStates=1) CAM-B3LYP/6-31G(d,p)
 -------------------------------------

 --
 TD
 --
 Symbolic Z-matrix:
 Charge =  0 Multiplicity = 1

                         Standard orientation:
 ---------------------------------------------------------------------
 Center     Atomic      Atomic             Coordinates (Angstroms)
 Number     Number       Type             X           Y           Z
 ---------------------------------------------------------------------
      1          8           0       14.660783   -2.399108   -0.437379
      2          8           0      -14.849383    1.935659    0.466680
      3          6           0       11.463515   -1.047079    1.160927
      4          6           0      -12.368081   -1.001713    0.643025
      5          6           0       12.893953   -1.490006    1.027939
      6          6           0      -13.687962   -0.143488    0.618046
      7          6           0       13.292229   -2.014093   -0.332812
      8          6           0      -13.548786    1.375876    0.527537
      9          6           0       11.005585   -0.314831   -0.075891
     10          6           0      -11.312527   -0.384323   -0.269687
     11          6           0       13.086559   -0.918967   -1.305855
     12          6           0      -12.773110    1.704597   -0.681988
     13          6           0       11.768753   -0.336007   -1.131763
     14          6           0      -11.490944    0.878781   -0.735456
     15          6           0       11.405554   -0.187260    2.498481
     16          6           0       10.544930   -2.205697    1.212819
     17          6           0      -12.015315   -0.819160    2.119924
     18          6           0      -12.620493   -2.423004    0.367960
     19          6           0        9.683655    0.439357    0.152620
     20          6           0      -10.054220   -1.088656   -0.442078
     21          6           0       11.253914    0.388283   -2.313953
     22          6           0      -10.580467    1.529521   -1.818720
     23          6           0        9.456738    1.782443   -0.127049
     24          6           0       -8.813708   -0.511093   -0.250186
     25          6           0        8.066145    2.351572    0.150198
     26          6           0       -7.616643   -1.248070   -0.397739
     27          6           0        7.975888    3.793783    0.560821
     28          6           0       -7.647806   -2.764985   -0.652343
     29          6           0        6.944414    1.654185   -0.130606
     30          6           0       -6.458540   -0.579998   -0.081456
     31          6           0        5.554264    2.077302    0.146006
     32          6           0       -5.063089   -1.142163   -0.110376
     33          6           0        4.523766    1.293280   -0.163000
     34          6           0       -3.947998   -0.369400   -0.108064
     35          6           0        3.013973    1.638966    0.092576
     36          6           0       -2.642129   -0.810909   -0.319038
     37          6           0        2.879753    3.053810    0.639043
     38          6           0       -2.455488   -2.284315   -0.741904
     39          6           0        2.162900    0.624518   -0.161172
     40          6           0       -1.591207    0.132542   -0.169130
     41          6           0        0.704229    0.893104    0.020276
     42          6           0       -0.120726   -0.153624   -0.253487
     43          1           0       13.629125   -0.746377    1.017340
     44          1           0       13.365663   -2.177419    1.801345
     45          1           0      -14.399700   -0.179609    1.431740
     46          1           0      -14.505798   -0.346928   -0.149250
     47          1           0       12.492829   -2.860920   -0.656557
     48          1           0      -13.032181    1.844687    1.473117
     49          1           0       13.719645   -0.032627   -1.094449
     50          1           0       13.253594   -1.331491   -2.228903
     51          1           0      -13.335395    1.643119   -1.609136
     52          1           0      -12.539599    2.726274   -0.457110
     53          1           0       11.883092   -0.720507    3.325558
     54          1           0       10.397350    0.112543    2.900415
     55          1           0       12.011628    0.685086    2.613581
     56          1           0       10.727786   -2.855875    0.296611
     57          1           0       10.626721   -2.922056    1.930103
     58          1           0        9.575451   -1.856873    1.026989
     59          1           0      -11.877102    0.167639    2.437767
     60          1           0      -11.042645   -1.430733    2.520597
     61          1           0      -12.633648   -1.606456    2.889544
     62          1           0      -13.660967   -2.860307    1.014091
     63          1           0      -11.536999   -2.962189    0.563669
     64          1           0      -13.061414   -2.428519   -0.589106
     65          1           0        8.942551   -0.192202    0.537516
     66          1           0      -10.191934   -2.231283   -0.423254
     67          1           0       10.323681    0.898689   -2.393976
     68          1           0       11.686671    1.362311   -2.731580
     69          1           0       11.226905   -0.331143   -3.144305
     70          1           0      -11.235523    1.871893   -2.565372
     71          1           0       -9.840891    1.043895   -2.103928
     72          1           0      -10.175141    2.442015   -1.167266
     73          1           0       14.671154   -3.474998   -0.083090
     74          1           0      -15.427636    1.579097    1.151544
     75          1           0       10.159448    2.378634   -0.622395
     76          1           0       -8.922964    0.392111    0.062519
     77          1           0        8.423219    4.411712   -0.306473
     78          1           0        6.990333    4.294770    0.753295
     79          1           0        8.693604    3.825525    1.441759
     80          1           0       -8.247379   -3.208843    0.100433
     81          1           0       -8.090635   -2.719770   -1.640783
     82          1           0       -6.631489   -3.326173   -0.540277
     83          1           0        7.213426    0.663176   -0.483327
     84          1           0       -6.409806    0.471729    0.090414
     85          1           0        5.415724    3.082265    0.712902
     86          1           0       -5.009224   -2.077029   -0.366245
     87          1           0        4.567545    0.277830   -0.581896
     88          1           0       -4.027159    0.636303   -0.073956
     89          1           0        3.564334    3.112879    1.514102
     90          1           0        1.848022    3.258247    1.119439
     91          1           0        3.020034    3.826680   -0.094507
     92          1           0       -2.964136   -3.093642   -0.103749
     93          1           0       -2.651017   -2.501853   -1.861912
     94          1           0       -1.387144   -2.454033   -0.856539
     95          1           0        2.340145   -0.296061   -0.552795
     96          1           0       -1.875772    1.198997    0.001948
     97          1           0        0.127326    1.753808    0.232498
     98          1           0        0.096229   -1.266887   -0.699798
 ---------------------------------------------------------------------

 SCF Done:  E(RCAM-B3LYP) =  -1706.93615868     A.U. after   14 cycles

 Excitation energies and oscillator strengths:

 Excited State   1:      Singlet-A      2.9446 eV  421.06 nm  f=3.4145  <S**2>=0.000
     155 ->158         0.16614
     156 ->157         0.68014
 This state for optimization and/or second-order correction.
 Total Energy, E(TD-HF/TD-DFT) =  -1706.82794652
 Copying the excited state density for this state as the 1-particle RhoCI density.

 The electronic state is 1-A.
 Alpha  occ. eigenvalues --  -19.23209 -19.20764 -10.30614 -10.30308 -10.27983
 Alpha  occ. eigenvalues --  -10.27755 -10.27597 -10.27419 -10.27361 -10.27099
 Alpha  occ. eigenvalues --  -10.27016 -10.26994 -10.26942 -10.26907 -10.26902
 Alpha  occ. eigenvalues --  -10.26789 -10.26784 -10.26763 -10.26658 -10.26575
 Alpha  occ. eigenvalues --  -10.26481 -10.26304 -10.26174 -10.26041 -10.26033
 Alpha  occ. eigenvalues --  -10.25993 -10.25878 -10.25775 -10.25430 -10.25131
 Alpha  occ. eigenvalues --  -10.25129 -10.24781 -10.24765 -10.24591 -10.24503
 Alpha  occ. eigenvalues --  -10.24470 -10.24267 -10.24026 -10.23969 -10.23936
 Alpha  occ. eigenvalues --  -10.23712 -10.23197  -1.09396  -1.07844  -0.94964
 Alpha  occ. eigenvalues --   -0.93818  -0.91525  -0.90922  -0.90183  -0.89495
 Alpha  occ. eigenvalues --   -0.87881  -0.87330  -0.86801  -0.85250  -0.84783
 Alpha  occ. eigenvalues --   -0.82855  -0.81616  -0.79989  -0.79713  -0.77996
 Alpha  occ. eigenvalues --   -0.77378  -0.76916  -0.76266  -0.76070  -0.75978
 Alpha  occ. eigenvalues --   -0.75775  -0.75089  -0.74644  -0.73897  -0.70144
 Alpha  occ. eigenvalues --   -0.68694  -0.67159  -0.65304  -0.65032  -0.64351
 Alpha  occ. eigenvalues --   -0.63751  -0.63211  -0.62523  -0.61478  -0.60469
 Alpha  occ. eigenvalues --   -0.59069  -0.58803  -0.58163  -0.57699  -0.56102
 Alpha  occ. eigenvalues --   -0.55651  -0.55081  -0.54818  -0.54683  -0.54207
 Alpha  occ. eigenvalues --   -0.53429  -0.53215  -0.52385  -0.52037  -0.51889
 Alpha  occ. eigenvalues --   -0.50871  -0.50565  -0.49877  -0.49736  -0.49342
 Alpha  occ. eigenvalues --   -0.49159  -0.48975  -0.48813  -0.48311  -0.48106
 Alpha  occ. eigenvalues --   -0.48006  -0.47858  -0.47192  -0.47012  -0.46436
 Alpha  occ. eigenvalues --   -0.46185  -0.45991  -0.45499  -0.45177  -0.44766
 Alpha  occ. eigenvalues --   -0.44325  -0.44278  -0.44099  -0.43679  -0.43524
 Alpha  occ. eigenvalues --   -0.42592  -0.42518  -0.42101  -0.41842  -0.41788
 Alpha  occ. eigenvalues --   -0.41491  -0.41099  -0.40834  -0.40724  -0.40557
 Alpha  occ. eigenvalues --   -0.40275  -0.40186  -0.39647  -0.39608  -0.39332
 Alpha  occ. eigenvalues --   -0.39136  -0.38990  -0.38032  -0.37854  -0.37432
 Alpha  occ. eigenvalues --   -0.36968  -0.36924  -0.36530  -0.35517  -0.35272
 Alpha  occ. eigenvalues --   -0.35043  -0.34302  -0.33210  -0.31938  -0.31827
 Alpha  occ. eigenvalues --   -0.31761  -0.30042  -0.28515  -0.26490  -0.24186
 Alpha  occ. eigenvalues --   -0.20899
 Alpha virt. eigenvalues --   -0.03388   0.00353   0.02815   0.05664   0.08135
 Alpha virt. eigenvalues --    0.08426   0.09847   0.10655   0.11296   0.11537
 Alpha virt. eigenvalues --    0.12100   0.12767   0.13248   0.13735   0.13895

 Mulliken charges:
               1
     1  O   -0.560557
     2  O   -0.572608
     3  C    0.007474
     4  C    0.005276
     5  C   -0.179204
     6  C   -0.208129
     7  C    0.140482
     8  C    0.172701
     9  C    0.029822
    10  C    0.097412
    11  C   -0.191384
    12  C   -0.196080
    13  C    0.050812
    14  C   -0.032864
    15  C   -0.320979
    16  C   -0.292210
    17  C   -0.274008
    18  C   -0.285012
    19  C   -0.083583
    20  C   -0.163207
    21  C   -0.377726
    22  C   -0.302981
    23  C   -0.105586
    24  C   -0.039053
    25  C    0.053444
    26  C    0.067392
    27  C   -0.361107
    28  C   -0.353590
    29  C   -0.098201
    30  C   -0.127335
    31  C   -0.102911
    32  C   -0.077485
    33  C   -0.100027
    34  C   -0.083245
    35  C    0.107900
    36  C    0.109113
    37  C   -0.373840
    38  C   -0.371199
    39  C   -0.128276
    40  C   -0.162441
    41  C   -0.087767
    42  C   -0.073386
    43  H    0.108977
    44  H    0.071722
    45  H    0.073588
    46  H    0.086520
    47  H    0.051030
    48  H    0.064086
    49  H    0.125338
    50  H    0.114165
    51  H    0.126555
    52  H    0.112281
    53  H    0.095796
    54  H    0.096166
    55  H    0.108969
    56  H    0.086017
    57  H    0.105987
    58  H    0.104637
    59  H    0.113999
    60  H    0.064596
    61  H    0.072963
    62  H    0.067167
    63  H    0.091021
    64  H    0.119343
    65  H    0.102285
    66  H    0.072870
    67  H    0.118845
    68  H    0.089925
    69  H    0.098181
    70  H    0.114726
    71  H    0.112506
    72  H    0.087052
    73  H    0.307690
    74  H    0.304692
    75  H    0.099957
    76  H    0.079400
    77  H    0.106705
    78  H    0.111743
    79  H    0.114146
    80  H    0.129581
    81  H    0.133890
    82  H    0.103991
    83  H    0.073723
    84  H    0.074396
    85  H    0.084931
    86  H    0.056141
    87  H    0.081111
    88  H    0.068557
    89  H    0.129710
    90  H    0.096915
    91  H    0.138558
    92  H    0.118869
    93  H    0.115176
    94  H    0.098578
    95  H    0.095809
    96  H    0.083613
    97  H    0.096478
    98  H    0.082477
 Sum of Mulliken charges =  -0.00000

 Dipole moment (field-independent basis, Debye):
    X=              0.7105    Y=             -1.2277    Z=              0.7585  Tot=              1.6085
 Quadrupole moment (field-independent basis, Debye-Ang):
   XX=           -283.4814   YY=           -241.3684   ZZ=           -262.4095
   XY=              2.6146   XZ=             -3.4709   YZ=              2.7689

 Normal termination of Gaussian 16 at Mon Jul  1 11:40:19 2019.
