 Gaussian 16, Revision A.03,
 Gaussian 16:  ES64L-G16RevA.03 25-Dec-2016

 -------------------------------------
 # td=(NStates=1) CAM-B3LYP/6-31G(d,p)
 -------------------------------------

 --
 TD
 --
 Symbolic Z-matrix:
 Charge =  0 Multiplicity = 1

                         Standard orientation:
 ---------------------------------------------------------------------
 Center     Atomic      Atomic             Coordinates (Angstroms)
 Number     Number       Type             X           Y           Z
 ---------------------------------------------------------------------
      1          8           0       14.809287   -2.219762   -0.439887
      2          8           0      -14.986452    1.811967    0.501022
      3          6           0       11.532340   -1.122427    1.225748
      4          6           0      -12.400895   -0.946950    0.670537
      5          6           0       12.986325   -1.408073    1.059268
      6          6           0      -13.703175   -0.256066    0.510778
      7          6           0       13.415800   -1.908860   -0.336827
      8          6           0      -13.607334    1.210218    0.702295
      9          6           0       10.981043   -0.354567   -0.028761
     10          6           0      -11.349652   -0.248742   -0.164774
     11          6           0       13.054639   -0.892963   -1.335256
     12          6           0      -12.770819    1.776153   -0.409002
     13          6           0       11.639486   -0.217402   -1.082562
     14          6           0      -11.417064    0.966561   -0.663213
     15          6           0       11.426218   -0.185995    2.452406
     16          6           0       10.717861   -2.393391    1.337627
     17          6           0      -11.974808   -1.009074    2.077123
     18          6           0      -12.710792   -2.370520    0.276314
     19          6           0        9.593143    0.298461    0.202371
     20          6           0      -10.128254   -1.092827   -0.426988
     21          6           0       11.037647    0.324859   -2.305098
     22          6           0      -10.538161    1.636112   -1.596055
     23          6           0        9.416581    1.596535   -0.178585
     24          6           0       -8.880935   -0.652451   -0.277173
     25          6           0        8.067324    2.252772    0.016093
     26          6           0       -7.558481   -1.324819   -0.466300
     27          6           0        8.077392    3.729098    0.258727
     28          6           0       -7.576506   -2.767087   -0.886283
     29          6           0        6.934160    1.506341   -0.062490
     30          6           0       -6.474704   -0.595994   -0.196856
     31          6           0        5.563934    1.972547    0.205741
     32          6           0       -5.120991   -1.105681   -0.445247
     33          6           0        4.429818    1.115600   -0.025911
     34          6           0       -3.965768   -0.329617   -0.177025
     35          6           0        3.086020    1.636503    0.230620
     36          6           0       -2.573487   -0.646113   -0.331293
     37          6           0        2.898722    3.069962    0.678747
     38          6           0       -2.298470   -2.022388   -0.757341
     39          6           0        2.080756    0.762852   -0.134618
     40          6           0       -1.658258    0.213280   -0.096703
     41          6           0        0.643129    1.014895   -0.079153
     42          6           0       -0.281114   -0.028800   -0.288088
     43          1           0       13.639228   -0.399110    1.142723
     44          1           0       13.202473   -2.070036    1.786119
     45          1           0      -14.483266   -0.751377    1.346351
     46          1           0      -14.024273   -0.551885   -0.523176
     47          1           0       12.721705   -2.785851   -0.506889
     48          1           0      -13.219269    1.471743    1.646687
     49          1           0       13.795908    0.093119   -1.360717
     50          1           0       13.194529   -1.188638   -2.379495
     51          1           0      -13.363029    1.965393   -1.494714
     52          1           0      -12.451646    2.861029   -0.051214
     53          1           0       11.977370   -0.917877    3.228391
     54          1           0       10.386724    0.139090    2.706741
     55          1           0       12.014143    0.749059    2.110398
     56          1           0       10.911142   -2.842452    0.399415
     57          1           0       11.190374   -2.871621    2.049337
     58          1           0        9.774132   -2.027143    1.669472
     59          1           0      -12.073891    0.106257    2.498441
     60          1           0      -10.794803   -1.048878    2.121642
     61          1           0      -12.683707   -1.620348    2.794461
     62          1           0      -13.556232   -2.643107    1.033423
     63          1           0      -11.953107   -3.023432    0.365797
     64          1           0      -13.319127   -2.584212   -0.592370
     65          1           0        8.870742   -0.394892    0.616838
     66          1           0      -10.301655   -2.082696   -0.623068
     67          1           0        9.978896    0.552925   -2.401117
     68          1           0       11.693802    1.262882   -2.840432
     69          1           0       10.915435   -0.458380   -3.172262
     70          1           0      -10.932192    2.182269   -2.410047
     71          1           0       -9.666245    1.155126   -2.112136
     72          1           0       -9.800068    2.358225   -0.969850
     73          1           0       14.979414   -2.681739    0.329006
     74          1           0      -15.470930    1.573387    1.290681
     75          1           0       10.289096    2.197430   -0.483931
     76          1           0       -8.648516    0.359681    0.085669
     77          1           0        8.354377    4.293113   -0.790946
     78          1           0        7.066214    4.149583    0.706641
     79          1           0        8.714484    3.840586    1.160521
     80          1           0       -8.149958   -3.315196   -0.104475
     81          1           0       -8.021939   -2.781304   -1.964914
     82          1           0       -6.618153   -3.306601   -1.092134
     83          1           0        7.083243    0.397662   -0.255114
     84          1           0       -6.634543    0.311916    0.319424
     85          1           0        5.319892    3.044228    0.685599
     86          1           0       -5.192514   -2.063368   -0.778321
     87          1           0        4.457937    0.172733   -0.614466
     88          1           0       -4.218613    0.709570    0.348771
     89          1           0        3.401847    2.963732    1.785947
     90          1           0        1.850210    3.217566    0.880408
     91          1           0        3.646237    3.854613    0.211950
     92          1           0       -2.696389   -2.845134    0.031810
     93          1           0       -2.743906   -2.237310   -1.692460
     94          1           0       -1.235109   -2.187575   -1.034704
     95          1           0        2.321103   -0.263651   -0.382120
     96          1           0       -1.874161    1.188828    0.479247
     97          1           0        0.138803    1.983044   -0.205798
     98          1           0        0.099055   -1.160278   -0.400874
 ---------------------------------------------------------------------

 SCF Done:  E(RCAM-B3LYP) =  -1706.96955554     A.U. after   14 cycles

 Excitation energies and oscillator strengths:

 Excited State   1:      Singlet-A      2.7528 eV  450.40 nm  f=3.5244  <S**2>=0.000
     155 ->158         0.17110
     156 ->157         0.68171
 This state for optimization and/or second-order correction.
 Total Energy, E(TD-HF/TD-DFT) =  -1706.86839360
 Copying the excited state density for this state as the 1-particle RhoCI density.

 The electronic state is 1-A.
 Alpha  occ. eigenvalues --  -19.21479 -19.20190 -10.30953 -10.29980 -10.28162
 Alpha  occ. eigenvalues --  -10.27870 -10.27691 -10.27608 -10.27534 -10.27455
 Alpha  occ. eigenvalues --  -10.27275 -10.27206 -10.27049 -10.27006 -10.26941
 Alpha  occ. eigenvalues --  -10.26937 -10.26924 -10.26736 -10.26700 -10.26615
 Alpha  occ. eigenvalues --  -10.26537 -10.26437 -10.26435 -10.26375 -10.26373
 Alpha  occ. eigenvalues --  -10.26308 -10.26244 -10.26103 -10.26024 -10.25980
 Alpha  occ. eigenvalues --  -10.25825 -10.25729 -10.25720 -10.25611 -10.25566
 Alpha  occ. eigenvalues --  -10.25420 -10.25404 -10.25143 -10.25113 -10.24593
 Alpha  occ. eigenvalues --  -10.24052 -10.23248  -1.10905  -1.06550  -0.95101
 Alpha  occ. eigenvalues --   -0.94633  -0.92877  -0.91183  -0.90752  -0.89774
 Alpha  occ. eigenvalues --   -0.88027  -0.87943  -0.86179  -0.85317  -0.84810
 Alpha  occ. eigenvalues --   -0.82773  -0.81550  -0.80275  -0.79617  -0.78013
 Alpha  occ. eigenvalues --   -0.77823  -0.76979  -0.76463  -0.75834  -0.75485
 Alpha  occ. eigenvalues --   -0.75334  -0.75021  -0.74355  -0.73790  -0.70602
 Alpha  occ. eigenvalues --   -0.68444  -0.66998  -0.65532  -0.65038  -0.64543
 Alpha  occ. eigenvalues --   -0.63095  -0.62384  -0.61324  -0.60236  -0.59491
 Alpha  occ. eigenvalues --   -0.58576  -0.58285  -0.58177  -0.57224  -0.56484
 Alpha  occ. eigenvalues --   -0.56051  -0.55370  -0.54608  -0.54262  -0.53930
 Alpha  occ. eigenvalues --   -0.53205  -0.52988  -0.52298  -0.51982  -0.51788
 Alpha  occ. eigenvalues --   -0.50981  -0.50761  -0.49877  -0.49527  -0.49247
 Alpha  occ. eigenvalues --   -0.48948  -0.48769  -0.48685  -0.48585  -0.48383
 Alpha  occ. eigenvalues --   -0.48158  -0.47618  -0.47008  -0.46671  -0.46310
 Alpha  occ. eigenvalues --   -0.46004  -0.45798  -0.45565  -0.45032  -0.44869
 Alpha  occ. eigenvalues --   -0.44463  -0.44219  -0.43904  -0.43643  -0.43394
 Alpha  occ. eigenvalues --   -0.43241  -0.42358  -0.42116  -0.41975  -0.41449
 Alpha  occ. eigenvalues --   -0.41109  -0.40956  -0.40806  -0.40517  -0.40098
 Alpha  occ. eigenvalues --   -0.39986  -0.39963  -0.39545  -0.39140  -0.38934
 Alpha  occ. eigenvalues --   -0.38732  -0.38362  -0.38251  -0.38015  -0.37989
 Alpha  occ. eigenvalues --   -0.37664  -0.37467  -0.37273  -0.36982  -0.35603
 Alpha  occ. eigenvalues --   -0.35113  -0.34461  -0.33401  -0.32499  -0.32378
 Alpha  occ. eigenvalues --   -0.31992  -0.30187  -0.28913  -0.27053  -0.24182
 Alpha  occ. eigenvalues --   -0.20744
 Alpha virt. eigenvalues --   -0.04127  -0.00106   0.03240   0.06120   0.08126
 Alpha virt. eigenvalues --    0.10080   0.10935   0.11152   0.11340   0.11881
 Alpha virt. eigenvalues --    0.11998   0.12381   0.12650   0.13282   0.13423

 Mulliken charges:
               1
     1  O   -0.539372
     2  O   -0.570479
     3  C   -0.068737
     4  C   -0.005686
     5  C   -0.191067
     6  C   -0.162880
     7  C    0.170458
     8  C    0.150080
     9  C    0.054611
    10  C    0.056815
    11  C   -0.206502
    12  C   -0.214322
    13  C    0.068242
    14  C    0.077457
    15  C   -0.271353
    16  C   -0.269742
    17  C   -0.288049
    18  C   -0.293454
    19  C   -0.114661
    20  C   -0.144401
    21  C   -0.367207
    22  C   -0.375982
    23  C   -0.105497
    24  C   -0.080576
    25  C    0.074821
    26  C    0.112715
    27  C   -0.355505
    28  C   -0.375604
    29  C   -0.111599
    30  C   -0.128664
    31  C   -0.115124
    32  C   -0.072543
    33  C   -0.111851
    34  C   -0.140210
    35  C    0.128427
    36  C    0.163919
    37  C   -0.369325
    38  C   -0.373063
    39  C   -0.143366
    40  C   -0.130297
    41  C   -0.113953
    42  C   -0.100477
    43  H    0.087253
    44  H    0.079847
    45  H    0.044315
    46  H    0.109124
    47  H    0.068259
    48  H    0.102858
    49  H    0.083941
    50  H    0.117233
    51  H    0.104338
    52  H    0.089603
    53  H    0.074976
    54  H    0.104322
    55  H    0.104238
    56  H    0.112450
    57  H    0.099827
    58  H    0.107440
    59  H    0.069347
    60  H    0.109115
    61  H    0.099502
    62  H    0.081419
    63  H    0.105728
    64  H    0.106335
    65  H    0.100535
    66  H    0.083863
    67  H    0.130467
    68  H    0.069139
    69  H    0.087513
    70  H    0.122290
    71  H    0.122544
    72  H    0.091488
    73  H    0.300323
    74  H    0.297764
    75  H    0.108704
    76  H    0.074438
    77  H    0.112699
    78  H    0.095354
    79  H    0.124585
    80  H    0.127517
    81  H    0.114160
    82  H    0.112079
    83  H    0.081319
    84  H    0.079724
    85  H    0.076445
    86  H    0.068272
    87  H    0.094589
    88  H    0.069295
    89  H    0.104349
    90  H    0.122319
    91  H    0.129138
    92  H    0.106867
    93  H    0.127205
    94  H    0.099327
    95  H    0.085677
    96  H    0.089557
    97  H    0.097538
    98  H    0.085450
 Sum of Mulliken charges =  -0.00000

 Dipole moment (field-independent basis, Debye):
    X=              0.2274    Y=             -1.6313    Z=              2.1582  Tot=              2.7149
 Quadrupole moment (field-independent basis, Debye-Ang):
   XX=           -304.6534   YY=           -248.4799   ZZ=           -260.7999
   XY=             15.4365   XZ=              2.5224   YZ=              1.4557

 Normal termination of Gaussian 16 at Sun Jul  7 02:39:25 2019.
