 Gaussian 16, Revision A.03,
 Gaussian 16:  ES64L-G16RevA.03 25-Dec-2016

 -------------------------------------
 # td=(NStates=1) CAM-B3LYP/6-31G(d,p)
 -------------------------------------

 --
 TD
 --
 Symbolic Z-matrix:
 Charge =  0 Multiplicity = 1

                         Standard orientation:
 ---------------------------------------------------------------------
 Center     Atomic      Atomic             Coordinates (Angstroms)
 Number     Number       Type             X           Y           Z
 ---------------------------------------------------------------------
      1          8           0       14.701822   -2.370095   -0.310131
      2          8           0      -14.706029    2.182953    0.852895
      3          6           0       11.396771   -1.164977    1.185998
      4          6           0      -12.369889   -0.912990    0.845455
      5          6           0       12.950292   -1.437271    1.163715
      6          6           0      -13.687961   -0.082960    0.841722
      7          6           0       13.288712   -1.920496   -0.194236
      8          6           0      -13.555279    1.429974    0.801820
      9          6           0       10.927846   -0.224585   -0.007495
     10          6           0      -11.314867   -0.284538   -0.153866
     11          6           0       13.026586   -0.870754   -1.287060
     12          6           0      -12.691518    1.739800   -0.457250
     13          6           0       11.746484   -0.097552   -1.129242
     14          6           0      -11.513798    0.906878   -0.810311
     15          6           0       11.162223   -0.394850    2.489837
     16          6           0       10.685875   -2.404309    1.284596
     17          6           0      -11.729139   -1.036025    2.201709
     18          6           0      -12.698051   -2.380252    0.306992
     19          6           0        9.637578    0.319218    0.166498
     20          6           0      -10.054446   -1.124376   -0.416266
     21          6           0       11.373844    0.677450   -2.310551
     22          6           0      -10.706743    1.419990   -1.854412
     23          6           0        9.339172    1.655059   -0.105869
     24          6           0       -8.855338   -0.614073   -0.345889
     25          6           0        8.033286    2.253621    0.097796
     26          6           0       -7.594074   -1.355679   -0.586196
     27          6           0        8.120425    3.701250    0.489888
     28          6           0       -7.686746   -2.858162   -0.889001
     29          6           0        6.923330    1.559809   -0.151634
     30          6           0       -6.467364   -0.654374   -0.480792
     31          6           0        5.578594    2.015467    0.146727
     32          6           0       -5.097629   -1.235790   -0.456527
     33          6           0        4.417405    1.429476   -0.137859
     34          6           0       -4.093472   -0.498618   -0.132446
     35          6           0        3.073201    1.705314    0.083533
     36          6           0       -2.697588   -0.777402   -0.488636
     37          6           0        2.841288    3.105107    0.591053
     38          6           0       -2.338778   -2.149576   -1.067431
     39          6           0        2.138721    0.804337   -0.294951
     40          6           0       -1.694874    0.015148   -0.038505
     41          6           0        0.650827    0.992598   -0.064010
     42          6           0       -0.279190   -0.099701   -0.130530
     43          1           0       13.537687   -0.602813    1.535203
     44          1           0       13.082301   -2.343650    1.850955
     45          1           0      -14.367832   -0.462412    1.739218
     46          1           0      -14.415692   -0.512551    0.059453
     47          1           0       12.587411   -2.749819   -0.376787
     48          1           0      -12.983295    1.755609    1.764645
     49          1           0       13.876171   -0.202783   -1.112140
     50          1           0       13.264852   -1.207266   -2.392471
     51          1           0      -13.390403    1.789005   -1.273677
     52          1           0      -12.516828    2.814219   -0.386313
     53          1           0       11.673041   -0.886442    3.172564
     54          1           0       10.083834   -0.181497    2.849169
     55          1           0       11.808324    0.440093    2.566894
     56          1           0       10.957504   -3.181293    0.432800
     57          1           0       10.959798   -2.937521    2.276863
     58          1           0        9.507733   -2.276705    1.147262
     59          1           0      -11.472483    0.001516    2.850594
     60          1           0      -10.859059   -1.581022    2.041422
     61          1           0      -12.420317   -1.709452    2.861301
     62          1           0      -13.328146   -2.788283    1.015397
     63          1           0      -11.851593   -3.064591    0.238963
     64          1           0      -13.035449   -2.243820   -0.812334
     65          1           0        8.880604   -0.275160    0.744520
     66          1           0      -10.120157   -2.288035   -0.309806
     67          1           0       10.150471    0.709853   -2.379691
     68          1           0       11.953211    1.703321   -2.211146
     69          1           0       11.709501    0.168747   -3.467501
     70          1           0      -11.134371    2.161847   -2.605613
     71          1           0      -10.036356    0.673978   -2.391542
     72          1           0       -9.919381    2.268243   -1.536471
     73          1           0       14.937055   -3.164246    0.247751
     74          1           0      -14.977641    2.024856    1.708861
     75          1           0       10.050051    2.301377   -0.509047
     76          1           0       -8.738865    0.483414   -0.213349
     77          1           0        9.130336    4.331523    0.058194
     78          1           0        7.234313    4.342143    0.152059
     79          1           0        8.289535    3.672974    1.640414
     80          1           0       -8.399917   -3.438116   -0.156910
     81          1           0       -8.037365   -3.145452   -1.868064
     82          1           0       -6.551210   -3.236487   -1.084630
     83          1           0        7.167947    0.509421   -0.357918
     84          1           0       -6.606927    0.284979   -0.171625
     85          1           0        5.898114    3.096484    0.428682
     86          1           0       -4.968540   -2.249604   -0.851555
     87          1           0        4.616825    0.522861   -0.652761
     88          1           0       -4.219475    0.438418    0.078987
     89          1           0        3.544409    3.566659    1.300292
     90          1           0        1.716303    3.403119    0.749871
     91          1           0        2.985924    3.726268   -0.435744
     92          1           0       -2.885685   -2.883395   -0.257945
     93          1           0       -2.761798   -2.481097   -2.109781
     94          1           0       -1.324908   -2.199483   -1.219911
     95          1           0        2.426594   -0.269383   -0.682444
     96          1           0       -2.145809    0.940950    0.239615
     97          1           0        0.269929    1.843766    0.487910
     98          1           0        0.089070   -0.823247   -0.993023
 ---------------------------------------------------------------------

 SCF Done:  E(RCAM-B3LYP) =  -1706.95886021     A.U. after   14 cycles

 Excitation energies and oscillator strengths:

 Excited State   1:      Singlet-A      2.8058 eV  441.89 nm  f=3.3629  <S**2>=0.000
     155 ->158         0.18176
     156 ->157         0.67413
 This state for optimization and/or second-order correction.
 Total Energy, E(TD-HF/TD-DFT) =  -1706.85574917
 Copying the excited state density for this state as the 1-particle RhoCI density.

 The electronic state is 1-A.
 Alpha  occ. eigenvalues --  -19.21493 -19.20795 -10.31244 -10.30577 -10.28616
 Alpha  occ. eigenvalues --  -10.28440 -10.28201 -10.28077 -10.27898 -10.27616
 Alpha  occ. eigenvalues --  -10.27548 -10.27506 -10.27431 -10.27382 -10.27306
 Alpha  occ. eigenvalues --  -10.27105 -10.26931 -10.26861 -10.26824 -10.26782
 Alpha  occ. eigenvalues --  -10.26631 -10.26480 -10.26386 -10.26379 -10.26156
 Alpha  occ. eigenvalues --  -10.26151 -10.26100 -10.26059 -10.26037 -10.25965
 Alpha  occ. eigenvalues --  -10.25835 -10.25794 -10.25728 -10.25603 -10.25397
 Alpha  occ. eigenvalues --  -10.25303 -10.25278 -10.25222 -10.24932 -10.24614
 Alpha  occ. eigenvalues --  -10.24039 -10.23346  -1.12875  -1.06270  -0.94216
 Alpha  occ. eigenvalues --   -0.92912  -0.92474  -0.92036  -0.90967  -0.90103
 Alpha  occ. eigenvalues --   -0.88024  -0.87329  -0.86800  -0.85827  -0.84450
 Alpha  occ. eigenvalues --   -0.83239  -0.81753  -0.80411  -0.79999  -0.77254
 Alpha  occ. eigenvalues --   -0.77080  -0.76471  -0.76070  -0.75534  -0.75258
 Alpha  occ. eigenvalues --   -0.75243  -0.75122  -0.74892  -0.74059  -0.70299
 Alpha  occ. eigenvalues --   -0.68582  -0.67363  -0.65698  -0.64863  -0.63727
 Alpha  occ. eigenvalues --   -0.63020  -0.62512  -0.62163  -0.60004  -0.59894
 Alpha  occ. eigenvalues --   -0.59035  -0.58674  -0.58452  -0.57588  -0.56018
 Alpha  occ. eigenvalues --   -0.55856  -0.55179  -0.55144  -0.54445  -0.54192
 Alpha  occ. eigenvalues --   -0.53002  -0.52913  -0.52353  -0.52238  -0.50698
 Alpha  occ. eigenvalues --   -0.50220  -0.49869  -0.49791  -0.49369  -0.49094
 Alpha  occ. eigenvalues --   -0.48521  -0.48435  -0.48009  -0.47943  -0.47814
 Alpha  occ. eigenvalues --   -0.47639  -0.47064  -0.46834  -0.46610  -0.46134
 Alpha  occ. eigenvalues --   -0.45715  -0.45343  -0.45267  -0.45104  -0.45024
 Alpha  occ. eigenvalues --   -0.44536  -0.44357  -0.43979  -0.43743  -0.43677
 Alpha  occ. eigenvalues --   -0.43227  -0.42806  -0.42350  -0.42059  -0.41872
 Alpha  occ. eigenvalues --   -0.41445  -0.41407  -0.41021  -0.40711  -0.40627
 Alpha  occ. eigenvalues --   -0.40611  -0.40264  -0.40029  -0.39602  -0.38797
 Alpha  occ. eigenvalues --   -0.38716  -0.38489  -0.38115  -0.37558  -0.37401
 Alpha  occ. eigenvalues --   -0.37010  -0.36605  -0.36455  -0.36305  -0.36091
 Alpha  occ. eigenvalues --   -0.35749  -0.34606  -0.34125  -0.32442  -0.32163
 Alpha  occ. eigenvalues --   -0.32029  -0.29911  -0.28022  -0.25859  -0.24063
 Alpha  occ. eigenvalues --   -0.21313
 Alpha virt. eigenvalues --   -0.04259  -0.00398   0.02090   0.05340   0.07495
 Alpha virt. eigenvalues --    0.09469   0.10470   0.11161   0.11353   0.11606
 Alpha virt. eigenvalues --    0.12054   0.12540   0.12677   0.13192   0.13508

 Mulliken charges:
               1
     1  O   -0.593678
     2  O   -0.522249
     3  C   -0.027499
     4  C   -0.007863
     5  C   -0.187001
     6  C   -0.192942
     7  C    0.173914
     8  C    0.164993
     9  C    0.080075
    10  C    0.023820
    11  C   -0.226217
    12  C   -0.255347
    13  C    0.080730
    14  C    0.141927
    15  C   -0.293119
    16  C   -0.284649
    17  C   -0.270221
    18  C   -0.305751
    19  C   -0.134622
    20  C   -0.150287
    21  C   -0.354293
    22  C   -0.400742
    23  C   -0.104284
    24  C   -0.080294
    25  C    0.087019
    26  C    0.134030
    27  C   -0.376272
    28  C   -0.372376
    29  C   -0.108068
    30  C   -0.130927
    31  C   -0.075456
    32  C   -0.077262
    33  C   -0.127243
    34  C   -0.073670
    35  C    0.178492
    36  C    0.079725
    37  C   -0.374731
    38  C   -0.349971
    39  C   -0.160291
    40  C   -0.107167
    41  C   -0.099975
    42  C   -0.112745
    43  H    0.105705
    44  H    0.078018
    45  H    0.052776
    46  H    0.094598
    47  H    0.083013
    48  H    0.054582
    49  H    0.123773
    50  H    0.107492
    51  H    0.122778
    52  H    0.107235
    53  H    0.102492
    54  H    0.097014
    55  H    0.099214
    56  H    0.089029
    57  H    0.096880
    58  H    0.090338
    59  H    0.081009
    60  H    0.115659
    61  H    0.077608
    62  H    0.110149
    63  H    0.099804
    64  H    0.105575
    65  H    0.099839
    66  H    0.067830
    67  H    0.114641
    68  H    0.112165
    69  H    0.069937
    70  H    0.109780
    71  H    0.126084
    72  H    0.090440
    73  H    0.306538
    74  H    0.305000
    75  H    0.095292
    76  H    0.091746
    77  H    0.089398
    78  H    0.123101
    79  H    0.129400
    80  H    0.112473
    81  H    0.132409
    82  H    0.087123
    83  H    0.071585
    84  H    0.074192
    85  H    0.056505
    86  H    0.084977
    87  H    0.079681
    88  H    0.068398
    89  H    0.133883
    90  H    0.102519
    91  H    0.111187
    92  H    0.100890
    93  H    0.097102
    94  H    0.112227
    95  H    0.094838
    96  H    0.072527
    97  H    0.093798
    98  H    0.080238
 Sum of Mulliken charges =  -0.00000

 Dipole moment (field-independent basis, Debye):
    X=              1.0067    Y=             -0.5641    Z=              1.6519  Tot=              2.0150
 Quadrupole moment (field-independent basis, Debye-Ang):
   XX=           -272.2268   YY=           -244.9900   ZZ=           -259.7244
   XY=              9.5699   XZ=              3.4498   YZ=              1.9936

 Normal termination of Gaussian 16 at Sat Jun 29 15:29:47 2019.
