 Gaussian 16, Revision A.03,
 Gaussian 16:  ES64L-G16RevA.03 25-Dec-2016

 -------------------------------------
 # td=(NStates=1) CAM-B3LYP/6-31G(d,p)
 -------------------------------------

 --
 TD
 --
 Symbolic Z-matrix:
 Charge =  0 Multiplicity = 1

                         Standard orientation:
 ---------------------------------------------------------------------
 Center     Atomic      Atomic             Coordinates (Angstroms)
 Number     Number       Type             X           Y           Z
 ---------------------------------------------------------------------
      1          8           0       14.733146   -2.292951   -0.185349
      2          8           0      -14.857938    2.041899    0.676882
      3          6           0       11.439162   -1.021156    1.331326
      4          6           0      -12.382877   -0.899388    0.860516
      5          6           0       12.868277   -1.345563    1.110638
      6          6           0      -13.783804   -0.177221    0.856181
      7          6           0       13.306947   -1.946025   -0.136627
      8          6           0      -13.552699    1.288523    0.826850
      9          6           0       11.008978   -0.235659   -0.016660
     10          6           0      -11.370848   -0.286288   -0.175599
     11          6           0       13.049814   -0.996628   -1.208743
     12          6           0      -12.689801    1.825510   -0.368322
     13          6           0       11.709127   -0.333444   -1.187900
     14          6           0      -11.569555    0.958476   -0.761356
     15          6           0       11.370912   -0.046078    2.490372
     16          6           0       10.577068   -2.306065    1.525186
     17          6           0      -11.721606   -0.640902    2.259766
     18          6           0      -12.579486   -2.388847    0.688366
     19          6           0        9.705241    0.440406    0.209750
     20          6           0      -10.122047   -1.080835   -0.431970
     21          6           0       11.336255    0.484986   -2.333505
     22          6           0      -10.586166    1.555894   -1.828491
     23          6           0        9.282337    1.657624   -0.152801
     24          6           0       -8.824350   -0.617097   -0.409553
     25          6           0        8.047238    2.295889    0.069407
     26          6           0       -7.575115   -1.313992   -0.598434
     27          6           0        8.086655    3.759054    0.427852
     28          6           0       -7.707201   -2.760493   -0.958784
     29          6           0        6.809097    1.668144   -0.209583
     30          6           0       -6.478048   -0.671240   -0.479590
     31          6           0        5.518785    2.095816    0.130559
     32          6           0       -5.050963   -1.158873   -0.718256
     33          6           0        4.380146    1.284637   -0.198896
     34          6           0       -3.959436   -0.464281   -0.278338
     35          6           0        2.962150    1.582212    0.083124
     36          6           0       -2.511746   -0.929887   -0.532675
     37          6           0        2.717411    3.028974    0.537715
     38          6           0       -2.466414   -2.407323   -0.847705
     39          6           0        2.084259    0.688251   -0.262099
     40          6           0       -1.518533   -0.006129   -0.308389
     41          6           0        0.688656    0.687596   -0.275590
     42          6           0       -0.112261   -0.334086   -0.465242
     43          1           0       13.489916   -0.525099    1.361484
     44          1           0       13.122952   -1.992978    1.938563
     45          1           0      -14.232255   -0.670796    1.774831
     46          1           0      -14.357202   -0.507504   -0.038121
     47          1           0       12.657559   -2.810071   -0.486066
     48          1           0      -13.092705    1.781249    1.636741
     49          1           0       13.837124   -0.235500   -1.273732
     50          1           0       13.172067   -1.499861   -2.299475
     51          1           0      -13.322652    1.956873   -1.271542
     52          1           0      -12.505351    2.956863   -0.100269
     53          1           0       11.739401   -0.409228    3.418112
     54          1           0       10.404527    0.234302    2.567623
     55          1           0       11.813438    0.980564    2.198480
     56          1           0       10.894006   -3.109361    0.670891
     57          1           0       10.952178   -2.774522    2.381516
     58          1           0        9.546235   -1.989838    1.581584
     59          1           0      -11.431391    0.422508    2.438061
     60          1           0      -10.944779   -1.253542    2.612958
     61          1           0      -12.484602   -0.934866    3.170412
     62          1           0      -13.245848   -2.729279    1.480887
     63          1           0      -11.724659   -2.977678    0.658955
     64          1           0      -12.915707   -2.912648   -0.347267
     65          1           0        8.958376   -0.159881    0.644144
     66          1           0      -10.345046   -2.193667   -0.631697
     67          1           0       10.328186    1.162247   -2.347343
     68          1           0       12.199725    1.183669   -2.530873
     69          1           0       11.496208    0.001718   -3.125234
     70          1           0      -11.195707    2.084361   -2.530118
     71          1           0       -9.782454    0.792288   -2.254214
     72          1           0      -10.027031    2.433971   -1.591444
     73          1           0       14.860673   -3.059052    0.357148
     74          1           0      -15.345085    1.839875    1.545507
     75          1           0       10.009713    2.333019   -0.788420
     76          1           0       -8.619564    0.433812   -0.083166
     77          1           0        8.464993    4.293225   -0.463933
     78          1           0        7.126909    4.183082    0.581796
     79          1           0        8.849184    3.932597    1.466858
     80          1           0       -8.193970   -3.320817   -0.155202
     81          1           0       -8.132091   -3.009479   -2.051220
     82          1           0       -6.647099   -3.213712   -0.787518
     83          1           0        6.978434    0.597263   -0.422039
     84          1           0       -6.465997    0.489286    0.078313
     85          1           0        5.531743    3.050657    0.715708
     86          1           0       -4.977122   -2.050535   -0.976719
     87          1           0        4.681888    0.258375   -0.380070
     88          1           0       -4.110271    0.461115    0.219937
     89          1           0        3.099453    3.098041    1.517454
     90          1           0        1.732846    3.366150    0.727227
     91          1           0        3.064620    3.860492   -0.147102
     92          1           0       -2.854205   -3.080757   -0.063556
     93          1           0       -3.085690   -2.589104   -1.706748
     94          1           0       -1.497918   -2.588578   -1.215381
     95          1           0        2.379193   -0.308746   -0.502143
     96          1           0       -1.690155    0.878382   -0.050386
     97          1           0        0.294084    1.508044    0.067522
     98          1           0        0.225921   -1.265468   -0.698972
 ---------------------------------------------------------------------

 SCF Done:  E(RCAM-B3LYP) =  -1706.96965352     A.U. after   14 cycles

 Excitation energies and oscillator strengths:

 Excited State   1:      Singlet-A      2.9211 eV  424.44 nm  f=3.4781  <S**2>=0.000
     155 ->158        -0.17194
     156 ->157         0.67683
 This state for optimization and/or second-order correction.
 Total Energy, E(TD-HF/TD-DFT) =  -1706.86230515
 Copying the excited state density for this state as the 1-particle RhoCI density.

 The electronic state is 1-A.
 Alpha  occ. eigenvalues --  -19.21238 -19.20396 -10.30246 -10.30229 -10.28505
 Alpha  occ. eigenvalues --  -10.27914 -10.27358 -10.27280 -10.27240 -10.27088
 Alpha  occ. eigenvalues --  -10.27081 -10.27019 -10.27017 -10.26985 -10.26868
 Alpha  occ. eigenvalues --  -10.26800 -10.26702 -10.26468 -10.26401 -10.26171
 Alpha  occ. eigenvalues --  -10.26075 -10.26019 -10.26016 -10.26012 -10.25912
 Alpha  occ. eigenvalues --  -10.25771 -10.25744 -10.25742 -10.25644 -10.25598
 Alpha  occ. eigenvalues --  -10.25476 -10.25354 -10.25337 -10.25210 -10.25131
 Alpha  occ. eigenvalues --  -10.25111 -10.24844 -10.24609 -10.24352 -10.23918
 Alpha  occ. eigenvalues --  -10.23654 -10.23294  -1.08686  -1.05427  -0.94165
 Alpha  occ. eigenvalues --   -0.92858  -0.92583  -0.91527  -0.91036  -0.90022
 Alpha  occ. eigenvalues --   -0.88129  -0.87554  -0.86315  -0.85892  -0.84358
 Alpha  occ. eigenvalues --   -0.83480  -0.82173  -0.80860  -0.79500  -0.79112
 Alpha  occ. eigenvalues --   -0.76866  -0.76796  -0.76706  -0.76054  -0.75992
 Alpha  occ. eigenvalues --   -0.75861  -0.75524  -0.74713  -0.73878  -0.70765
 Alpha  occ. eigenvalues --   -0.69200  -0.67564  -0.66224  -0.65679  -0.64603
 Alpha  occ. eigenvalues --   -0.64024  -0.63643  -0.62810  -0.61710  -0.60175
 Alpha  occ. eigenvalues --   -0.59391  -0.58564  -0.58281  -0.56833  -0.56553
 Alpha  occ. eigenvalues --   -0.55931  -0.55023  -0.54515  -0.54268  -0.53584
 Alpha  occ. eigenvalues --   -0.52837  -0.52342  -0.51856  -0.51285  -0.50473
 Alpha  occ. eigenvalues --   -0.50143  -0.49872  -0.49642  -0.49415  -0.49395
 Alpha  occ. eigenvalues --   -0.49284  -0.48930  -0.48792  -0.48484  -0.48122
 Alpha  occ. eigenvalues --   -0.47929  -0.47506  -0.47249  -0.47064  -0.46820
 Alpha  occ. eigenvalues --   -0.46673  -0.46273  -0.46060  -0.45949  -0.45232
 Alpha  occ. eigenvalues --   -0.44813  -0.44407  -0.44096  -0.43863  -0.43434
 Alpha  occ. eigenvalues --   -0.43391  -0.42779  -0.42312  -0.42151  -0.42050
 Alpha  occ. eigenvalues --   -0.41376  -0.41280  -0.41244  -0.40825  -0.40540
 Alpha  occ. eigenvalues --   -0.40222  -0.39928  -0.39860  -0.39702  -0.39629
 Alpha  occ. eigenvalues --   -0.39400  -0.38842  -0.38490  -0.38313  -0.38108
 Alpha  occ. eigenvalues --   -0.37163  -0.36983  -0.36961  -0.35945  -0.35599
 Alpha  occ. eigenvalues --   -0.35318  -0.34590  -0.33256  -0.33086  -0.32167
 Alpha  occ. eigenvalues --   -0.32096  -0.29590  -0.27773  -0.26336  -0.24009
 Alpha  occ. eigenvalues --   -0.21223
 Alpha virt. eigenvalues --   -0.03773  -0.00225   0.02928   0.05383   0.07570
 Alpha virt. eigenvalues --    0.09882   0.10713   0.11812   0.11905   0.12219
 Alpha virt. eigenvalues --    0.12502   0.12661   0.12828   0.13308   0.13767

 Mulliken charges:
               1
     1  O   -0.565600
     2  O   -0.582961
     3  C   -0.013603
     4  C   -0.023643
     5  C   -0.175827
     6  C   -0.168502
     7  C    0.158869
     8  C    0.146365
     9  C    0.024659
    10  C    0.037841
    11  C   -0.220525
    12  C   -0.245369
    13  C    0.077672
    14  C    0.081191
    15  C   -0.304764
    16  C   -0.293433
    17  C   -0.293531
    18  C   -0.310338
    19  C   -0.113129
    20  C   -0.153070
    21  C   -0.346791
    22  C   -0.362764
    23  C   -0.106973
    24  C   -0.095047
    25  C    0.046308
    26  C    0.165130
    27  C   -0.342375
    28  C   -0.369195
    29  C   -0.100185
    30  C   -0.157547
    31  C   -0.087739
    32  C   -0.055265
    33  C   -0.135602
    34  C   -0.107407
    35  C    0.107133
    36  C    0.063607
    37  C   -0.378631
    38  C   -0.373524
    39  C   -0.120864
    40  C   -0.077895
    41  C   -0.053509
    42  C   -0.060097
    43  H    0.110014
    44  H    0.066352
    45  H    0.087643
    46  H    0.116688
    47  H    0.079053
    48  H    0.104075
    49  H    0.124127
    50  H    0.077131
    51  H    0.124690
    52  H    0.104688
    53  H    0.103255
    54  H    0.111777
    55  H    0.100819
    56  H    0.085107
    57  H    0.110277
    58  H    0.110808
    59  H    0.110379
    60  H    0.122161
    61  H    0.055602
    62  H    0.100072
    63  H    0.113045
    64  H    0.080354
    65  H    0.087089
    66  H    0.078733
    67  H    0.113878
    68  H    0.101259
    69  H    0.113283
    70  H    0.102337
    71  H    0.116210
    72  H    0.113929
    73  H    0.304799
    74  H    0.298918
    75  H    0.079024
    76  H    0.084760
    77  H    0.122988
    78  H    0.113897
    79  H    0.083419
    80  H    0.127753
    81  H    0.115507
    82  H    0.088444
    83  H    0.072773
    84  H    0.057170
    85  H    0.091493
    86  H    0.053712
    87  H    0.089900
    88  H    0.079095
    89  H    0.130128
    90  H    0.109324
    91  H    0.121121
    92  H    0.133085
    93  H    0.130019
    94  H    0.108747
    95  H    0.066735
    96  H    0.061987
    97  H    0.057179
    98  H    0.080110
 Sum of Mulliken charges =  -0.00000

 Dipole moment (field-independent basis, Debye):
    X=              0.9657    Y=             -1.7626    Z=              2.6791  Tot=              3.3492
 Quadrupole moment (field-independent basis, Debye-Ang):
   XX=           -303.5245   YY=           -241.8616   ZZ=           -257.5594
   XY=             11.4084   XZ=             -9.3541   YZ=              1.2871

 Normal termination of Gaussian 16 at Tue Jul  2 09:47:35 2019.
