 Gaussian 16, Revision A.03,
 Gaussian 16:  ES64L-G16RevA.03 25-Dec-2016

 -------------------------------------
 # td=(NStates=1) CAM-B3LYP/6-31G(d,p)
 -------------------------------------

 --
 TD
 --
 Symbolic Z-matrix:
 Charge =  0 Multiplicity = 1

                         Standard orientation:
 ---------------------------------------------------------------------
 Center     Atomic      Atomic             Coordinates (Angstroms)
 Number     Number       Type             X           Y           Z
 ---------------------------------------------------------------------
      1          8           0       14.683931   -2.172283   -0.200272
      2          8           0      -14.673042    1.949893    0.854241
      3          6           0       11.473136   -1.162269    1.263807
      4          6           0      -12.381942   -1.025280    0.873670
      5          6           0       12.906514   -1.514250    1.207875
      6          6           0      -13.602749   -0.194888    0.880814
      7          6           0       13.208562   -2.018390   -0.171475
      8          6           0      -13.395155    1.274028    0.847313
      9          6           0       10.917587   -0.394256    0.020785
     10          6           0      -11.354816   -0.356707   -0.134277
     11          6           0       12.913210   -1.028281   -1.386593
     12          6           0      -12.748543    1.708190   -0.376818
     13          6           0       11.598316   -0.379277   -1.069839
     14          6           0      -11.573632    0.829092   -0.755848
     15          6           0       11.297358   -0.359077    2.602038
     16          6           0       10.516502   -2.462423    1.356881
     17          6           0      -11.696556   -0.881842    2.203016
     18          6           0      -12.551929   -2.543695    0.523201
     19          6           0        9.652404    0.356680    0.292033
     20          6           0      -10.097746   -1.058353   -0.446726
     21          6           0       11.125811    0.259778   -2.411949
     22          6           0      -10.714569    1.544020   -1.617904
     23          6           0        9.384465    1.649038    0.029774
     24          6           0       -8.818088   -0.645230   -0.285563
     25          6           0        8.068054    2.325542    0.167689
     26          6           0       -7.568320   -1.379785   -0.499008
     27          6           0        8.160986    3.775289    0.343343
     28          6           0       -7.662955   -2.731828   -1.064730
     29          6           0        6.915332    1.644826    0.069584
     30          6           0       -6.390708   -0.786636   -0.279644
     31          6           0        5.574267    2.213078    0.166178
     32          6           0       -5.060085   -1.172383   -0.579343
     33          6           0        4.445102    1.466746   -0.087928
     34          6           0       -3.972612   -0.379473   -0.441245
     35          6           0        3.045653    1.927681   -0.007532
     36          6           0       -2.599893   -0.762705   -0.643075
     37          6           0        2.728037    3.341963    0.344704
     38          6           0       -2.202750   -2.165023   -1.068591
     39          6           0        2.120669    0.961648   -0.249647
     40          6           0       -1.626834    0.171822   -0.419567
     41          6           0        0.687054    1.136676   -0.084186
     42          6           0       -0.198302    0.126693   -0.546375
     43          1           0       13.383285   -0.565703    1.459528
     44          1           0       13.290268   -2.452222    1.856313
     45          1           0      -14.195824   -0.491681    1.522446
     46          1           0      -14.296131   -0.345014   -0.178953
     47          1           0       12.720845   -2.958413   -0.401271
     48          1           0      -12.812181    1.582512    1.519168
     49          1           0       13.777022   -0.233642   -1.555975
     50          1           0       12.787524   -1.930536   -2.315695
     51          1           0      -13.521956    1.811457   -1.097841
     52          1           0      -12.684669    3.011426   -0.259926
     53          1           0       11.755235   -0.729837    3.455067
     54          1           0       10.171520   -0.499756    2.764172
     55          1           0       11.786415    0.575455    2.401446
     56          1           0       10.233966   -3.145790    0.342737
     57          1           0       10.883954   -3.143782    2.257883
     58          1           0        9.586654   -2.189658    1.714003
     59          1           0      -11.644661    0.140353    2.594710
     60          1           0      -10.770897   -1.337530    2.189682
     61          1           0      -12.314634   -1.530288    2.955345
     62          1           0      -13.460710   -2.926217    1.326704
     63          1           0      -11.640808   -3.089409    0.621374
     64          1           0      -12.967468   -2.812517   -0.499932
     65          1           0        8.805048   -0.086460    0.637365
     66          1           0      -10.492283   -2.093142   -0.795712
     67          1           0       10.031962    0.469560   -2.431831
     68          1           0       11.703528    1.140210   -2.607474
     69          1           0       11.433902   -0.575569   -3.221342
     70          1           0      -11.236501    2.129532   -2.483163
     71          1           0      -10.045131    0.794462   -2.113689
     72          1           0       -9.921522    2.331408   -1.168464
     73          1           0       14.860444   -2.982506    0.327712
     74          1           0      -15.372478    1.348108    1.492414
     75          1           0       10.182001    2.208124   -0.483411
     76          1           0       -8.764792    0.176743    0.166419
     77          1           0        8.500457    4.278713   -0.521122
     78          1           0        7.213927    4.339855    0.448398
     79          1           0        8.787980    4.044510    1.149985
     80          1           0       -8.113108   -3.535756   -0.268826
     81          1           0       -8.333365   -2.621743   -1.912541
     82          1           0       -6.836338   -3.312808   -1.342544
     83          1           0        7.064941    0.630646   -0.469193
     84          1           0       -6.541924    0.450617   -0.024038
     85          1           0        5.500723    3.376403    0.463395
     86          1           0       -4.754078   -2.252030   -0.946105
     87          1           0        4.685927    0.328006   -0.197091
     88          1           0       -4.029145    0.532716    0.136823
     89          1           0        2.872201    3.523184    1.433556
     90          1           0        1.626826    3.802956    0.121811
     91          1           0        3.373894    4.065828   -0.307214
     92          1           0       -2.445115   -2.943031   -0.291975
     93          1           0       -2.785333   -2.306833   -2.056973
     94          1           0       -1.197507   -2.186688   -1.275614
     95          1           0        2.495932   -0.123375   -0.292280
     96          1           0       -2.095049    1.107690    0.025573
     97          1           0        0.270183    1.906431    0.263589
     98          1           0        0.274933   -0.790293   -0.748226
 ---------------------------------------------------------------------

 SCF Done:  E(RCAM-B3LYP) =  -1706.90378553     A.U. after   14 cycles

 Excitation energies and oscillator strengths:

 Excited State   1:      Singlet-A      2.7377 eV  452.87 nm  f=3.6050  <S**2>=0.000
     155 ->158         0.16372
     156 ->157         0.68381
 This state for optimization and/or second-order correction.
 Total Energy, E(TD-HF/TD-DFT) =  -1706.80317618
 Copying the excited state density for this state as the 1-particle RhoCI density.

 The electronic state is 1-A.
 Alpha  occ. eigenvalues --  -19.21633 -19.19965 -10.29946 -10.28229 -10.28181
 Alpha  occ. eigenvalues --  -10.28011 -10.27923 -10.27634 -10.27589 -10.27509
 Alpha  occ. eigenvalues --  -10.27471 -10.27468 -10.27409 -10.27277 -10.27261
 Alpha  occ. eigenvalues --  -10.27219 -10.27095 -10.26881 -10.26842 -10.26689
 Alpha  occ. eigenvalues --  -10.26530 -10.26523 -10.26411 -10.26285 -10.26125
 Alpha  occ. eigenvalues --  -10.26124 -10.26106 -10.26011 -10.25892 -10.25881
 Alpha  occ. eigenvalues --  -10.25857 -10.25692 -10.25581 -10.25415 -10.25393
 Alpha  occ. eigenvalues --  -10.25344 -10.25308 -10.24847 -10.24730 -10.24582
 Alpha  occ. eigenvalues --  -10.24572 -10.24314  -1.06660  -1.06563  -0.94363
 Alpha  occ. eigenvalues --   -0.93767  -0.92199  -0.91642  -0.91012  -0.90310
 Alpha  occ. eigenvalues --   -0.88106  -0.87021  -0.86709  -0.85648  -0.84748
 Alpha  occ. eigenvalues --   -0.83418  -0.82032  -0.80644  -0.80126  -0.77850
 Alpha  occ. eigenvalues --   -0.76868  -0.76758  -0.76659  -0.76270  -0.75957
 Alpha  occ. eigenvalues --   -0.75754  -0.75158  -0.74350  -0.74050  -0.70833
 Alpha  occ. eigenvalues --   -0.68761  -0.67773  -0.65887  -0.65231  -0.63976
 Alpha  occ. eigenvalues --   -0.63814  -0.63280  -0.62765  -0.60380  -0.59451
 Alpha  occ. eigenvalues --   -0.58831  -0.58450  -0.58167  -0.57608  -0.56395
 Alpha  occ. eigenvalues --   -0.55627  -0.55067  -0.54850  -0.53899  -0.53084
 Alpha  occ. eigenvalues --   -0.52697  -0.52560  -0.52483  -0.52025  -0.50778
 Alpha  occ. eigenvalues --   -0.50428  -0.50086  -0.50008  -0.49619  -0.49376
 Alpha  occ. eigenvalues --   -0.49206  -0.48984  -0.48704  -0.48575  -0.48364
 Alpha  occ. eigenvalues --   -0.48074  -0.48004  -0.47490  -0.46486  -0.46280
 Alpha  occ. eigenvalues --   -0.46027  -0.45840  -0.45680  -0.44661  -0.44510
 Alpha  occ. eigenvalues --   -0.44127  -0.43661  -0.43365  -0.43297  -0.42941
 Alpha  occ. eigenvalues --   -0.42626  -0.42615  -0.42495  -0.42266  -0.42210
 Alpha  occ. eigenvalues --   -0.41708  -0.41638  -0.41262  -0.41188  -0.40762
 Alpha  occ. eigenvalues --   -0.40413  -0.39991  -0.39522  -0.39058  -0.38791
 Alpha  occ. eigenvalues --   -0.38597  -0.38517  -0.38299  -0.38239  -0.38101
 Alpha  occ. eigenvalues --   -0.37449  -0.37116  -0.36902  -0.36484  -0.35913
 Alpha  occ. eigenvalues --   -0.35161  -0.34361  -0.33463  -0.32336  -0.32208
 Alpha  occ. eigenvalues --   -0.30787  -0.30016  -0.28797  -0.27040  -0.24633
 Alpha  occ. eigenvalues --   -0.21059
 Alpha virt. eigenvalues --   -0.04578  -0.00387   0.02629   0.05742   0.07358
 Alpha virt. eigenvalues --    0.09176   0.09663   0.10416   0.10793   0.11457
 Alpha virt. eigenvalues --    0.11724   0.12134   0.12865   0.13032   0.13389

 Mulliken charges:
               1
     1  O   -0.570056
     2  O   -0.586546
     3  C   -0.044385
     4  C    0.000622
     5  C   -0.132394
     6  C   -0.162380
     7  C    0.125856
     8  C    0.216907
     9  C    0.094874
    10  C    0.012202
    11  C   -0.203658
    12  C   -0.228224
    13  C    0.029852
    14  C    0.111161
    15  C   -0.302504
    16  C   -0.308433
    17  C   -0.291651
    18  C   -0.306402
    19  C   -0.111196
    20  C   -0.161357
    21  C   -0.340545
    22  C   -0.370986
    23  C   -0.103286
    24  C   -0.050713
    25  C    0.091339
    26  C    0.140114
    27  C   -0.378168
    28  C   -0.364368
    29  C   -0.133453
    30  C   -0.141016
    31  C   -0.095129
    32  C   -0.097335
    33  C   -0.123834
    34  C   -0.095415
    35  C    0.135511
    36  C    0.109066
    37  C   -0.377555
    38  C   -0.363872
    39  C   -0.136042
    40  C   -0.136169
    41  C   -0.051435
    42  C   -0.091994
    43  H    0.102697
    44  H    0.065334
    45  H    0.070608
    46  H    0.059397
    47  H    0.099734
    48  H    0.092176
    49  H    0.126751
    50  H    0.079219
    51  H    0.126888
    52  H    0.064725
    53  H    0.111889
    54  H    0.093671
    55  H    0.112850
    56  H    0.079516
    57  H    0.079734
    58  H    0.115890
    59  H    0.113032
    60  H    0.121215
    61  H    0.076157
    62  H    0.067051
    63  H    0.121738
    64  H    0.112071
    65  H    0.083943
    66  H    0.082202
    67  H    0.110325
    68  H    0.119000
    69  H    0.085783
    70  H    0.098086
    71  H    0.105287
    72  H    0.100601
    73  H    0.294248
    74  H    0.298249
    75  H    0.082087
    76  H    0.068402
    77  H    0.129794
    78  H    0.101786
    79  H    0.126838
    80  H    0.086980
    81  H    0.125192
    82  H    0.118804
    83  H    0.088957
    84  H    0.059247
    85  H    0.083034
    86  H    0.084658
    87  H    0.085542
    88  H    0.085050
    89  H    0.133572
    90  H    0.102137
    91  H    0.112112
    92  H    0.121556
    93  H    0.110216
    94  H    0.117719
    95  H    0.086624
    96  H    0.068374
    97  H    0.064211
    98  H    0.080034
 Sum of Mulliken charges =  -0.00000

 Dipole moment (field-independent basis, Debye):
    X=              0.1116    Y=             -2.0183    Z=              1.9590  Tot=              2.8149
 Quadrupole moment (field-independent basis, Debye-Ang):
   XX=           -292.7457   YY=           -243.8938   ZZ=           -262.5021
   XY=             22.6171   XZ=             -2.5086   YZ=              0.9356

 Normal termination of Gaussian 16 at Sun Jun 30 05:15:15 2019.
