 Gaussian 16, Revision A.03,
 Gaussian 16:  ES64L-G16RevA.03 25-Dec-2016

 -------------------------------------
 # td=(NStates=1) CAM-B3LYP/6-31G(d,p)
 -------------------------------------

 --
 TD
 --
 Symbolic Z-matrix:
 Charge =  0 Multiplicity = 1

                         Standard orientation:
 ---------------------------------------------------------------------
 Center     Atomic      Atomic             Coordinates (Angstroms)
 Number     Number       Type             X           Y           Z
 ---------------------------------------------------------------------
      1          8           0       14.793180   -2.202369   -0.559225
      2          8           0      -14.752023    2.033385    0.684673
      3          6           0       11.489735   -1.201454    1.241047
      4          6           0      -12.357801   -0.871540    0.735855
      5          6           0       13.019179   -1.389571    1.091713
      6          6           0      -13.714410   -0.193387    0.667965
      7          6           0       13.347510   -1.851112   -0.314608
      8          6           0      -13.485086    1.343662    0.682818
      9          6           0       10.986152   -0.270609   -0.010847
     10          6           0      -11.289943   -0.316247   -0.204797
     11          6           0       13.039949   -0.743896   -1.281688
     12          6           0      -12.716414    1.728269   -0.632868
     13          6           0       11.672608   -0.141957   -1.148716
     14          6           0      -11.468208    0.903192   -0.890065
     15          6           0       11.245010   -0.297051    2.516543
     16          6           0       10.653915   -2.487632    1.120905
     17          6           0      -11.791287   -0.838552    2.233122
     18          6           0      -12.698284   -2.324574    0.414355
     19          6           0        9.664931    0.398685    0.193623
     20          6           0      -10.052758   -1.121025   -0.344449
     21          6           0       11.306150    0.652837   -2.346712
     22          6           0      -10.531752    1.527379   -1.915576
     23          6           0        9.302396    1.657465   -0.028189
     24          6           0       -8.824252   -0.609989   -0.137346
     25          6           0        8.030999    2.182791    0.104119
     26          6           0       -7.622251   -1.337874   -0.430967
     27          6           0        8.017384    3.678171    0.591225
     28          6           0       -7.615325   -2.855419   -0.743719
     29          6           0        6.840963    1.495220    0.012049
     30          6           0       -6.477395   -0.608989   -0.271327
     31          6           0        5.457699    1.999908    0.199521
     32          6           0       -5.122459   -1.158420   -0.487185
     33          6           0        4.420937    1.248524   -0.061676
     34          6           0       -3.977870   -0.371033   -0.329982
     35          6           0        3.007149    1.597995    0.088413
     36          6           0       -2.568672   -0.816951   -0.447663
     37          6           0        2.688910    3.059276    0.444584
     38          6           0       -2.419473   -2.233572   -0.891325
     39          6           0        2.011962    0.681875   -0.025610
     40          6           0       -1.689732    0.162915   -0.202561
     41          6           0        0.659409    0.792192   -0.007252
     42          6           0       -0.222613   -0.182205   -0.283427
     43          1           0       13.396366   -0.311406    1.535965
     44          1           0       13.483361   -2.110711    1.800033
     45          1           0      -14.137702   -0.378192    1.661972
     46          1           0      -14.188193   -0.297650   -0.232666
     47          1           0       12.879936   -2.731757   -0.410585
     48          1           0      -12.896717    1.698337    1.454595
     49          1           0       13.943870    0.058397   -1.333065
     50          1           0       13.145372   -1.229476   -2.325219
     51          1           0      -13.470110    1.725639   -1.441270
     52          1           0      -12.431054    2.616941   -0.512939
     53          1           0       11.353097   -0.910487    3.459658
     54          1           0       10.056150   -0.219388    2.369843
     55          1           0       11.714681    0.708259    2.753650
     56          1           0       10.631839   -2.968414    0.162711
     57          1           0       11.086218   -3.310093    1.724387
     58          1           0        9.581570   -2.340435    1.236833
     59          1           0      -11.769523    0.283411    2.583039
     60          1           0      -10.862390   -1.365416    2.192757
     61          1           0      -12.406925   -1.333365    3.011345
     62          1           0      -13.321591   -2.688902    1.308076
     63          1           0      -11.827832   -3.208066    0.426677
     64          1           0      -12.992931   -2.245040   -0.676701
     65          1           0        9.051202   -0.519395    0.742627
     66          1           0      -10.122081   -2.211921   -0.629127
     67          1           0       10.164551    0.828528   -2.191726
     68          1           0       11.903951    1.640846   -2.307889
     69          1           0       11.473012    0.198023   -3.351515
     70          1           0      -11.280401    1.867330   -2.603141
     71          1           0       -9.728196    0.897568   -2.234619
     72          1           0       -9.991049    2.172138   -1.418592
     73          1           0       15.250921   -2.906532    0.015508
     74          1           0      -15.217060    2.033457    1.535806
     75          1           0       10.209164    2.462086   -0.156089
     76          1           0       -8.789658    0.384635    0.180797
     77          1           0        8.591160    4.592980   -0.035730
     78          1           0        7.089475    4.127066    0.685419
     79          1           0        8.615116    3.769179    1.534549
     80          1           0       -8.271206   -3.336083   -0.074304
     81          1           0       -7.960015   -3.069784   -1.805748
     82          1           0       -6.741308   -3.194621   -0.668339
     83          1           0        6.943363    0.462920   -0.418350
     84          1           0       -6.457495    0.517260   -0.067141
     85          1           0        5.591124    3.095609    0.345115
     86          1           0       -4.865932   -2.091590   -0.940611
     87          1           0        4.765396    0.278675   -0.084385
     88          1           0       -4.067181    0.699981   -0.075337
     89          1           0        3.208019    3.248654    1.456523
     90          1           0        1.695411    3.344695    0.730326
     91          1           0        2.989953    3.677138   -0.225621
     92          1           0       -2.732171   -2.876698   -0.000673
     93          1           0       -2.892511   -2.567933   -1.811573
     94          1           0       -1.352047   -2.428804   -1.122993
     95          1           0        2.341204   -0.367259   -0.251097
     96          1           0       -1.942186    1.113005    0.225455
     97          1           0        0.087985    1.902083   -0.026433
     98          1           0       -0.159026   -1.157348   -0.099576
 ---------------------------------------------------------------------

 SCF Done:  E(RCAM-B3LYP) =  -1706.96242274     A.U. after   14 cycles

 Excitation energies and oscillator strengths:

 Excited State   1:      Singlet-A      2.8907 eV  428.90 nm  f=3.7201  <S**2>=0.000
     155 ->157         0.11525
     155 ->158         0.18874
     156 ->157         0.65994
 This state for optimization and/or second-order correction.
 Total Energy, E(TD-HF/TD-DFT) =  -1706.85619046
 Copying the excited state density for this state as the 1-particle RhoCI density.

 The electronic state is 1-A.
 Alpha  occ. eigenvalues --  -19.20376 -19.19825 -10.29772 -10.29477 -10.29256
 Alpha  occ. eigenvalues --  -10.27833 -10.27754 -10.27626 -10.27029 -10.27018
 Alpha  occ. eigenvalues --  -10.27015 -10.26937 -10.26847 -10.26741 -10.26722
 Alpha  occ. eigenvalues --  -10.26629 -10.26578 -10.26538 -10.26537 -10.26450
 Alpha  occ. eigenvalues --  -10.26194 -10.26186 -10.26174 -10.26099 -10.26078
 Alpha  occ. eigenvalues --  -10.26005 -10.25990 -10.25860 -10.25754 -10.25723
 Alpha  occ. eigenvalues --  -10.25689 -10.25573 -10.25508 -10.25383 -10.25276
 Alpha  occ. eigenvalues --  -10.24913 -10.24715 -10.24413 -10.24406 -10.23771
 Alpha  occ. eigenvalues --  -10.23583 -10.23388  -1.07757  -1.04672  -0.93266
 Alpha  occ. eigenvalues --   -0.92844  -0.92280  -0.91464  -0.90537  -0.90015
 Alpha  occ. eigenvalues --   -0.87710  -0.86982  -0.86697  -0.85195  -0.84454
 Alpha  occ. eigenvalues --   -0.83259  -0.81858  -0.80303  -0.79988  -0.78874
 Alpha  occ. eigenvalues --   -0.77446  -0.77017  -0.76478  -0.75957  -0.75477
 Alpha  occ. eigenvalues --   -0.75095  -0.74590  -0.74336  -0.73753  -0.70613
 Alpha  occ. eigenvalues --   -0.68953  -0.67606  -0.65813  -0.64842  -0.63432
 Alpha  occ. eigenvalues --   -0.62860  -0.62304  -0.61930  -0.61233  -0.60092
 Alpha  occ. eigenvalues --   -0.59420  -0.59220  -0.58332  -0.57215  -0.56214
 Alpha  occ. eigenvalues --   -0.55785  -0.54839  -0.54327  -0.54253  -0.53424
 Alpha  occ. eigenvalues --   -0.52830  -0.52766  -0.52124  -0.51413  -0.50684
 Alpha  occ. eigenvalues --   -0.50587  -0.50256  -0.50235  -0.49868  -0.49812
 Alpha  occ. eigenvalues --   -0.49034  -0.48706  -0.48475  -0.48232  -0.48003
 Alpha  occ. eigenvalues --   -0.47858  -0.47446  -0.46942  -0.46479  -0.46381
 Alpha  occ. eigenvalues --   -0.46095  -0.46028  -0.45800  -0.44999  -0.44851
 Alpha  occ. eigenvalues --   -0.44651  -0.44133  -0.43366  -0.43310  -0.43172
 Alpha  occ. eigenvalues --   -0.43029  -0.42679  -0.42634  -0.42337  -0.42207
 Alpha  occ. eigenvalues --   -0.41819  -0.41059  -0.40863  -0.40612  -0.40447
 Alpha  occ. eigenvalues --   -0.40071  -0.39861  -0.39484  -0.38954  -0.38919
 Alpha  occ. eigenvalues --   -0.38761  -0.38589  -0.38158  -0.37979  -0.37665
 Alpha  occ. eigenvalues --   -0.37390  -0.36939  -0.36488  -0.35907  -0.35505
 Alpha  occ. eigenvalues --   -0.35061  -0.34878  -0.33574  -0.31959  -0.31453
 Alpha  occ. eigenvalues --   -0.31197  -0.29557  -0.27992  -0.26481  -0.23776
 Alpha  occ. eigenvalues --   -0.21121
 Alpha virt. eigenvalues --   -0.03833  -0.00325   0.02646   0.06250   0.08007
 Alpha virt. eigenvalues --    0.09322   0.10514   0.11793   0.12020   0.12320
 Alpha virt. eigenvalues --    0.12626   0.13166   0.13386   0.13565   0.13793

 Mulliken charges:
               1
     1  O   -0.613662
     2  O   -0.582249
     3  C   -0.006474
     4  C   -0.030309
     5  C   -0.183748
     6  C   -0.142861
     7  C    0.200598
     8  C    0.140520
     9  C    0.038663
    10  C    0.037033
    11  C   -0.212884
    12  C   -0.215761
    13  C    0.069354
    14  C    0.004791
    15  C   -0.298004
    16  C   -0.324266
    17  C   -0.310295
    18  C   -0.277307
    19  C   -0.110721
    20  C   -0.148542
    21  C   -0.354670
    22  C   -0.340948
    23  C   -0.129348
    24  C   -0.071446
    25  C    0.113585
    26  C    0.090645
    27  C   -0.372118
    28  C   -0.344349
    29  C   -0.146871
    30  C   -0.132697
    31  C   -0.052116
    32  C   -0.105316
    33  C   -0.109366
    34  C   -0.125881
    35  C    0.088478
    36  C    0.126493
    37  C   -0.362668
    38  C   -0.390474
    39  C   -0.127518
    40  C   -0.141595
    41  C   -0.069525
    42  C   -0.088278
    43  H    0.080696
    44  H    0.075409
    45  H    0.085081
    46  H    0.109204
    47  H    0.099541
    48  H    0.084154
    49  H    0.112528
    50  H    0.093746
    51  H    0.114354
    52  H    0.115219
    53  H    0.094609
    54  H    0.084006
    55  H    0.119623
    56  H    0.123766
    57  H    0.102951
    58  H    0.108893
    59  H    0.082334
    60  H    0.119711
    61  H    0.091589
    62  H    0.098961
    63  H    0.058402
    64  H    0.103633
    65  H    0.074906
    66  H    0.085738
    67  H    0.109771
    68  H    0.109028
    69  H    0.110142
    70  H    0.116621
    71  H    0.121340
    72  H    0.131253
    73  H    0.301035
    74  H    0.305125
    75  H    0.097429
    76  H    0.079464
    77  H    0.080471
    78  H    0.119783
    79  H    0.123033
    80  H    0.123892
    81  H    0.111888
    82  H    0.116692
    83  H    0.077703
    84  H    0.085692
    85  H    0.078515
    86  H    0.083331
    87  H    0.087283
    88  H    0.068011
    89  H    0.107443
    90  H    0.112655
    91  H    0.132887
    92  H    0.128098
    93  H    0.134720
    94  H    0.106511
    95  H    0.077749
    96  H    0.095161
    97  H    0.063612
    98  H    0.096714
 Sum of Mulliken charges =  -0.00000

 Dipole moment (field-independent basis, Debye):
    X=              0.5667    Y=             -1.1038    Z=              2.3110  Tot=              2.6230
 Quadrupole moment (field-independent basis, Debye-Ang):
   XX=           -287.9997   YY=           -240.6054   ZZ=           -260.5772
   XY=             -3.0701   XZ=              1.4302   YZ=              3.1947

 Normal termination of Gaussian 16 at Fri Jun 28 16:54:05 2019.
