 Gaussian 16, Revision A.03,
 Gaussian 16:  ES64L-G16RevA.03 25-Dec-2016

 -------------------------------------
 # td=(NStates=1) CAM-B3LYP/6-31G(d,p)
 -------------------------------------

 --
 TD
 --
 Symbolic Z-matrix:
 Charge =  0 Multiplicity = 1

                         Standard orientation:
 ---------------------------------------------------------------------
 Center     Atomic      Atomic             Coordinates (Angstroms)
 Number     Number       Type             X           Y           Z
 ---------------------------------------------------------------------
      1          8           0       14.764304   -2.079775   -0.349485
      2          8           0      -14.721687    1.917842    0.877305
      3          6           0       11.280274   -1.207755    1.177536
      4          6           0      -12.236660   -0.945860    0.828585
      5          6           0       12.855000   -1.353693    1.101857
      6          6           0      -13.641452   -0.246909    0.791647
      7          6           0       13.356595   -1.920101   -0.243587
      8          6           0      -13.476103    1.246075    0.849125
      9          6           0       10.911866   -0.326564    0.152904
     10          6           0      -11.353177   -0.190709   -0.177254
     11          6           0       12.958306   -0.902312   -1.242142
     12          6           0      -12.774431    1.847540   -0.301686
     13          6           0       11.567712   -0.186990   -1.063842
     14          6           0      -11.585964    1.059627   -0.722435
     15          6           0       11.150958   -0.439470    2.559668
     16          6           0       10.592646   -2.498352    1.208593
     17          6           0      -11.727055   -1.002259    2.154244
     18          6           0      -12.575486   -2.385953    0.239951
     19          6           0        9.638297    0.338120    0.242098
     20          6           0      -10.118616   -0.918700   -0.408230
     21          6           0       11.083004    0.528616   -2.345580
     22          6           0      -10.726902    1.673634   -1.786064
     23          6           0        9.403182    1.624406   -0.038187
     24          6           0       -8.822895   -0.545166   -0.305969
     25          6           0        8.051858    2.356645    0.077797
     26          6           0       -7.617140   -1.308673   -0.551443
     27          6           0        8.189925    3.820704    0.348735
     28          6           0       -7.733827   -2.693480   -0.857977
     29          6           0        6.906992    1.640235   -0.048900
     30          6           0       -6.431705   -0.647535   -0.402781
     31          6           0        5.545453    2.145151    0.145029
     32          6           0       -5.067133   -1.210753   -0.562703
     33          6           0        4.437164    1.259970    0.033876
     34          6           0       -3.988721   -0.390073   -0.402252
     35          6           0        3.149023    1.651784    0.118394
     36          6           0       -2.651690   -0.801966   -0.623276
     37          6           0        2.770819    3.046679    0.460438
     38          6           0       -2.324731   -2.265467   -1.021992
     39          6           0        2.200389    0.694374   -0.164644
     40          6           0       -1.563659    0.107914   -0.303240
     41          6           0        0.749475    0.792693   -0.060805
     42          6           0       -0.110105   -0.172635   -0.429939
     43          1           0       13.343898   -0.236135    1.167822
     44          1           0       13.418753   -2.100853    1.836335
     45          1           0      -14.075885   -0.726718    1.771195
     46          1           0      -14.203806   -0.554698   -0.223035
     47          1           0       12.647389   -2.719151   -0.346660
     48          1           0      -12.846157    1.384616    1.712023
     49          1           0       13.781248   -0.162877   -1.310380
     50          1           0       12.899926   -1.368031   -2.243964
     51          1           0      -13.679805    1.692341   -1.028434
     52          1           0      -12.359687    2.926152   -0.100828
     53          1           0       11.242063   -1.178065    3.357350
     54          1           0       10.207852   -0.205489    2.704182
     55          1           0       11.941683    0.539482    2.683688
     56          1           0       10.803678   -3.033075    0.296201
     57          1           0       11.061904   -3.127476    2.010259
     58          1           0        9.685572   -2.251215    1.293980
     59          1           0      -11.407853   -0.060779    2.572031
     60          1           0      -10.811600   -1.436768    2.220507
     61          1           0      -12.498432   -1.432630    2.915473
     62          1           0      -13.374093   -2.616128    0.887497
     63          1           0      -11.894941   -3.263638    0.599765
     64          1           0      -12.880565   -2.462706   -0.732952
     65          1           0        8.715255   -0.209684    0.645600
     66          1           0      -10.420481   -1.968669   -0.618855
     67          1           0        9.993733    0.458866   -2.276903
     68          1           0       11.657373    1.495899   -2.280979
     69          1           0       11.502435   -0.095562   -3.166241
     70          1           0      -11.215540    2.379626   -2.625955
     71          1           0       -9.927680    1.026385   -2.273154
     72          1           0       -9.940061    2.407123   -1.199443
     73          1           0       14.791758   -2.674539    0.386401
     74          1           0      -15.053782    1.650405    1.741945
     75          1           0       10.279476    2.316269   -0.327227
     76          1           0       -8.720706    0.468225    0.160242
     77          1           0        8.959544    4.135796   -0.469108
     78          1           0        7.264960    4.270877    0.458819
     79          1           0        8.555044    3.846790    1.467123
     80          1           0       -8.263327   -3.291194   -0.252786
     81          1           0       -8.262546   -2.871124   -1.803262
     82          1           0       -6.822106   -3.128478   -1.112618
     83          1           0        6.876184    0.551200   -0.379871
     84          1           0       -6.494458    0.402753    0.066488
     85          1           0        5.396572    3.133336    0.369772
     86          1           0       -4.818892   -2.177656   -0.851614
     87          1           0        4.615523    0.222988   -0.239176
     88          1           0       -4.330503    0.662760   -0.030875
     89          1           0        3.533044    3.313151    1.259644
     90          1           0        1.629724    2.996155    0.911066
     91          1           0        2.913611    3.834132   -0.147552
     92          1           0       -2.888013   -3.235180   -0.384102
     93          1           0       -2.583026   -2.425210   -2.084938
     94          1           0       -1.298484   -2.592919   -1.022001
     95          1           0        2.526931   -0.294744   -0.453817
     96          1           0       -1.815242    0.996537   -0.040018
     97          1           0        0.305256    1.655456    0.250015
     98          1           0        0.367429   -1.207196   -0.494536
 ---------------------------------------------------------------------

 SCF Done:  E(RCAM-B3LYP) =  -1706.96443338     A.U. after   14 cycles

 Excitation energies and oscillator strengths:

 Excited State   1:      Singlet-A      2.5083 eV  494.30 nm  f=3.6399  <S**2>=0.000
     155 ->158        -0.16116
     156 ->157         0.68540
 This state for optimization and/or second-order correction.
 Total Energy, E(TD-HF/TD-DFT) =  -1706.87225499
 Copying the excited state density for this state as the 1-particle RhoCI density.

 The electronic state is 1-A.
 Alpha  occ. eigenvalues --  -19.22401 -19.21234 -10.29404 -10.29305 -10.28554
 Alpha  occ. eigenvalues --  -10.27571 -10.27539 -10.27347 -10.27316 -10.27050
 Alpha  occ. eigenvalues --  -10.26969 -10.26955 -10.26947 -10.26736 -10.26709
 Alpha  occ. eigenvalues --  -10.26698 -10.26613 -10.26608 -10.26524 -10.26474
 Alpha  occ. eigenvalues --  -10.26404 -10.26380 -10.26365 -10.26214 -10.26180
 Alpha  occ. eigenvalues --  -10.26126 -10.26039 -10.25906 -10.25798 -10.25748
 Alpha  occ. eigenvalues --  -10.25718 -10.25656 -10.25536 -10.25443 -10.25158
 Alpha  occ. eigenvalues --  -10.25114 -10.24781 -10.24643 -10.24506 -10.24169
 Alpha  occ. eigenvalues --  -10.23988 -10.23242  -1.11523  -1.10260  -0.95232
 Alpha  occ. eigenvalues --   -0.94111  -0.92604  -0.91478  -0.90240  -0.89738
 Alpha  occ. eigenvalues --   -0.87665  -0.87461  -0.87085  -0.85599  -0.84895
 Alpha  occ. eigenvalues --   -0.82858  -0.81631  -0.80513  -0.79970  -0.78125
 Alpha  occ. eigenvalues --   -0.78094  -0.78025  -0.76961  -0.76600  -0.76259
 Alpha  occ. eigenvalues --   -0.75117  -0.74713  -0.74649  -0.73691  -0.70345
 Alpha  occ. eigenvalues --   -0.68313  -0.66820  -0.65416  -0.64974  -0.64168
 Alpha  occ. eigenvalues --   -0.63406  -0.62825  -0.62176  -0.60920  -0.60777
 Alpha  occ. eigenvalues --   -0.59849  -0.59275  -0.59198  -0.58501  -0.56645
 Alpha  occ. eigenvalues --   -0.56371  -0.55394  -0.54641  -0.54114  -0.53716
 Alpha  occ. eigenvalues --   -0.53334  -0.52710  -0.52438  -0.51985  -0.51127
 Alpha  occ. eigenvalues --   -0.50870  -0.50713  -0.50215  -0.49561  -0.49440
 Alpha  occ. eigenvalues --   -0.49074  -0.49009  -0.48456  -0.48170  -0.47936
 Alpha  occ. eigenvalues --   -0.47571  -0.47362  -0.47037  -0.46624  -0.46311
 Alpha  occ. eigenvalues --   -0.46026  -0.45674  -0.45296  -0.45125  -0.44863
 Alpha  occ. eigenvalues --   -0.44576  -0.44487  -0.44142  -0.43706  -0.43533
 Alpha  occ. eigenvalues --   -0.43345  -0.43061  -0.42670  -0.42436  -0.42199
 Alpha  occ. eigenvalues --   -0.41918  -0.41499  -0.41352  -0.41306  -0.41047
 Alpha  occ. eigenvalues --   -0.40835  -0.40573  -0.40387  -0.39851  -0.39509
 Alpha  occ. eigenvalues --   -0.39311  -0.39085  -0.38921  -0.38749  -0.38223
 Alpha  occ. eigenvalues --   -0.37993  -0.37373  -0.37059  -0.36382  -0.36276
 Alpha  occ. eigenvalues --   -0.36040  -0.34851  -0.33934  -0.31914  -0.31889
 Alpha  occ. eigenvalues --   -0.31546  -0.29562  -0.27357  -0.26108  -0.23477
 Alpha  occ. eigenvalues --   -0.20008
 Alpha virt. eigenvalues --   -0.04765  -0.00273   0.03072   0.05171   0.07879
 Alpha virt. eigenvalues --    0.09229   0.11055   0.11722   0.11898   0.12516
 Alpha virt. eigenvalues --    0.12716   0.13000   0.13499   0.13591   0.13801

 Mulliken charges:
               1
     1  O   -0.528224
     2  O   -0.543986
     3  C   -0.070321
     4  C   -0.011575
     5  C   -0.176826
     6  C   -0.178964
     7  C    0.145171
     8  C    0.148065
     9  C    0.120022
    10  C    0.022845
    11  C   -0.217790
    12  C   -0.214443
    13  C    0.001649
    14  C    0.090011
    15  C   -0.278948
    16  C   -0.274232
    17  C   -0.298530
    18  C   -0.312304
    19  C   -0.139322
    20  C   -0.141156
    21  C   -0.335663
    22  C   -0.364348
    23  C   -0.098443
    24  C   -0.110419
    25  C    0.056569
    26  C    0.148935
    27  C   -0.345141
    28  C   -0.383380
    29  C   -0.115794
    30  C   -0.154549
    31  C   -0.099061
    32  C   -0.076320
    33  C   -0.120654
    34  C   -0.103505
    35  C    0.163857
    36  C    0.086669
    37  C   -0.367324
    38  C   -0.367589
    39  C   -0.152571
    40  C   -0.113900
    41  C   -0.063072
    42  C   -0.088009
    43  H    0.079829
    44  H    0.042178
    45  H    0.069268
    46  H    0.085382
    47  H    0.079680
    48  H    0.079021
    49  H    0.117663
    50  H    0.092127
    51  H    0.114580
    52  H    0.106525
    53  H    0.090798
    54  H    0.107643
    55  H    0.087986
    56  H    0.107898
    57  H    0.103891
    58  H    0.109813
    59  H    0.109384
    60  H    0.120714
    61  H    0.086225
    62  H    0.103839
    63  H    0.084503
    64  H    0.123240
    65  H    0.082066
    66  H    0.080403
    67  H    0.134928
    68  H    0.123901
    69  H    0.106411
    70  H    0.102911
    71  H    0.126726
    72  H    0.084407
    73  H    0.303072
    74  H    0.301547
    75  H    0.073502
    76  H    0.075580
    77  H    0.121826
    78  H    0.119240
    79  H    0.117557
    80  H    0.133242
    81  H    0.114116
    82  H    0.111360
    83  H    0.079566
    84  H    0.080231
    85  H    0.073055
    86  H    0.085692
    87  H    0.080768
    88  H    0.080014
    89  H    0.102574
    90  H    0.093180
    91  H    0.139993
    92  H    0.081679
    93  H    0.125597
    94  H    0.119503
    95  H    0.073360
    96  H    0.071865
    97  H    0.073413
    98  H    0.087091
 Sum of Mulliken charges =  -0.00000

 Dipole moment (field-independent basis, Debye):
    X=              0.2607    Y=             -1.6171    Z=              2.3138  Tot=              2.8349
 Quadrupole moment (field-independent basis, Debye-Ang):
   XX=           -299.2318   YY=           -243.9921   ZZ=           -260.4267
   XY=             14.3499   XZ=             -8.2707   YZ=              1.6597

 Normal termination of Gaussian 16 at Wed Jul 10 04:06:28 2019.
