 Gaussian 16, Revision A.03,
 Gaussian 16:  ES64L-G16RevA.03 25-Dec-2016

 -------------------------------------
 # td=(NStates=1) CAM-B3LYP/6-31G(d,p)
 -------------------------------------

 --
 TD
 --
 Symbolic Z-matrix:
 Charge =  0 Multiplicity = 1

                         Standard orientation:
 ---------------------------------------------------------------------
 Center     Atomic      Atomic             Coordinates (Angstroms)
 Number     Number       Type             X           Y           Z
 ---------------------------------------------------------------------
      1          8           0       14.650687   -2.152813   -0.248027
      2          8           0      -14.535858    2.329767    0.554566
      3          6           0       11.427886   -1.063609    1.241892
      4          6           0      -12.285618   -0.788895    0.867394
      5          6           0       12.887126   -1.387650    1.065527
      6          6           0      -13.618743    0.012190    0.629954
      7          6           0       13.305806   -1.942827   -0.284446
      8          6           0      -13.348435    1.538757    0.679724
      9          6           0       10.859334   -0.261957    0.018428
     10          6           0      -11.243166   -0.300245   -0.248878
     11          6           0       12.905415   -1.022574   -1.343778
     12          6           0      -12.470776    1.777216   -0.564608
     13          6           0       11.535422   -0.282608   -1.153312
     14          6           0      -11.356702    0.913790   -0.843993
     15          6           0       11.283163   -0.156769    2.492658
     16          6           0       10.433134   -2.223467    1.404761
     17          6           0      -11.578477   -0.596139    2.257354
     18          6           0      -12.722615   -2.280308    0.733032
     19          6           0        9.484784    0.461329    0.138653
     20          6           0      -10.070102   -1.152053   -0.440549
     21          6           0       11.228352    0.445824   -2.437891
     22          6           0      -10.511017    1.411935   -1.900847
     23          6           0        9.287209    1.675566   -0.126875
     24          6           0       -8.851988   -0.730055   -0.290075
     25          6           0        7.907982    2.335818   -0.019061
     26          6           0       -7.589242   -1.429617   -0.473121
     27          6           0        8.018769    3.893507    0.125027
     28          6           0       -7.618422   -2.910841   -0.915986
     29          6           0        6.803376    1.633434    0.098721
     30          6           0       -6.368245   -0.813706   -0.291409
     31          6           0        5.421591    2.128221    0.274043
     32          6           0       -5.130854   -1.433588   -0.396335
     33          6           0        4.417630    1.240649    0.140128
     34          6           0       -3.980988   -0.653333   -0.343105
     35          6           0        2.984989    1.653586    0.175860
     36          6           0       -2.664062   -0.956288   -0.368261
     37          6           0        2.774004    3.104658    0.542583
     38          6           0       -2.325774   -2.471859   -0.812677
     39          6           0        2.108897    0.679064   -0.101945
     40          6           0       -1.639413   -0.106218   -0.214845
     41          6           0        0.629465    0.831131   -0.152154
     42          6           0       -0.215395   -0.248605   -0.339782
     43          1           0       13.607095   -0.502947    1.129540
     44          1           0       13.024420   -2.013819    1.882672
     45          1           0      -14.275989   -0.338153    1.585284
     46          1           0      -13.984458   -0.274166   -0.220611
     47          1           0       12.651089   -2.914364   -0.583439
     48          1           0      -12.624942    1.563552    1.397168
     49          1           0       13.476917   -0.034394   -1.193730
     50          1           0       13.114511   -1.348434   -2.392327
     51          1           0      -13.113883    1.735494   -1.193634
     52          1           0      -12.100178    2.795767   -0.582755
     53          1           0       11.656407   -0.709466    3.187402
     54          1           0       10.212309    0.121781    2.740510
     55          1           0       11.923838    0.677399    2.217226
     56          1           0       10.572730   -2.990607    0.555140
     57          1           0       10.722306   -2.896368    2.197518
     58          1           0        9.481215   -2.015036    1.460233
     59          1           0      -11.571158    0.413504    2.387674
     60          1           0      -10.674791   -1.319669    2.214123
     61          1           0      -12.249422   -0.947196    2.915551
     62          1           0      -13.599385   -2.392151    1.487674
     63          1           0      -12.063478   -2.998490    0.892786
     64          1           0      -13.309339   -2.496799   -0.304148
     65          1           0        8.841253   -0.206234    0.418634
     66          1           0      -10.207497   -2.246768   -0.862699
     67          1           0       10.290423    1.057084   -2.177353
     68          1           0       12.387113    1.096068   -2.661658
     69          1           0       11.023190   -0.348536   -3.353574
     70          1           0      -11.016305    1.818413   -2.614379
     71          1           0       -9.721288    0.706573   -2.248240
     72          1           0      -10.055138    2.205389   -1.450402
     73          1           0       14.772130   -3.049469    0.368482
     74          1           0      -15.278715    2.236003    1.301940
     75          1           0       10.212794    2.425088   -0.466080
     76          1           0       -8.829743    0.218276    0.368034
     77          1           0        9.050209    4.052183   -0.648453
     78          1           0        6.946984    4.593619   -0.128195
     79          1           0        8.210092    4.245907    1.189828
     80          1           0       -8.099296   -3.623140   -0.184186
     81          1           0       -8.320572   -3.138795   -1.693743
     82          1           0       -6.455004   -3.110508   -1.017249
     83          1           0        6.898603    0.594709   -0.209081
     84          1           0       -6.387887    0.253884    0.110178
     85          1           0        5.399450    3.064744    0.706766
     86          1           0       -5.040745   -2.582952   -0.651519
     87          1           0        4.777865    0.236462   -0.125097
     88          1           0       -4.333928    0.431790   -0.033622
     89          1           0        3.194683    3.215350    1.420104
     90          1           0        1.698938    3.452269    0.502214
     91          1           0        3.332378    4.043789    0.044904
     92          1           0       -2.717927   -2.983853    0.064871
     93          1           0       -3.106902   -2.783410   -1.570311
     94          1           0       -1.327920   -2.701049   -1.033935
     95          1           0        2.505221   -0.457019   -0.156285
     96          1           0       -1.876533    0.920761   -0.102834
     97          1           0        0.506189    1.943830    0.214125
     98          1           0        0.247646   -1.252318   -0.484170
 ---------------------------------------------------------------------

 SCF Done:  E(RCAM-B3LYP) =  -1706.81829586     A.U. after   14 cycles

 Excitation energies and oscillator strengths:

 Excited State   1:      Singlet-A      2.7692 eV  447.73 nm  f=3.5548  <S**2>=0.000
     155 ->158         0.14642
     156 ->157         0.68883
 This state for optimization and/or second-order correction.
 Total Energy, E(TD-HF/TD-DFT) =  -1706.71653022
 Copying the excited state density for this state as the 1-particle RhoCI density.

 The electronic state is 1-A.
 Alpha  occ. eigenvalues --  -19.22803 -19.22582 -10.30692 -10.29785 -10.29712
 Alpha  occ. eigenvalues --  -10.28189 -10.28180 -10.28174 -10.27675 -10.27472
 Alpha  occ. eigenvalues --  -10.27463 -10.27460 -10.27361 -10.27166 -10.27028
 Alpha  occ. eigenvalues --  -10.26905 -10.26879 -10.26695 -10.26633 -10.26484
 Alpha  occ. eigenvalues --  -10.26336 -10.26310 -10.26050 -10.25758 -10.25660
 Alpha  occ. eigenvalues --  -10.25599 -10.25524 -10.25477 -10.25445 -10.25401
 Alpha  occ. eigenvalues --  -10.25397 -10.25131 -10.25034 -10.24992 -10.24640
 Alpha  occ. eigenvalues --  -10.24571 -10.24493 -10.23965 -10.23567 -10.23105
 Alpha  occ. eigenvalues --  -10.22221 -10.22203  -1.10502  -1.07537  -0.93838
 Alpha  occ. eigenvalues --   -0.93206  -0.92236  -0.91746  -0.90378  -0.89906
 Alpha  occ. eigenvalues --   -0.87985  -0.87451  -0.86813  -0.86106  -0.84916
 Alpha  occ. eigenvalues --   -0.82991  -0.82125  -0.80642  -0.79858  -0.78618
 Alpha  occ. eigenvalues --   -0.77418  -0.77029  -0.76177  -0.75989  -0.75631
 Alpha  occ. eigenvalues --   -0.75545  -0.75249  -0.73929  -0.73824  -0.70869
 Alpha  occ. eigenvalues --   -0.68410  -0.67330  -0.66079  -0.64525  -0.64041
 Alpha  occ. eigenvalues --   -0.62913  -0.62635  -0.61699  -0.60462  -0.60406
 Alpha  occ. eigenvalues --   -0.60027  -0.58723  -0.58585  -0.57259  -0.56243
 Alpha  occ. eigenvalues --   -0.55892  -0.55504  -0.54823  -0.54329  -0.53518
 Alpha  occ. eigenvalues --   -0.53100  -0.52972  -0.52392  -0.52285  -0.51573
 Alpha  occ. eigenvalues --   -0.50878  -0.50654  -0.50049  -0.49618  -0.49296
 Alpha  occ. eigenvalues --   -0.49158  -0.48571  -0.48406  -0.47888  -0.47480
 Alpha  occ. eigenvalues --   -0.47267  -0.46924  -0.46367  -0.46193  -0.46116
 Alpha  occ. eigenvalues --   -0.46030  -0.45717  -0.45622  -0.45276  -0.45168
 Alpha  occ. eigenvalues --   -0.44935  -0.44720  -0.44330  -0.44237  -0.43632
 Alpha  occ. eigenvalues --   -0.43539  -0.43072  -0.42832  -0.42659  -0.42248
 Alpha  occ. eigenvalues --   -0.42132  -0.41856  -0.41460  -0.40876  -0.40564
 Alpha  occ. eigenvalues --   -0.40146  -0.39643  -0.39595  -0.39225  -0.39015
 Alpha  occ. eigenvalues --   -0.38693  -0.37939  -0.37853  -0.37780  -0.37271
 Alpha  occ. eigenvalues --   -0.37091  -0.36982  -0.36467  -0.36431  -0.35783
 Alpha  occ. eigenvalues --   -0.35611  -0.34028  -0.33285  -0.32312  -0.32227
 Alpha  occ. eigenvalues --   -0.31670  -0.29549  -0.27743  -0.26865  -0.24702
 Alpha  occ. eigenvalues --   -0.20920
 Alpha virt. eigenvalues --   -0.04550   0.00361   0.03983   0.06687   0.08021
 Alpha virt. eigenvalues --    0.08935   0.09400   0.10408   0.10559   0.11221
 Alpha virt. eigenvalues --    0.11470   0.11829   0.12240   0.12435   0.13220

 Mulliken charges:
               1
     1  O   -0.540745
     2  O   -0.590960
     3  C   -0.035126
     4  C   -0.052318
     5  C   -0.187779
     6  C   -0.167800
     7  C    0.180805
     8  C    0.184936
     9  C    0.006614
    10  C    0.027495
    11  C   -0.215539
    12  C   -0.215325
    13  C    0.051814
    14  C    0.061862
    15  C   -0.274475
    16  C   -0.306309
    17  C   -0.285128
    18  C   -0.292171
    19  C   -0.077270
    20  C   -0.151627
    21  C   -0.315442
    22  C   -0.345689
    23  C   -0.095817
    24  C   -0.079556
    25  C    0.080234
    26  C    0.087696
    27  C   -0.332504
    28  C   -0.356372
    29  C   -0.140392
    30  C   -0.117194
    31  C   -0.053473
    32  C   -0.083740
    33  C   -0.120029
    34  C   -0.130313
    35  C    0.113881
    36  C    0.121083
    37  C   -0.376628
    38  C   -0.373463
    39  C   -0.133574
    40  C   -0.132247
    41  C   -0.077561
    42  C   -0.098307
    43  H    0.105358
    44  H    0.083212
    45  H    0.047897
    46  H    0.106434
    47  H    0.043623
    48  H    0.085388
    49  H    0.104102
    50  H    0.108796
    51  H    0.127519
    52  H    0.093841
    53  H    0.101964
    54  H    0.095376
    55  H    0.103854
    56  H    0.087951
    57  H    0.091302
    58  H    0.119123
    59  H    0.108090
    60  H    0.111726
    61  H    0.105164
    62  H    0.086269
    63  H    0.107344
    64  H    0.078640
    65  H    0.084431
    66  H    0.069743
    67  H    0.110755
    68  H    0.064421
    69  H    0.095291
    70  H    0.118232
    71  H    0.118235
    72  H    0.120401
    73  H    0.315237
    74  H    0.319160
    75  H    0.086286
    76  H    0.078750
    77  H    0.083894
    78  H    0.076104
    79  H    0.127495
    80  H    0.109483
    81  H    0.123324
    82  H    0.088054
    83  H    0.073548
    84  H    0.087707
    85  H    0.080579
    86  H    0.092490
    87  H    0.089332
    88  H    0.071112
    89  H    0.149369
    90  H    0.107596
    91  H    0.106922
    92  H    0.125411
    93  H    0.115123
    94  H    0.113920
    95  H    0.076454
    96  H    0.079355
    97  H    0.086515
    98  H    0.090753
 Sum of Mulliken charges =  -0.00000

 Dipole moment (field-independent basis, Debye):
    X=             -0.8278    Y=             -1.5586    Z=              2.7001  Tot=              3.2257
 Quadrupole moment (field-independent basis, Debye-Ang):
   XX=           -257.4888   YY=           -243.9803   ZZ=           -263.7118
   XY=             -9.4372   XZ=              0.6574   YZ=              3.2748

 Normal termination of Gaussian 16 at Tue Jul  9 00:14:41 2019.
