 Gaussian 16, Revision A.03,
 Gaussian 16:  ES64L-G16RevA.03 25-Dec-2016

 -------------------------------------
 # td=(NStates=1) CAM-B3LYP/6-31G(d,p)
 -------------------------------------

 --
 TD
 --
 Symbolic Z-matrix:
 Charge =  0 Multiplicity = 1

                         Standard orientation:
 ---------------------------------------------------------------------
 Center     Atomic      Atomic             Coordinates (Angstroms)
 Number     Number       Type             X           Y           Z
 ---------------------------------------------------------------------
      1          8           0       14.622357   -2.192443   -0.445438
      2          8           0      -14.720514    2.132274    0.949989
      3          6           0       11.458455   -1.020665    1.296538
      4          6           0      -12.276989   -0.840971    0.832864
      5          6           0       13.040450   -1.321718    1.100611
      6          6           0      -13.631227   -0.163703    0.810315
      7          6           0       13.339963   -1.868794   -0.244377
      8          6           0      -13.472433    1.330807    0.822987
      9          6           0       11.063598   -0.194013    0.074598
     10          6           0      -11.342383   -0.207557   -0.141274
     11          6           0       13.137550   -0.779411   -1.257904
     12          6           0      -12.815717    1.761052   -0.537983
     13          6           0       11.697338   -0.083136   -1.073680
     14          6           0      -11.569637    0.990421   -0.782539
     15          6           0       11.408264   -0.119984    2.549708
     16          6           0       10.624885   -2.318139    1.435927
     17          6           0      -11.699677   -0.942762    2.220442
     18          6           0      -12.703854   -2.333385    0.365474
     19          6           0        9.664657    0.315350    0.271090
     20          6           0      -10.054470   -0.993148   -0.424372
     21          6           0       11.233486    0.588341   -2.272365
     22          6           0      -10.713221    1.546990   -1.789279
     23          6           0        9.277217    1.548469   -0.016890
     24          6           0       -8.715345   -0.523995   -0.161789
     25          6           0        7.993800    2.210045    0.108705
     26          6           0       -7.578863   -1.339811   -0.492334
     27          6           0        7.993695    3.623760    0.396623
     28          6           0       -7.700839   -2.704207   -0.987500
     29          6           0        6.842108    1.481432   -0.119549
     30          6           0       -6.367937   -0.708756   -0.233719
     31          6           0        5.479448    1.923236    0.027189
     32          6           0       -5.035750   -1.234091   -0.498881
     33          6           0        4.365997    1.125541   -0.179153
     34          6           0       -3.933099   -0.476168   -0.430963
     35          6           0        2.868580    1.633912   -0.028791
     36          6           0       -2.577666   -0.914642   -0.585405
     37          6           0        2.716172    2.996990    0.531846
     38          6           0       -2.282768   -2.369112   -0.800132
     39          6           0        2.079415    0.651348   -0.274058
     40          6           0       -1.646159    0.005022   -0.332052
     41          6           0        0.629285    0.842572   -0.230795
     42          6           0       -0.225581   -0.240950   -0.384344
     43          1           0       13.517996   -0.284886    1.277615
     44          1           0       13.573673   -2.005484    1.707817
     45          1           0      -14.218904   -0.670665    1.541129
     46          1           0      -14.143845   -0.432220   -0.206443
     47          1           0       12.550547   -2.717460   -0.439628
     48          1           0      -12.832330    1.769249    1.526646
     49          1           0       13.780631    0.196624   -1.157164
     50          1           0       13.169914   -1.097286   -2.321623
     51          1           0      -13.596220    1.791319   -1.255765
     52          1           0      -12.666670    2.891426   -0.523687
     53          1           0       12.067684   -0.620459    3.549486
     54          1           0       10.346525    0.032089    2.920993
     55          1           0       11.914874    0.693524    2.384325
     56          1           0       10.424216   -2.938269    0.492949
     57          1           0       10.823889   -3.041167    2.174820
     58          1           0        9.619874   -1.882710    1.521765
     59          1           0      -11.623510    0.144520    2.435829
     60          1           0      -10.758640   -1.629012    2.266384
     61          1           0      -12.239969   -1.480781    3.099106
     62          1           0      -13.339183   -2.771975    1.104869
     63          1           0      -11.936048   -3.052194    0.543522
     64          1           0      -13.093950   -2.577673   -0.698981
     65          1           0        8.903900   -0.443604    0.750068
     66          1           0      -10.162089   -1.961502   -0.843792
     67          1           0       10.168091    0.708014   -2.148526
     68          1           0       11.615846    1.735643   -2.467261
     69          1           0       11.243623    0.006253   -3.280053
     70          1           0      -11.282743    1.981547   -2.663455
     71          1           0       -9.852124    1.068804   -2.219602
     72          1           0      -10.172298    2.388165   -1.452921
     73          1           0       14.939530   -3.194197   -0.080807
     74          1           0      -15.091710    2.122394    1.795014
     75          1           0       10.138299    2.357819   -0.191572
     76          1           0       -8.569911    0.417513    0.395162
     77          1           0        8.582784    4.306372   -0.319079
     78          1           0        7.070040    4.168516    0.523952
     79          1           0        8.684946    3.871791    1.418753
     80          1           0       -8.447540   -3.546653   -0.379388
     81          1           0       -8.199486   -2.535656   -2.068279
     82          1           0       -6.887992   -3.110975   -1.078923
     83          1           0        6.805315    0.370934   -0.231430
     84          1           0       -6.430941    0.319052    0.100526
     85          1           0        5.129525    2.794585    0.403463
     86          1           0       -4.821515   -2.193575   -0.583885
     87          1           0        4.641742    0.248315   -0.563823
     88          1           0       -4.078509    0.473074   -0.144960
     89          1           0        3.270119    3.017859    1.558722
     90          1           0        1.721801    3.193601    0.613909
     91          1           0        3.071907    3.817630   -0.097686
     92          1           0       -2.384142   -2.957210    0.195159
     93          1           0       -3.193769   -2.895387   -1.506503
     94          1           0       -1.207726   -2.675239   -1.318839
     95          1           0        2.430438   -0.299979   -0.594551
     96          1           0       -1.944062    0.913356   -0.024181
     97          1           0        0.055526    1.639717   -0.047847
     98          1           0        0.273354   -1.199183   -0.816468
 ---------------------------------------------------------------------

 SCF Done:  E(RCAM-B3LYP) =  -1706.93008242     A.U. after   13 cycles

 Excitation energies and oscillator strengths:

 Excited State   1:      Singlet-A      2.9863 eV  415.17 nm  f=3.7073  <S**2>=0.000
     155 ->158         0.20265
     156 ->157         0.66911
 This state for optimization and/or second-order correction.
 Total Energy, E(TD-HF/TD-DFT) =  -1706.82033703
 Copying the excited state density for this state as the 1-particle RhoCI density.

 The electronic state is 1-A.
 Alpha  occ. eigenvalues --  -19.22082 -19.19472 -10.29994 -10.29792 -10.29048
 Alpha  occ. eigenvalues --  -10.28059 -10.27449 -10.27448 -10.27164 -10.27033
 Alpha  occ. eigenvalues --  -10.26944 -10.26718 -10.26684 -10.26532 -10.26498
 Alpha  occ. eigenvalues --  -10.26417 -10.26329 -10.26269 -10.26237 -10.26221
 Alpha  occ. eigenvalues --  -10.26165 -10.26135 -10.26112 -10.26068 -10.25831
 Alpha  occ. eigenvalues --  -10.25663 -10.25603 -10.25573 -10.25459 -10.25329
 Alpha  occ. eigenvalues --  -10.25198 -10.25131 -10.25105 -10.24931 -10.24903
 Alpha  occ. eigenvalues --  -10.24857 -10.24612 -10.24522 -10.24506 -10.24438
 Alpha  occ. eigenvalues --  -10.23978 -10.23684  -1.10231  -1.07078  -0.93686
 Alpha  occ. eigenvalues --   -0.93182  -0.92757  -0.91787  -0.90656  -0.90237
 Alpha  occ. eigenvalues --   -0.87422  -0.87013  -0.86216  -0.85047  -0.83943
 Alpha  occ. eigenvalues --   -0.83259  -0.82278  -0.79894  -0.79794  -0.78998
 Alpha  occ. eigenvalues --   -0.77044  -0.76704  -0.75899  -0.75830  -0.75393
 Alpha  occ. eigenvalues --   -0.75282  -0.74870  -0.74429  -0.73968  -0.70161
 Alpha  occ. eigenvalues --   -0.68310  -0.67239  -0.65226  -0.64488  -0.64212
 Alpha  occ. eigenvalues --   -0.63907  -0.63012  -0.62849  -0.62041  -0.60605
 Alpha  occ. eigenvalues --   -0.59499  -0.58790  -0.58364  -0.58221  -0.56343
 Alpha  occ. eigenvalues --   -0.55570  -0.55201  -0.54512  -0.54294  -0.53705
 Alpha  occ. eigenvalues --   -0.53311  -0.52744  -0.51980  -0.51563  -0.51191
 Alpha  occ. eigenvalues --   -0.50783  -0.50335  -0.49959  -0.49352  -0.49149
 Alpha  occ. eigenvalues --   -0.48898  -0.48414  -0.48173  -0.47921  -0.47559
 Alpha  occ. eigenvalues --   -0.47269  -0.46831  -0.46548  -0.46358  -0.46286
 Alpha  occ. eigenvalues --   -0.46041  -0.45681  -0.44832  -0.44730  -0.44410
 Alpha  occ. eigenvalues --   -0.44279  -0.43977  -0.43823  -0.43396  -0.43142
 Alpha  occ. eigenvalues --   -0.42963  -0.42581  -0.42406  -0.42342  -0.41831
 Alpha  occ. eigenvalues --   -0.41720  -0.41341  -0.40900  -0.40512  -0.40447
 Alpha  occ. eigenvalues --   -0.40348  -0.40203  -0.40119  -0.39850  -0.39502
 Alpha  occ. eigenvalues --   -0.39479  -0.39059  -0.37962  -0.37764  -0.37711
 Alpha  occ. eigenvalues --   -0.36976  -0.36876  -0.36348  -0.35338  -0.35120
 Alpha  occ. eigenvalues --   -0.34897  -0.34105  -0.33055  -0.32159  -0.31957
 Alpha  occ. eigenvalues --   -0.30956  -0.29049  -0.28135  -0.26447  -0.23565
 Alpha  occ. eigenvalues --   -0.21048
 Alpha virt. eigenvalues --   -0.03307  -0.00094   0.03060   0.06368   0.07113
 Alpha virt. eigenvalues --    0.08841   0.09279   0.10931   0.11559   0.12131
 Alpha virt. eigenvalues --    0.12718   0.13025   0.13390   0.13826   0.14008

 Mulliken charges:
               1
     1  O   -0.555084
     2  O   -0.590426
     3  C   -0.019522
     4  C   -0.021694
     5  C   -0.169006
     6  C   -0.169265
     7  C    0.203335
     8  C    0.157208
     9  C    0.059080
    10  C    0.036177
    11  C   -0.194940
    12  C   -0.249751
    13  C    0.058233
    14  C    0.118282
    15  C   -0.269520
    16  C   -0.308360
    17  C   -0.293024
    18  C   -0.325693
    19  C   -0.123896
    20  C   -0.161590
    21  C   -0.375510
    22  C   -0.386217
    23  C   -0.111528
    24  C   -0.100805
    25  C    0.136512
    26  C    0.130823
    27  C   -0.382669
    28  C   -0.320169
    29  C   -0.134646
    30  C   -0.147684
    31  C   -0.063540
    32  C   -0.076813
    33  C   -0.133103
    34  C   -0.093700
    35  C    0.121541
    36  C    0.143203
    37  C   -0.374623
    38  C   -0.367625
    39  C   -0.107258
    40  C   -0.128254
    41  C   -0.081215
    42  C   -0.091002
    43  H    0.080568
    44  H    0.068165
    45  H    0.093374
    46  H    0.098041
    47  H    0.059092
    48  H    0.094253
    49  H    0.106467
    50  H    0.096726
    51  H    0.130708
    52  H    0.099362
    53  H    0.051614
    54  H    0.099381
    55  H    0.123350
    56  H    0.096494
    57  H    0.116375
    58  H    0.094273
    59  H    0.100780
    60  H    0.107722
    61  H    0.089209
    62  H    0.101648
    63  H    0.091579
    64  H    0.099094
    65  H    0.089840
    66  H    0.097632
    67  H    0.130069
    68  H    0.094690
    69  H    0.100050
    70  H    0.100618
    71  H    0.122443
    72  H    0.119886
    73  H    0.301277
    74  H    0.296899
    75  H    0.074518
    76  H    0.091319
    77  H    0.114173
    78  H    0.125497
    79  H    0.086903
    80  H    0.086290
    81  H    0.106264
    82  H    0.109831
    83  H    0.082173
    84  H    0.079311
    85  H    0.054732
    86  H    0.064949
    87  H    0.059971
    88  H    0.064293
    89  H    0.127379
    90  H    0.118217
    91  H    0.131116
    92  H    0.127039
    93  H    0.081922
    94  H    0.101113
    95  H    0.096366
    96  H    0.079409
    97  H    0.073299
    98  H    0.075977
 Sum of Mulliken charges =  -0.00000

 Dipole moment (field-independent basis, Debye):
    X=              0.6365    Y=             -1.4536    Z=              1.7477  Tot=              2.3606
 Quadrupole moment (field-independent basis, Debye-Ang):
   XX=           -296.8588   YY=           -237.4861   ZZ=           -260.7998
   XY=             -0.6231   XZ=             -8.2847   YZ=              2.0551

 Normal termination of Gaussian 16 at Wed Jul  3 16:42:19 2019.
