 Gaussian 16, Revision A.03,
 Gaussian 16:  ES64L-G16RevA.03 25-Dec-2016

 -------------------------------------
 # td=(NStates=1) CAM-B3LYP/6-31G(d,p)
 -------------------------------------

 --
 TD
 --
 Symbolic Z-matrix:
 Charge =  0 Multiplicity = 1

                         Standard orientation:
 ---------------------------------------------------------------------
 Center     Atomic      Atomic             Coordinates (Angstroms)
 Number     Number       Type             X           Y           Z
 ---------------------------------------------------------------------
      1          8           0       14.717026   -2.386230   -0.318619
      2          8           0      -14.795932    1.702729    0.887907
      3          6           0       11.418188   -1.077245    1.243359
      4          6           0      -12.255409   -1.085946    0.902783
      5          6           0       12.976163   -1.363241    1.100954
      6          6           0      -13.629360   -0.408427    0.772481
      7          6           0       13.352753   -2.026576   -0.248045
      8          6           0      -13.590153    1.042550    0.904900
      9          6           0       10.978772   -0.331425   -0.031069
     10          6           0      -11.352696   -0.312288   -0.068851
     11          6           0       13.023730   -0.906400   -1.262290
     12          6           0      -12.814152    1.675868   -0.308914
     13          6           0       11.737629   -0.242833   -1.124415
     14          6           0      -11.617145    0.886922   -0.693527
     15          6           0       11.257173   -0.318510    2.473636
     16          6           0       10.660285   -2.416078    1.444469
     17          6           0      -11.588257   -1.045475    2.321148
     18          6           0      -12.426431   -2.508048    0.434580
     19          6           0        9.578557    0.171437    0.126576
     20          6           0      -10.121874   -1.000133   -0.495610
     21          6           0       11.206206    0.357460   -2.399292
     22          6           0      -10.823331    1.545343   -1.844772
     23          6           0        9.299829    1.508950   -0.010547
     24          6           0       -8.858510   -0.452092   -0.266572
     25          6           0        8.001121    2.250235    0.062550
     26          6           0       -7.574582   -1.125054   -0.538470
     27          6           0        8.145868    3.720097    0.295957
     28          6           0       -7.716186   -2.432186   -1.164544
     29          6           0        6.837868    1.543343   -0.118042
     30          6           0       -6.407595   -0.452318   -0.432408
     31          6           0        5.586410    2.069126    0.167351
     32          6           0       -5.175365   -0.916427   -0.706835
     33          6           0        4.405690    1.299673   -0.010493
     34          6           0       -3.962787   -0.216928   -0.273268
     35          6           0        3.107852    1.668434    0.233017
     36          6           0       -2.689770   -0.697494   -0.621016
     37          6           0        2.856654    3.117373    0.634634
     38          6           0       -2.432261   -2.067601   -1.140610
     39          6           0        2.060820    0.890134   -0.142167
     40          6           0       -1.635804    0.193760   -0.256620
     41          6           0        0.705758    1.045753   -0.043579
     42          6           0       -0.159155    0.085273   -0.334007
     43          1           0       13.572001   -0.357836    1.401228
     44          1           0       13.601798   -1.945437    2.005529
     45          1           0      -14.322481   -0.930608    1.327909
     46          1           0      -14.067938   -0.618703   -0.301839
     47          1           0       12.570506   -2.759345   -0.483646
     48          1           0      -12.946451    1.258517    1.756981
     49          1           0       14.067247   -0.215370   -1.173926
     50          1           0       13.340670   -1.326035   -2.262041
     51          1           0      -13.622555    1.503105   -1.080365
     52          1           0      -12.552817    2.684696   -0.133343
     53          1           0       11.552672   -1.002315    3.327039
     54          1           0       10.289591   -0.128400    2.791000
     55          1           0       11.669543    0.744058    2.685917
     56          1           0       10.768372   -2.954532    0.547283
     57          1           0       11.121015   -3.086163    2.345057
     58          1           0        9.633439   -2.114843    1.409643
     59          1           0      -11.391389   -0.050778    2.568755
     60          1           0      -10.622808   -1.765043    2.386197
     61          1           0      -12.296741   -1.544677    3.056115
     62          1           0      -13.417506   -2.840871    0.842474
     63          1           0      -11.570471   -3.183571    0.791947
     64          1           0      -12.421192   -2.362476   -0.700503
     65          1           0        8.631477   -0.348975    0.681163
     66          1           0      -10.166397   -2.053722   -1.089786
     67          1           0       10.139698    0.764197   -2.284245
     68          1           0       11.732133    1.266938   -2.277734
     69          1           0       11.315011   -0.136937   -3.363882
     70          1           0      -11.476700    2.015780   -2.455734
     71          1           0       -9.993211    1.029227   -2.355262
     72          1           0      -10.362515    2.498601   -1.402942
     73          1           0       15.043582   -2.991725    0.264287
     74          1           0      -15.226279    1.662145    1.757361
     75          1           0       10.238195    2.065555   -0.223147
     76          1           0       -8.557984    0.612914   -0.097400
     77          1           0        8.563795    4.044974   -0.713950
     78          1           0        7.332924    4.333337    0.489891
     79          1           0        8.804558    3.839259    1.162835
     80          1           0       -8.362841   -3.091101   -0.487835
     81          1           0       -8.316976   -2.401535   -2.149879
     82          1           0       -6.815667   -2.974282   -1.313380
     83          1           0        6.946241    0.490202   -0.289558
     84          1           0       -6.594459    0.441543    0.198805
     85          1           0        5.361833    2.974535    0.560113
     86          1           0       -4.899047   -2.025482   -1.110240
     87          1           0        4.582035    0.354833   -0.486459
     88          1           0       -4.269734    0.647191    0.175282
     89          1           0        3.010521    3.244979    1.754016
     90          1           0        1.896912    3.508956    0.396689
     91          1           0        3.530314    3.758502    0.073121
     92          1           0       -3.006004   -3.017160   -0.496165
     93          1           0       -2.763600   -2.091349   -2.149353
     94          1           0       -1.298162   -2.130670   -1.173838
     95          1           0        2.173051   -0.144491   -0.380983
     96          1           0       -2.030899    1.238083    0.051053
     97          1           0        0.300987    1.958918    0.354232
     98          1           0        0.014945   -0.892633   -0.773378
 ---------------------------------------------------------------------

 SCF Done:  E(RCAM-B3LYP) =  -1707.00112440     A.U. after   15 cycles

 Excitation energies and oscillator strengths:

 Excited State   1:      Singlet-A      2.2188 eV  558.79 nm  f=3.8629  <S**2>=0.000
     155 ->158         0.15458
     156 ->157         0.69050
 This state for optimization and/or second-order correction.
 Total Energy, E(TD-HF/TD-DFT) =  -1706.91958565
 Copying the excited state density for this state as the 1-particle RhoCI density.

 The electronic state is 1-A.
 Alpha  occ. eigenvalues --  -19.21656 -19.21110 -10.30926 -10.29668 -10.27902
 Alpha  occ. eigenvalues --  -10.27735 -10.27678 -10.27623 -10.27303 -10.27283
 Alpha  occ. eigenvalues --  -10.27149 -10.27083 -10.27062 -10.26947 -10.26609
 Alpha  occ. eigenvalues --  -10.26607 -10.26508 -10.26477 -10.26471 -10.26405
 Alpha  occ. eigenvalues --  -10.26392 -10.26070 -10.26038 -10.25813 -10.25762
 Alpha  occ. eigenvalues --  -10.25608 -10.25556 -10.25524 -10.25413 -10.25364
 Alpha  occ. eigenvalues --  -10.25349 -10.25268 -10.25249 -10.25202 -10.25058
 Alpha  occ. eigenvalues --  -10.24986 -10.24900 -10.24631 -10.24553 -10.24420
 Alpha  occ. eigenvalues --  -10.24345 -10.23669  -1.11051  -1.10522  -0.93962
 Alpha  occ. eigenvalues --   -0.93485  -0.92650  -0.91821  -0.90839  -0.89930
 Alpha  occ. eigenvalues --   -0.87732  -0.87632  -0.86766  -0.85207  -0.84810
 Alpha  occ. eigenvalues --   -0.83005  -0.82311  -0.80629  -0.79295  -0.78236
 Alpha  occ. eigenvalues --   -0.76778  -0.76626  -0.76159  -0.76085  -0.75766
 Alpha  occ. eigenvalues --   -0.75609  -0.74839  -0.73888  -0.73463  -0.71021
 Alpha  occ. eigenvalues --   -0.69070  -0.67645  -0.66077  -0.64747  -0.63677
 Alpha  occ. eigenvalues --   -0.63378  -0.62927  -0.61624  -0.60951  -0.60247
 Alpha  occ. eigenvalues --   -0.59880  -0.59591  -0.58812  -0.57193  -0.56482
 Alpha  occ. eigenvalues --   -0.55633  -0.55328  -0.55181  -0.54307  -0.53634
 Alpha  occ. eigenvalues --   -0.52995  -0.52646  -0.52372  -0.52049  -0.50950
 Alpha  occ. eigenvalues --   -0.50565  -0.50431  -0.50027  -0.49821  -0.49644
 Alpha  occ. eigenvalues --   -0.48947  -0.48791  -0.48533  -0.48029  -0.47838
 Alpha  occ. eigenvalues --   -0.47793  -0.47447  -0.46978  -0.46798  -0.46587
 Alpha  occ. eigenvalues --   -0.46196  -0.45443  -0.44999  -0.44752  -0.44440
 Alpha  occ. eigenvalues --   -0.44337  -0.43875  -0.43729  -0.43414  -0.43229
 Alpha  occ. eigenvalues --   -0.42748  -0.42664  -0.42460  -0.42262  -0.41939
 Alpha  occ. eigenvalues --   -0.41732  -0.41556  -0.40965  -0.40721  -0.40521
 Alpha  occ. eigenvalues --   -0.40314  -0.39779  -0.39632  -0.39430  -0.39116
 Alpha  occ. eigenvalues --   -0.39019  -0.38922  -0.38649  -0.38431  -0.38129
 Alpha  occ. eigenvalues --   -0.38086  -0.37692  -0.36309  -0.35968  -0.34833
 Alpha  occ. eigenvalues --   -0.34367  -0.33752  -0.32996  -0.32853  -0.32160
 Alpha  occ. eigenvalues --   -0.31354  -0.29523  -0.27656  -0.26594  -0.23136
 Alpha  occ. eigenvalues --   -0.19186
 Alpha virt. eigenvalues --   -0.05694  -0.01022   0.03063   0.05936   0.07641
 Alpha virt. eigenvalues --    0.08742   0.10640   0.11390   0.12177   0.12795
 Alpha virt. eigenvalues --    0.12975   0.13341   0.13654   0.14185   0.14302

 Mulliken charges:
               1
     1  O   -0.560915
     2  O   -0.548596
     3  C   -0.014915
     4  C    0.000961
     5  C   -0.181879
     6  C   -0.176246
     7  C    0.193972
     8  C    0.157286
     9  C    0.031966
    10  C    0.012007
    11  C   -0.242644
    12  C   -0.225499
    13  C    0.087860
    14  C    0.076997
    15  C   -0.292275
    16  C   -0.287568
    17  C   -0.291942
    18  C   -0.296869
    19  C   -0.127682
    20  C   -0.169764
    21  C   -0.367303
    22  C   -0.351816
    23  C   -0.113448
    24  C   -0.086585
    25  C    0.068679
    26  C    0.131059
    27  C   -0.357732
    28  C   -0.379155
    29  C   -0.113472
    30  C   -0.132129
    31  C   -0.068068
    32  C   -0.104942
    33  C   -0.125766
    34  C   -0.097303
    35  C    0.120030
    36  C    0.107738
    37  C   -0.384182
    38  C   -0.359727
    39  C   -0.126800
    40  C   -0.145291
    41  C   -0.059148
    42  C   -0.083701
    43  H    0.082125
    44  H    0.036511
    45  H    0.084314
    46  H    0.080151
    47  H    0.089937
    48  H    0.071185
    49  H    0.091959
    50  H    0.108155
    51  H    0.114596
    52  H    0.108843
    53  H    0.088096
    54  H    0.104108
    55  H    0.089922
    56  H    0.105479
    57  H    0.096014
    58  H    0.106550
    59  H    0.115287
    60  H    0.096834
    61  H    0.087559
    62  H    0.098129
    63  H    0.096372
    64  H    0.105546
    65  H    0.093280
    66  H    0.092034
    67  H    0.112190
    68  H    0.131525
    69  H    0.119396
    70  H    0.121997
    71  H    0.123394
    72  H    0.095076
    73  H    0.300885
    74  H    0.306680
    75  H    0.082465
    76  H    0.080769
    77  H    0.123542
    78  H    0.120877
    79  H    0.124485
    80  H    0.108051
    81  H    0.113016
    82  H    0.104006
    83  H    0.086013
    84  H    0.081333
    85  H    0.074927
    86  H    0.076420
    87  H    0.074331
    88  H    0.082741
    89  H    0.115058
    90  H    0.116469
    91  H    0.119094
    92  H    0.099655
    93  H    0.141612
    94  H    0.103806
    95  H    0.075112
    96  H    0.070861
    97  H    0.080563
    98  H    0.075473
 Sum of Mulliken charges =  -0.00000

 Dipole moment (field-independent basis, Debye):
    X=             -0.6762    Y=             -0.3978    Z=              1.8048  Tot=              1.9679
 Quadrupole moment (field-independent basis, Debye-Ang):
   XX=           -262.3074   YY=           -244.2795   ZZ=           -258.2234
   XY=              2.8712   XZ=             -8.4973   YZ=              3.5622

 Normal termination of Gaussian 16 at Thu Jul  4 15:04:28 2019.
