 Gaussian 16, Revision A.03,
 Gaussian 16:  ES64L-G16RevA.03 25-Dec-2016

 -------------------------------------
 # td=(NStates=1) CAM-B3LYP/6-31G(d,p)
 -------------------------------------

 --
 TD
 --
 Symbolic Z-matrix:
 Charge =  0 Multiplicity = 1

                         Standard orientation:
 ---------------------------------------------------------------------
 Center     Atomic      Atomic             Coordinates (Angstroms)
 Number     Number       Type             X           Y           Z
 ---------------------------------------------------------------------
      1          8           0       14.630194   -2.346631   -0.447119
      2          8           0      -14.792677    1.892722    0.594142
      3          6           0       11.413435   -1.122981    1.264875
      4          6           0      -12.353956   -0.975004    0.711570
      5          6           0       12.880060   -1.511098    1.048370
      6          6           0      -13.720857   -0.336562    0.666508
      7          6           0       13.268213   -2.107616   -0.417552
      8          6           0      -13.529366    1.166940    0.732738
      9          6           0       10.892411   -0.355344   -0.010758
     10          6           0      -11.328827   -0.321411   -0.232220
     11          6           0       12.878780   -1.075426   -1.428446
     12          6           0      -12.781792    1.763292   -0.498657
     13          6           0       11.508275   -0.407067   -1.195603
     14          6           0      -11.626479    0.861312   -0.833043
     15          6           0       11.304083   -0.232431    2.523603
     16          6           0       10.552202   -2.357400    1.484412
     17          6           0      -11.806427   -1.158049    2.225460
     18          6           0      -12.431497   -2.448458    0.255939
     19          6           0        9.584859    0.349154    0.165806
     20          6           0      -10.038673   -1.111756   -0.472059
     21          6           0       11.115352    0.263533   -2.473174
     22          6           0      -10.677000    1.535424   -1.804476
     23          6           0        9.281207    1.628413   -0.164923
     24          6           0       -8.800021   -0.582659   -0.259282
     25          6           0        8.019599    2.319653    0.094252
     26          6           0       -7.457504   -1.230453   -0.468052
     27          6           0        8.215330    3.848090    0.542473
     28          6           0       -7.578278   -2.679490   -0.916243
     29          6           0        6.906417    1.620446   -0.113090
     30          6           0       -6.369977   -0.581631   -0.167789
     31          6           0        5.579525    2.088244    0.048152
     32          6           0       -5.044153   -1.089882   -0.319314
     33          6           0        4.439465    1.469072   -0.246340
     34          6           0       -3.983557   -0.276439   -0.122491
     35          6           0        3.067834    1.831135    0.028558
     36          6           0       -2.541590   -0.659951   -0.262951
     37          6           0        2.788047    3.206863    0.675232
     38          6           0       -2.229018   -2.078615   -0.571244
     39          6           0        2.137751    0.932652   -0.215200
     40          6           0       -1.619644    0.248864   -0.092240
     41          6           0        0.715188    1.050797    0.013085
     42          6           0       -0.201082    0.010098   -0.209282
     43          1           0       13.466552   -0.507186    0.962514
     44          1           0       13.139223   -2.158079    1.851941
     45          1           0      -14.388007   -0.814604    1.349932
     46          1           0      -14.221496   -0.673090   -0.254416
     47          1           0       12.604666   -2.930013   -0.442223
     48          1           0      -13.106158    1.528443    1.800432
     49          1           0       13.695660   -0.289794   -1.307246
     50          1           0       13.097620   -1.532283   -2.437748
     51          1           0      -13.700970    1.915721   -1.176729
     52          1           0      -12.427061    2.860572   -0.348167
     53          1           0       12.102340   -0.663841    3.359192
     54          1           0       10.403733   -0.147066    2.910542
     55          1           0       11.734841    0.658135    2.188472
     56          1           0       10.390537   -2.877055    0.515516
     57          1           0       10.983181   -2.869810    2.346161
     58          1           0        9.484680   -2.316523    1.746442
     59          1           0      -11.683741   -0.143821    2.776720
     60          1           0      -10.735049   -1.462667    1.961550
     61          1           0      -12.402582   -1.753724    2.758264
     62          1           0      -12.949690   -3.068739    1.031737
     63          1           0      -11.404240   -3.069307    0.070188
     64          1           0      -13.041751   -2.419059   -0.729178
     65          1           0        8.789343   -0.025148    0.786791
     66          1           0      -10.091873   -2.104179   -0.945597
     67          1           0       10.100645    0.611001   -2.450843
     68          1           0       11.578065    1.044051   -2.723703
     69          1           0       11.192922   -0.501658   -3.425106
     70          1           0      -11.217350    2.108091   -2.712040
     71          1           0      -10.033312    0.826379   -2.433436
     72          1           0      -10.060837    2.268251   -1.200543
     73          1           0       14.810622   -2.925869    0.152571
     74          1           0      -15.438814    1.665072    1.226962
     75          1           0       10.189942    2.099342   -0.698995
     76          1           0       -8.806532    0.511926   -0.053496
     77          1           0        8.948255    4.572936   -0.052646
     78          1           0        7.350678    4.416187    0.461431
     79          1           0        8.592586    3.921613    1.594729
     80          1           0       -8.187694   -3.315772   -0.287385
     81          1           0       -8.035389   -2.802825   -1.882987
     82          1           0       -6.741901   -3.240962   -1.242260
     83          1           0        6.991765    0.505793   -0.308125
     84          1           0       -6.462945    0.604374    0.120762
     85          1           0        5.464810    3.023556    0.601715
     86          1           0       -4.956416   -2.221646   -0.306241
     87          1           0        4.620182    0.430881   -0.751185
     88          1           0       -4.023563    0.788533    0.150057
     89          1           0        3.271943    3.181418    1.728734
     90          1           0        1.687496    3.431487    0.720336
     91          1           0        3.407005    3.942004    0.251305
     92          1           0       -2.586777   -2.849513    0.232280
     93          1           0       -2.598012   -2.574480   -1.533651
     94          1           0       -1.171049   -2.292226   -0.632438
     95          1           0        2.417679    0.071600   -0.731950
     96          1           0       -1.786497    1.192201    0.392966
     97          1           0        0.395039    1.961273    0.610094
     98          1           0        0.077558   -0.924180   -0.687808
 ---------------------------------------------------------------------

 SCF Done:  E(RCAM-B3LYP) =  -1707.05877116     A.U. after   13 cycles

 Excitation energies and oscillator strengths:

 Excited State   1:      Singlet-A      3.0565 eV  405.64 nm  f=3.6146  <S**2>=0.000
     155 ->158         0.17345
     156 ->157         0.67842
 This state for optimization and/or second-order correction.
 Total Energy, E(TD-HF/TD-DFT) =  -1706.94644636
 Copying the excited state density for this state as the 1-particle RhoCI density.

 The electronic state is 1-A.
 Alpha  occ. eigenvalues --  -19.20889 -19.19682 -10.31516 -10.29857 -10.28173
 Alpha  occ. eigenvalues --  -10.27493 -10.27251 -10.27227 -10.27225 -10.27210
 Alpha  occ. eigenvalues --  -10.27115 -10.27043 -10.26902 -10.26733 -10.26710
 Alpha  occ. eigenvalues --  -10.26650 -10.26599 -10.26574 -10.26563 -10.26492
 Alpha  occ. eigenvalues --  -10.26472 -10.26432 -10.26351 -10.26337 -10.26323
 Alpha  occ. eigenvalues --  -10.26278 -10.26210 -10.26148 -10.26025 -10.25973
 Alpha  occ. eigenvalues --  -10.25590 -10.25544 -10.25507 -10.25485 -10.25218
 Alpha  occ. eigenvalues --  -10.25057 -10.24907 -10.24866 -10.24423 -10.24376
 Alpha  occ. eigenvalues --  -10.23912 -10.23811  -1.13372  -1.07971  -0.93050
 Alpha  occ. eigenvalues --   -0.92885  -0.92487  -0.91923  -0.90765  -0.90185
 Alpha  occ. eigenvalues --   -0.87130  -0.86720  -0.86173  -0.85446  -0.84203
 Alpha  occ. eigenvalues --   -0.83062  -0.81932  -0.80124  -0.79390  -0.78322
 Alpha  occ. eigenvalues --   -0.77328  -0.76791  -0.76423  -0.76154  -0.75487
 Alpha  occ. eigenvalues --   -0.75139  -0.74954  -0.74494  -0.73765  -0.70966
 Alpha  occ. eigenvalues --   -0.68916  -0.67284  -0.65974  -0.64823  -0.63741
 Alpha  occ. eigenvalues --   -0.62902  -0.62221  -0.61938  -0.60566  -0.60337
 Alpha  occ. eigenvalues --   -0.59797  -0.59405  -0.58358  -0.57988  -0.56570
 Alpha  occ. eigenvalues --   -0.56460  -0.55218  -0.54764  -0.54300  -0.53636
 Alpha  occ. eigenvalues --   -0.52995  -0.52104  -0.51885  -0.51608  -0.51370
 Alpha  occ. eigenvalues --   -0.50714  -0.49959  -0.49535  -0.49390  -0.49184
 Alpha  occ. eigenvalues --   -0.48858  -0.48215  -0.47917  -0.47735  -0.47429
 Alpha  occ. eigenvalues --   -0.47400  -0.47150  -0.46965  -0.46531  -0.46367
 Alpha  occ. eigenvalues --   -0.45965  -0.45635  -0.45336  -0.45253  -0.45003
 Alpha  occ. eigenvalues --   -0.44314  -0.43818  -0.43746  -0.43619  -0.43496
 Alpha  occ. eigenvalues --   -0.43341  -0.42931  -0.42663  -0.42182  -0.42125
 Alpha  occ. eigenvalues --   -0.41772  -0.41367  -0.41195  -0.40817  -0.40652
 Alpha  occ. eigenvalues --   -0.39902  -0.39847  -0.39665  -0.39329  -0.39173
 Alpha  occ. eigenvalues --   -0.38737  -0.38692  -0.38299  -0.38084  -0.38037
 Alpha  occ. eigenvalues --   -0.37818  -0.37287  -0.36984  -0.36337  -0.36210
 Alpha  occ. eigenvalues --   -0.35234  -0.34799  -0.33609  -0.32483  -0.31862
 Alpha  occ. eigenvalues --   -0.30923  -0.29993  -0.28337  -0.26850  -0.24898
 Alpha  occ. eigenvalues --   -0.21806
 Alpha virt. eigenvalues --   -0.03717   0.00301   0.03241   0.06168   0.07605
 Alpha virt. eigenvalues --    0.09496   0.11066   0.11883   0.12662   0.12983
 Alpha virt. eigenvalues --    0.13098   0.13339   0.13524   0.13753   0.14056

 Mulliken charges:
               1
     1  O   -0.509841
     2  O   -0.580279
     3  C   -0.009010
     4  C   -0.031213
     5  C   -0.207951
     6  C   -0.180065
     7  C    0.153684
     8  C    0.168532
     9  C    0.034961
    10  C    0.064132
    11  C   -0.223005
    12  C   -0.216442
    13  C    0.056454
    14  C    0.052770
    15  C   -0.277619
    16  C   -0.306002
    17  C   -0.292868
    18  C   -0.296049
    19  C   -0.119116
    20  C   -0.148535
    21  C   -0.353737
    22  C   -0.360776
    23  C   -0.112034
    24  C   -0.094697
    25  C    0.072150
    26  C    0.133902
    27  C   -0.366163
    28  C   -0.397613
    29  C   -0.114762
    30  C   -0.122194
    31  C   -0.086824
    32  C   -0.102090
    33  C   -0.118724
    34  C   -0.104188
    35  C    0.132432
    36  C    0.142041
    37  C   -0.372602
    38  C   -0.388246
    39  C   -0.116352
    40  C   -0.128185
    41  C   -0.106061
    42  C   -0.091734
    43  H    0.088243
    44  H    0.076616
    45  H    0.091668
    46  H    0.099446
    47  H    0.087098
    48  H    0.071936
    49  H    0.114204
    50  H    0.104503
    51  H    0.137442
    52  H    0.107656
    53  H    0.064551
    54  H    0.112713
    55  H    0.115710
    56  H    0.101391
    57  H    0.097500
    58  H    0.100267
    59  H    0.080940
    60  H    0.106677
    61  H    0.109055
    62  H    0.090449
    63  H    0.086788
    64  H    0.089404
    65  H    0.080641
    66  H    0.098879
    67  H    0.114494
    68  H    0.134328
    69  H    0.078741
    70  H    0.086818
    71  H    0.112415
    72  H    0.114232
    73  H    0.286929
    74  H    0.292123
    75  H    0.081588
    76  H    0.081896
    77  H    0.104663
    78  H    0.122323
    79  H    0.126650
    80  H    0.126277
    81  H    0.123058
    82  H    0.108860
    83  H    0.095436
    84  H    0.076138
    85  H    0.069736
    86  H    0.101921
    87  H    0.067881
    88  H    0.082632
    89  H    0.113244
    90  H    0.111738
    91  H    0.131361
    92  H    0.111101
    93  H    0.112868
    94  H    0.109699
    95  H    0.079929
    96  H    0.083544
    97  H    0.079216
    98  H    0.088303
 Sum of Mulliken charges =  -0.00000

 Dipole moment (field-independent basis, Debye):
    X=             -0.1183    Y=             -1.4431    Z=              1.8261  Tot=              2.3305
 Quadrupole moment (field-independent basis, Debye-Ang):
   XX=           -280.7170   YY=           -242.9866   ZZ=           -261.2437
   XY=             14.5082   XZ=              1.5754   YZ=              3.3799

 Normal termination of Gaussian 16 at Fri Jun 28 13:55:51 2019.
