 Gaussian 16, Revision A.03,
 Gaussian 16:  ES64L-G16RevA.03 25-Dec-2016

 -------------------------------------
 # td=(NStates=1) CAM-B3LYP/6-31G(d,p)
 -------------------------------------

 --
 TD
 --
 Symbolic Z-matrix:
 Charge =  0 Multiplicity = 1

                         Standard orientation:
 ---------------------------------------------------------------------
 Center     Atomic      Atomic             Coordinates (Angstroms)
 Number     Number       Type             X           Y           Z
 ---------------------------------------------------------------------
      1          8           0       14.782479   -1.983396   -0.402398
      2          8           0      -14.607508    2.282177    0.679014
      3          6           0       11.586068   -0.952333    1.342833
      4          6           0      -12.326329   -0.813190    0.992056
      5          6           0       13.018605   -1.300536    1.079866
      6          6           0      -13.736627    0.031369    0.848613
      7          6           0       13.382567   -1.793608   -0.309929
      8          6           0      -13.421928    1.510737    0.717481
      9          6           0       10.981905   -0.294451    0.115925
     10          6           0      -11.409537   -0.417554   -0.262100
     11          6           0       12.985278   -0.841380   -1.377133
     12          6           0      -12.723376    1.793873   -0.612482
     13          6           0       11.590967   -0.245381   -1.125279
     14          6           0      -11.572651    0.784932   -0.790364
     15          6           0       11.371795   -0.008668    2.495742
     16          6           0       10.839572   -2.289452    1.595611
     17          6           0      -11.656991   -0.576237    2.281906
     18          6           0      -12.708891   -2.220110    0.713511
     19          6           0        9.630529    0.258627    0.185104
     20          6           0      -10.103300   -1.166757   -0.316600
     21          6           0       11.029175    0.235082   -2.451365
     22          6           0      -10.765496    1.255190   -1.975603
     23          6           0        9.354365    1.553207   -0.058683
     24          6           0       -8.846821   -0.755333   -0.278190
     25          6           0        8.002844    2.266291    0.178644
     26          6           0       -7.666782   -1.470880   -0.346886
     27          6           0        8.108476    3.679391    0.640480
     28          6           0       -7.674215   -2.968252   -0.607803
     29          6           0        6.845024    1.582551    0.019380
     30          6           0       -6.449972   -0.893136   -0.501586
     31          6           0        5.493154    1.974797    0.052141
     32          6           0       -5.138692   -1.276141   -0.588960
     33          6           0        4.468774    1.129412   -0.074325
     34          6           0       -4.076500   -0.454068   -0.450329
     35          6           0        3.087609    1.534014   -0.025307
     36          6           0       -2.730976   -0.917681   -0.476268
     37          6           0        2.801496    2.996652    0.302895
     38          6           0       -2.462499   -2.368440   -0.802197
     39          6           0        2.074765    0.670589   -0.266856
     40          6           0       -1.672943    0.061443   -0.468262
     41          6           0        0.664191    0.983660   -0.301574
     42          6           0       -0.264046   -0.138796   -0.390012
     43          1           0       13.868440   -0.334787    1.015703
     44          1           0       13.640216   -1.910581    1.750272
     45          1           0      -14.170799   -0.119308    1.966486
     46          1           0      -14.429951   -0.311725    0.195584
     47          1           0       12.761672   -2.875904   -0.449341
     48          1           0      -12.777706    1.848868    1.474732
     49          1           0       13.558292    0.060471   -1.264306
     50          1           0       12.991331   -1.350035   -2.268355
     51          1           0      -13.364243    1.859394   -1.508646
     52          1           0      -12.327323    2.807878   -0.541629
     53          1           0       12.148532   -0.627001    3.366373
     54          1           0       10.347630   -0.012367    2.729162
     55          1           0       11.903029    0.931061    2.297560
     56          1           0       10.945898   -3.090988    0.561262
     57          1           0       11.173349   -2.998434    2.368319
     58          1           0        9.899509   -2.055018    1.922353
     59          1           0      -11.250525    0.462538    2.330823
     60          1           0      -10.753938   -1.242944    2.291747
     61          1           0      -12.231427   -0.861881    3.065862
     62          1           0      -13.665484   -2.543454    1.266622
     63          1           0      -11.857790   -2.726472    0.852753
     64          1           0      -13.074562   -2.408746   -0.313079
     65          1           0        9.001634   -0.271079    0.830138
     66          1           0      -10.213455   -2.230001   -0.183287
     67          1           0       10.067045    0.742143   -2.438053
     68          1           0       11.356869    1.335502   -2.788196
     69          1           0       11.052944   -0.538081   -3.145696
     70          1           0      -11.197509    1.732373   -2.818672
     71          1           0      -10.091367    0.655823   -2.429483
     72          1           0      -10.234461    2.153513   -1.602830
     73          1           0       15.122821   -2.506939    0.371240
     74          1           0      -14.896495    2.424858    1.564554
     75          1           0       10.035403    1.969623   -0.664331
     76          1           0       -8.662998    0.232011    0.053425
     77          1           0        8.703401    4.462360    0.086027
     78          1           0        7.285385    4.087446    0.536541
     79          1           0        8.657390    3.920333    1.496459
     80          1           0       -8.113008   -3.470333    0.289747
     81          1           0       -8.212121   -3.091494   -1.555007
     82          1           0       -6.688943   -3.314224   -0.580411
     83          1           0        6.969636    0.536326   -0.278144
     84          1           0       -6.489056    0.257943   -0.506868
     85          1           0        5.391048    3.080351    0.115157
     86          1           0       -4.983632   -2.454037   -0.677780
     87          1           0        4.453740    0.075329   -0.582737
     88          1           0       -4.273356    0.651804   -0.250752
     89          1           0        2.737903    3.239563    1.511924
     90          1           0        1.646966    3.301934    0.061276
     91          1           0        3.624711    3.836047   -0.230837
     92          1           0       -2.462153   -2.887502    0.115092
     93          1           0       -3.061307   -2.851995   -1.528336
     94          1           0       -1.287697   -2.470277   -1.222627
     95          1           0        2.291747   -0.338678   -0.508775
     96          1           0       -2.204941    0.972942    0.142259
     97          1           0        0.372893    2.046426   -0.141888
     98          1           0        0.115527   -1.017413   -0.586886
 ---------------------------------------------------------------------

 SCF Done:  E(RCAM-B3LYP) =  -1706.89594876     A.U. after   15 cycles

 Excitation energies and oscillator strengths:

 Excited State   1:      Singlet-A      2.3591 eV  525.55 nm  f=3.6026  <S**2>=0.000
     155 ->158        -0.13857
     156 ->157         0.69280
 This state for optimization and/or second-order correction.
 Total Energy, E(TD-HF/TD-DFT) =  -1706.80925208
 Copying the excited state density for this state as the 1-particle RhoCI density.

 The electronic state is 1-A.
 Alpha  occ. eigenvalues --  -19.21533 -19.20239 -10.31152 -10.29588 -10.29309
 Alpha  occ. eigenvalues --  -10.28220 -10.28031 -10.28015 -10.27954 -10.27669
 Alpha  occ. eigenvalues --  -10.27426 -10.26993 -10.26980 -10.26966 -10.26840
 Alpha  occ. eigenvalues --  -10.26835 -10.26717 -10.26462 -10.26425 -10.26423
 Alpha  occ. eigenvalues --  -10.26403 -10.26388 -10.26344 -10.26178 -10.26026
 Alpha  occ. eigenvalues --  -10.25853 -10.25816 -10.25768 -10.25696 -10.25468
 Alpha  occ. eigenvalues --  -10.25371 -10.25305 -10.25124 -10.25002 -10.24884
 Alpha  occ. eigenvalues --  -10.24781 -10.24766 -10.24156 -10.23811 -10.23793
 Alpha  occ. eigenvalues --  -10.23513 -10.22918  -1.09544  -1.09271  -0.94090
 Alpha  occ. eigenvalues --   -0.93370  -0.92332  -0.92080  -0.90638  -0.90038
 Alpha  occ. eigenvalues --   -0.87568  -0.87329  -0.87142  -0.86025  -0.84998
 Alpha  occ. eigenvalues --   -0.83558  -0.82213  -0.80738  -0.80405  -0.78168
 Alpha  occ. eigenvalues --   -0.77526  -0.76638  -0.76598  -0.76232  -0.76030
 Alpha  occ. eigenvalues --   -0.75798  -0.75250  -0.75017  -0.73595  -0.71517
 Alpha  occ. eigenvalues --   -0.69199  -0.67729  -0.66188  -0.64883  -0.64351
 Alpha  occ. eigenvalues --   -0.63740  -0.63305  -0.62200  -0.60384  -0.59994
 Alpha  occ. eigenvalues --   -0.59492  -0.59191  -0.57974  -0.57493  -0.56353
 Alpha  occ. eigenvalues --   -0.56132  -0.55680  -0.55130  -0.54929  -0.53863
 Alpha  occ. eigenvalues --   -0.53719  -0.53476  -0.52992  -0.52538  -0.51564
 Alpha  occ. eigenvalues --   -0.51034  -0.50826  -0.50735  -0.50102  -0.49983
 Alpha  occ. eigenvalues --   -0.49511  -0.49437  -0.48931  -0.48769  -0.48442
 Alpha  occ. eigenvalues --   -0.48207  -0.47828  -0.47294  -0.46989  -0.46183
 Alpha  occ. eigenvalues --   -0.46122  -0.46098  -0.45748  -0.45254  -0.45095
 Alpha  occ. eigenvalues --   -0.44449  -0.44054  -0.44000  -0.43529  -0.42951
 Alpha  occ. eigenvalues --   -0.42910  -0.42736  -0.42292  -0.42175  -0.41888
 Alpha  occ. eigenvalues --   -0.41506  -0.41358  -0.40797  -0.40764  -0.40664
 Alpha  occ. eigenvalues --   -0.40374  -0.39881  -0.39819  -0.39583  -0.39244
 Alpha  occ. eigenvalues --   -0.39131  -0.38151  -0.37769  -0.37719  -0.37218
 Alpha  occ. eigenvalues --   -0.37143  -0.37039  -0.36761  -0.35976  -0.35933
 Alpha  occ. eigenvalues --   -0.35355  -0.34164  -0.33398  -0.32497  -0.31579
 Alpha  occ. eigenvalues --   -0.31240  -0.30191  -0.28265  -0.26306  -0.24193
 Alpha  occ. eigenvalues --   -0.20065
 Alpha virt. eigenvalues --   -0.05748  -0.00513   0.02754   0.05271   0.07492
 Alpha virt. eigenvalues --    0.09178   0.10049   0.10955   0.11365   0.11871
 Alpha virt. eigenvalues --    0.12156   0.12246   0.12652   0.12837   0.13192

 Mulliken charges:
               1
     1  O   -0.558493
     2  O   -0.559232
     3  C   -0.017318
     4  C   -0.017493
     5  C   -0.186519
     6  C   -0.167926
     7  C    0.183536
     8  C    0.159662
     9  C    0.065003
    10  C    0.058190
    11  C   -0.177908
    12  C   -0.212586
    13  C    0.009481
    14  C    0.029290
    15  C   -0.258674
    16  C   -0.282270
    17  C   -0.293103
    18  C   -0.295519
    19  C   -0.108321
    20  C   -0.156067
    21  C   -0.356419
    22  C   -0.361588
    23  C   -0.098469
    24  C   -0.064856
    25  C    0.052147
    26  C    0.087230
    27  C   -0.355431
    28  C   -0.360530
    29  C   -0.104482
    30  C   -0.120414
    31  C   -0.076980
    32  C   -0.073909
    33  C   -0.115339
    34  C   -0.100454
    35  C    0.142388
    36  C    0.085793
    37  C   -0.349446
    38  C   -0.364864
    39  C   -0.131648
    40  C   -0.125665
    41  C   -0.075405
    42  C   -0.087011
    43  H    0.051322
    44  H    0.078328
    45  H    0.047085
    46  H    0.108110
    47  H    0.030357
    48  H    0.083582
    49  H    0.128891
    50  H    0.113294
    51  H    0.125689
    52  H    0.106952
    53  H    0.048522
    54  H    0.113532
    55  H    0.121438
    56  H    0.071689
    57  H    0.106125
    58  H    0.107078
    59  H    0.104791
    60  H    0.098894
    61  H    0.113887
    62  H    0.083791
    63  H    0.099767
    64  H    0.108025
    65  H    0.076327
    66  H    0.078430
    67  H    0.112026
    68  H    0.094476
    69  H    0.125455
    70  H    0.108174
    71  H    0.117869
    72  H    0.099535
    73  H    0.307090
    74  H    0.296573
    75  H    0.082847
    76  H    0.079984
    77  H    0.097524
    78  H    0.109891
    79  H    0.133991
    80  H    0.104353
    81  H    0.130318
    82  H    0.105086
    83  H    0.083219
    84  H    0.056325
    85  H    0.086627
    86  H    0.074627
    87  H    0.087176
    88  H    0.091054
    89  H    0.105459
    90  H    0.089341
    91  H    0.089227
    92  H    0.138421
    93  H    0.130989
    94  H    0.078210
    95  H    0.078800
    96  H    0.069710
    97  H    0.090036
    98  H    0.081299
 Sum of Mulliken charges =  -0.00000

 Dipole moment (field-independent basis, Debye):
    X=              0.2274    Y=             -0.2970    Z=              2.3966  Tot=              2.4257
 Quadrupole moment (field-independent basis, Debye-Ang):
   XX=           -288.2689   YY=           -243.6152   ZZ=           -259.7939
   XY=              4.5766   XZ=             -3.5189   YZ=              0.8157

 Normal termination of Gaussian 16 at Thu Jul  4 07:36:05 2019.
