 Gaussian 16, Revision A.03,
 Gaussian 16:  ES64L-G16RevA.03 25-Dec-2016

 -------------------------------------
 # td=(NStates=1) CAM-B3LYP/6-31G(d,p)
 -------------------------------------

 --
 TD
 --
 Symbolic Z-matrix:
 Charge =  0 Multiplicity = 1

                         Standard orientation:
 ---------------------------------------------------------------------
 Center     Atomic      Atomic             Coordinates (Angstroms)
 Number     Number       Type             X           Y           Z
 ---------------------------------------------------------------------
      1          8           0      -14.733005   -2.215363    0.606496
      2          8           0       14.743410    2.093501   -0.571661
      3          6           0      -11.529924   -1.033473   -1.111514
      4          6           0       12.310908   -0.822040   -0.754752
      5          6           0      -12.981074   -1.369582   -0.949967
      6          6           0       13.714968   -0.078527   -0.687047
      7          6           0      -13.423732   -1.872807    0.471035
      8          6           0       13.511058    1.315945   -0.588048
      9          6           0      -10.973665   -0.166917    0.078661
     10          6           0       11.319251   -0.266913    0.240579
     11          6           0      -13.060095   -0.833867    1.413890
     12          6           0       12.785043    1.544213    0.806366
     13          6           0      -11.722748   -0.147681    1.207686
     14          6           0       11.562502    0.883743    0.952455
     15          6           0      -11.287860   -0.195468   -2.343600
     16          6           0      -10.735717   -2.387154   -1.363514
     17          6           0       11.667853   -0.799563   -2.092864
     18          6           0       12.532517   -2.311857   -0.338009
     19          6           0       -9.687296    0.328178   -0.115726
     20          6           0       10.164391   -1.062345    0.317869
     21          6           0      -11.188123    0.612937    2.358293
     22          6           0       10.553313    1.427056    1.976569
     23          6           0       -9.296508    1.658646    0.087011
     24          6           0        8.839299   -0.582115    0.141268
     25          6           0       -7.978658    2.270386   -0.125225
     26          6           0        7.600437   -1.292675    0.462334
     27          6           0       -7.796647    3.754503   -0.287020
     28          6           0        7.705587   -2.752279    0.927052
     29          6           0       -6.835416    1.472912   -0.164981
     30          6           0        6.427959   -0.679393    0.176574
     31          6           0       -5.518883    1.935213   -0.347125
     32          6           0        5.125089   -1.166245    0.372163
     33          6           0       -4.499260    1.146482   -0.019180
     34          6           0        3.988836   -0.365449    0.032860
     35          6           0       -3.028838    1.584390   -0.199830
     36          6           0        2.618263   -0.879053    0.200122
     37          6           0       -2.871367    2.988313   -0.743538
     38          6           0        2.446960   -2.283133    0.574245
     39          6           0       -2.054887    0.643410    0.014150
     40          6           0        1.642408    0.065174    0.061465
     41          6           0       -0.727845    0.786063   -0.208293
     42          6           0        0.227125   -0.159321    0.085206
     43          1           0      -13.578828   -0.348652   -1.116919
     44          1           0      -13.268965   -2.009387   -1.695399
     45          1           0       14.313229   -0.460098   -1.561661
     46          1           0       14.076184   -0.448032    0.236255
     47          1           0      -12.710323   -2.858388    0.748943
     48          1           0       12.656202    1.646512   -1.380633
     49          1           0      -13.820151   -0.093826    1.341052
     50          1           0      -12.801130   -1.041257    2.489823
     51          1           0       13.432245    1.351343    1.611424
     52          1           0       12.656164    2.598593    0.972590
     53          1           0      -11.885612   -0.702185   -3.176585
     54          1           0      -10.277750   -0.314376   -2.537803
     55          1           0      -11.508513    0.932975   -2.060368
     56          1           0      -10.882887   -3.318941   -0.546126
     57          1           0      -11.126246   -2.859381   -2.417646
     58          1           0       -9.817521   -2.250988   -1.586477
     59          1           0       11.557785    0.287838   -2.246195
     60          1           0       10.608043   -1.275840   -2.177407
     61          1           0       12.274758   -1.299237   -2.814457
     62          1           0       13.367296   -2.735287   -1.082030
     63          1           0       11.516816   -2.994105   -0.559741
     64          1           0       12.789128   -2.399399    0.641197
     65          1           0       -8.822109   -0.154232   -0.617816
     66          1           0       10.381057   -2.110891    0.771064
     67          1           0      -10.143073    1.212060    2.250569
     68          1           0      -11.933341    1.322165    2.826802
     69          1           0      -11.097104   -0.043634    3.195314
     70          1           0       11.128166    1.804922    2.890003
     71          1           0        9.810914    0.940133    2.194663
     72          1           0        9.950685    2.415168    1.718186
     73          1           0      -14.953410   -3.009091    0.032342
     74          1           0       15.350643    1.964083   -1.319482
     75          1           0      -10.115967    2.163072    0.436923
     76          1           0        8.948004    0.431593   -0.459716
     77          1           0       -8.446258    4.240143    0.611125
     78          1           0       -6.829901    4.107723   -0.180597
     79          1           0       -8.159981    4.109898   -1.219394
     80          1           0        8.622437   -2.975000    0.163420
     81          1           0        8.163049   -2.740905    2.078490
     82          1           0        6.802908   -3.336138    0.848304
     83          1           0       -6.787373    0.351485    0.132086
     84          1           0        6.427640    0.288278   -0.139924
     85          1           0       -5.204245    2.760771   -0.825140
     86          1           0        4.878586   -2.240615    0.685536
     87          1           0       -4.805680    0.103342    0.393281
     88          1           0        4.408791    0.812350   -0.105568
     89          1           0       -3.431505    3.215401   -1.704599
     90          1           0       -1.864586    3.268893   -0.924899
     91          1           0       -3.301443    3.542278    0.215839
     92          1           0        3.051566   -2.933704   -0.037721
     93          1           0        2.691244   -2.340986    1.650239
     94          1           0        1.287330   -2.499308    0.430422
     95          1           0       -2.416653   -0.373647    0.217471
     96          1           0        1.994811    1.091691   -0.525146
     97          1           0       -0.292999    1.857598   -0.456886
     98          1           0       -0.216725   -1.136146    0.308587
 ---------------------------------------------------------------------

 SCF Done:  E(RCAM-B3LYP) =  -1706.93257294     A.U. after   14 cycles

 Excitation energies and oscillator strengths:

 Excited State   1:      Singlet-A      2.5089 eV  494.18 nm  f=3.7574  <S**2>=0.000
     155 ->158        -0.18531
     156 ->157         0.67749
 This state for optimization and/or second-order correction.
 Total Energy, E(TD-HF/TD-DFT) =  -1706.84037396
 Copying the excited state density for this state as the 1-particle RhoCI density.

 The electronic state is 1-A.
 Alpha  occ. eigenvalues --  -19.22394 -19.21300 -10.31655 -10.31587 -10.28273
 Alpha  occ. eigenvalues --  -10.28201 -10.27919 -10.27727 -10.27644 -10.27444
 Alpha  occ. eigenvalues --  -10.27366 -10.27289 -10.27133 -10.26786 -10.26780
 Alpha  occ. eigenvalues --  -10.26767 -10.26763 -10.26660 -10.26609 -10.26498
 Alpha  occ. eigenvalues --  -10.26430 -10.26405 -10.26288 -10.26224 -10.25983
 Alpha  occ. eigenvalues --  -10.25806 -10.25726 -10.25681 -10.25655 -10.25325
 Alpha  occ. eigenvalues --  -10.25255 -10.25164 -10.25161 -10.24876 -10.24858
 Alpha  occ. eigenvalues --  -10.24808 -10.24784 -10.24531 -10.24391 -10.24222
 Alpha  occ. eigenvalues --  -10.24184 -10.24047  -1.11392  -1.07972  -0.94898
 Alpha  occ. eigenvalues --   -0.93892  -0.92133  -0.91516  -0.90428  -0.89648
 Alpha  occ. eigenvalues --   -0.87661  -0.87642  -0.87401  -0.86286  -0.85326
 Alpha  occ. eigenvalues --   -0.83486  -0.82363  -0.80380  -0.79541  -0.78750
 Alpha  occ. eigenvalues --   -0.77084  -0.76237  -0.76062  -0.75885  -0.75755
 Alpha  occ. eigenvalues --   -0.74925  -0.74817  -0.74486  -0.73491  -0.70223
 Alpha  occ. eigenvalues --   -0.69161  -0.67751  -0.65873  -0.65008  -0.63778
 Alpha  occ. eigenvalues --   -0.62981  -0.62236  -0.61356  -0.60731  -0.59780
 Alpha  occ. eigenvalues --   -0.59723  -0.58777  -0.58084  -0.57213  -0.56698
 Alpha  occ. eigenvalues --   -0.56162  -0.55718  -0.55615  -0.54540  -0.53192
 Alpha  occ. eigenvalues --   -0.53043  -0.52707  -0.51838  -0.51337  -0.51174
 Alpha  occ. eigenvalues --   -0.50630  -0.50543  -0.50289  -0.49833  -0.49223
 Alpha  occ. eigenvalues --   -0.48872  -0.48716  -0.48481  -0.48037  -0.47906
 Alpha  occ. eigenvalues --   -0.47718  -0.47591  -0.46884  -0.46557  -0.46499
 Alpha  occ. eigenvalues --   -0.46018  -0.45986  -0.45206  -0.44941  -0.44736
 Alpha  occ. eigenvalues --   -0.44045  -0.43961  -0.43704  -0.43698  -0.43066
 Alpha  occ. eigenvalues --   -0.42605  -0.42545  -0.42354  -0.42188  -0.41847
 Alpha  occ. eigenvalues --   -0.41803  -0.41169  -0.40929  -0.40901  -0.40893
 Alpha  occ. eigenvalues --   -0.40394  -0.40314  -0.40125  -0.39942  -0.39871
 Alpha  occ. eigenvalues --   -0.38969  -0.38839  -0.38544  -0.38141  -0.38038
 Alpha  occ. eigenvalues --   -0.37692  -0.37604  -0.36462  -0.36443  -0.35987
 Alpha  occ. eigenvalues --   -0.35138  -0.34557  -0.33351  -0.32812  -0.31514
 Alpha  occ. eigenvalues --   -0.31312  -0.29084  -0.27769  -0.25796  -0.23127
 Alpha  occ. eigenvalues --   -0.20071
 Alpha virt. eigenvalues --   -0.04704  -0.00832   0.02300   0.05957   0.07653
 Alpha virt. eigenvalues --    0.09231   0.11042   0.11272   0.11622   0.11827
 Alpha virt. eigenvalues --    0.12440   0.12633   0.12848   0.13060   0.13337

 Mulliken charges:
               1
     1  O   -0.547293
     2  O   -0.584275
     3  C   -0.010541
     4  C   -0.042196
     5  C   -0.185577
     6  C   -0.162017
     7  C    0.203369
     8  C    0.190934
     9  C    0.064608
    10  C    0.030776
    11  C   -0.193988
    12  C   -0.264946
    13  C    0.057796
    14  C    0.103218
    15  C   -0.284749
    16  C   -0.283055
    17  C   -0.282138
    18  C   -0.295750
    19  C   -0.122517
    20  C   -0.156094
    21  C   -0.389604
    22  C   -0.329801
    23  C   -0.119896
    24  C   -0.116352
    25  C    0.074040
    26  C    0.086389
    27  C   -0.356878
    28  C   -0.340020
    29  C   -0.138035
    30  C   -0.095368
    31  C   -0.032934
    32  C   -0.093907
    33  C   -0.130151
    34  C   -0.119176
    35  C    0.069903
    36  C    0.103450
    37  C   -0.367604
    38  C   -0.370059
    39  C   -0.107948
    40  C   -0.126996
    41  C   -0.078223
    42  C   -0.094411
    43  H    0.074125
    44  H    0.082459
    45  H    0.080017
    46  H    0.111062
    47  H    0.028866
    48  H    0.064250
    49  H    0.128045
    50  H    0.102249
    51  H    0.125910
    52  H    0.114560
    53  H    0.085615
    54  H    0.112388
    55  H    0.098647
    56  H    0.079764
    57  H    0.063453
    58  H    0.115031
    59  H    0.093265
    60  H    0.105722
    61  H    0.097422
    62  H    0.076559
    63  H    0.080726
    64  H    0.116518
    65  H    0.087155
    66  H    0.098947
    67  H    0.117382
    68  H    0.103898
    69  H    0.113293
    70  H    0.092597
    71  H    0.120818
    72  H    0.085132
    73  H    0.318097
    74  H    0.308061
    75  H    0.080971
    76  H    0.092781
    77  H    0.092934
    78  H    0.124354
    79  H    0.129241
    80  H    0.109249
    81  H    0.102153
    82  H    0.118422
    83  H    0.080403
    84  H    0.071549
    85  H    0.076528
    86  H    0.074690
    87  H    0.073851
    88  H    0.078630
    89  H    0.128420
    90  H    0.115912
    91  H    0.119403
    92  H    0.133974
    93  H    0.137832
    94  H    0.099674
    95  H    0.083628
    96  H    0.080616
    97  H    0.070675
    98  H    0.080096
 Sum of Mulliken charges =  -0.00000

 Dipole moment (field-independent basis, Debye):
    X=              0.4141    Y=             -1.4005    Z=             -1.4649  Tot=              2.0686
 Quadrupole moment (field-independent basis, Debye-Ang):
   XX=           -263.3783   YY=           -247.7052   ZZ=           -261.1375
   XY=             -3.1491   XZ=             -0.5219   YZ=             -1.8435

 Normal termination of Gaussian 16 at Sun Jul  7 21:57:53 2019.
