 Gaussian 16, Revision A.03,
 Gaussian 16:  ES64L-G16RevA.03 25-Dec-2016

 -------------------------------------
 # td=(NStates=1) CAM-B3LYP/6-31G(d,p)
 -------------------------------------

 --
 TD
 --
 Symbolic Z-matrix:
 Charge =  0 Multiplicity = 1

                         Standard orientation:
 ---------------------------------------------------------------------
 Center     Atomic      Atomic             Coordinates (Angstroms)
 Number     Number       Type             X           Y           Z
 ---------------------------------------------------------------------
      1          8           0       14.888774   -1.948857   -0.175431
      2          8           0      -14.798551    1.896531    0.835372
      3          6           0       11.516919   -0.999565    1.240369
      4          6           0      -12.324166   -0.872330    0.780536
      5          6           0       13.038569   -1.262261    1.039084
      6          6           0      -13.650780   -0.177383    0.745256
      7          6           0       13.355957   -1.732587   -0.213232
      8          6           0      -13.570402    1.270501    0.799764
      9          6           0       11.067632   -0.284464   -0.076736
     10          6           0      -11.321990   -0.212355   -0.220947
     11          6           0       13.155273   -0.674156   -1.310197
     12          6           0      -12.839256    1.731457   -0.407634
     13          6           0       11.818193   -0.169050   -1.232001
     14          6           0      -11.573343    1.064832   -0.730822
     15          6           0       11.221196   -0.209486    2.517275
     16          6           0       10.701783   -2.348020    1.392084
     17          6           0      -11.794127   -0.905129    2.251533
     18          6           0      -12.654155   -2.373500    0.390620
     19          6           0        9.551819    0.171261    0.022411
     20          6           0      -10.082727   -1.001361   -0.497982
     21          6           0       11.239200    0.453611   -2.431899
     22          6           0      -10.610559    1.759749   -1.751349
     23          6           0        9.238748    1.463653   -0.032195
     24          6           0       -8.783620   -0.528106   -0.334190
     25          6           0        7.930862    2.187530    0.075457
     26          6           0       -7.634523   -1.217873   -0.656249
     27          6           0        7.989623    3.581315    0.470330
     28          6           0       -7.796184   -2.685344   -1.124521
     29          6           0        6.882707    1.423403   -0.137777
     30          6           0       -6.452477   -0.661069   -0.470399
     31          6           0        5.559748    1.865726    0.077807
     32          6           0       -5.106890   -1.139004   -0.616631
     33          6           0        4.387261    1.143655   -0.183936
     34          6           0       -3.999193   -0.444855   -0.346122
     35          6           0        3.111365    1.583215    0.050732
     36          6           0       -2.590239   -0.900543   -0.400190
     37          6           0        2.795338    2.911919    0.559284
     38          6           0       -2.250191   -2.400627   -0.680721
     39          6           0        2.042079    0.727866   -0.177268
     40          6           0       -1.665687    0.093968   -0.158367
     41          6           0        0.676617    0.847277    0.099164
     42          6           0       -0.227216   -0.097712   -0.188992
     43          1           0       13.484843   -0.303732    1.320451
     44          1           0       13.176261   -2.028982    1.915035
     45          1           0      -14.344516   -0.465737    1.547307
     46          1           0      -14.107636   -0.474801   -0.120030
     47          1           0       12.899779   -2.615126   -0.466709
     48          1           0      -13.045360    1.705919    1.708438
     49          1           0       13.902696    0.121803   -1.217978
     50          1           0       13.126516   -1.350960   -2.222663
     51          1           0      -13.543399    1.591644   -1.304518
     52          1           0      -12.782616    2.767254   -0.396140
     53          1           0       11.654762   -0.865632    3.326546
     54          1           0       10.093059   -0.125644    2.666635
     55          1           0       11.733904    0.955257    2.523951
     56          1           0       11.001229   -2.758611    0.436056
     57          1           0       11.067553   -2.989737    2.179791
     58          1           0        9.631755   -2.160032    1.250723
     59          1           0      -11.401187    0.064149    2.597609
     60          1           0      -11.109188   -1.675804    2.178657
     61          1           0      -12.492299   -1.369800    3.097866
     62          1           0      -13.544718   -2.630762    0.887374
     63          1           0      -11.868484   -3.071070    0.512783
     64          1           0      -13.006228   -2.297896   -0.559003
     65          1           0        8.922123   -0.491797    0.432571
     66          1           0      -10.151177   -2.167678   -0.643224
     67          1           0       10.023977    0.848026   -2.361372
     68          1           0       11.723122    1.289481   -3.020744
     69          1           0       11.171695   -0.443250   -3.203177
     70          1           0      -11.329717    2.052859   -2.525613
     71          1           0       -9.836178    1.071816   -2.131587
     72          1           0      -10.138811    2.526538   -1.305485
     73          1           0       14.924084   -2.560005    0.590802
     74          1           0      -15.121933    1.945217    1.738896
     75          1           0       10.135554    2.215456   -0.379608
     76          1           0       -8.749020    0.355043    0.163348
     77          1           0        8.533904    4.160130   -0.366217
     78          1           0        7.161265    3.935561    0.956677
     79          1           0        8.998518    3.517452    1.314390
     80          1           0       -8.125339   -3.273900   -0.392314
     81          1           0       -8.484837   -2.779676   -1.972874
     82          1           0       -6.973940   -3.272052   -1.286057
     83          1           0        6.983651    0.448201   -0.402996
     84          1           0       -6.377893    0.445115    0.189639
     85          1           0        5.298293    2.984388    0.349206
     86          1           0       -4.811478   -2.091867   -0.918708
     87          1           0        4.600078    0.086220   -0.200895
     88          1           0       -4.253262    0.356082   -0.092732
     89          1           0        3.409680    3.288979    1.581609
     90          1           0        1.811715    3.219161    0.906789
     91          1           0        3.153034    3.574932   -0.320134
     92          1           0       -2.968655   -3.034923   -0.126997
     93          1           0       -2.375182   -2.473134   -1.773426
     94          1           0       -1.210955   -2.556950   -0.434137
     95          1           0        2.363398   -0.340266   -0.314960
     96          1           0       -1.925665    1.118313    0.077433
     97          1           0        0.138129    1.744647    0.264758
     98          1           0        0.114328   -1.206168   -0.322669
 ---------------------------------------------------------------------

 SCF Done:  E(RCAM-B3LYP) =  -1706.93583296     A.U. after   14 cycles

 Excitation energies and oscillator strengths:

 Excited State   1:      Singlet-A      2.6093 eV  475.17 nm  f=3.7646  <S**2>=0.000
     155 ->158        -0.16313
     156 ->157         0.68411
 This state for optimization and/or second-order correction.
 Total Energy, E(TD-HF/TD-DFT) =  -1706.83994452
 Copying the excited state density for this state as the 1-particle RhoCI density.

 The electronic state is 1-A.
 Alpha  occ. eigenvalues --  -19.20710 -19.20235 -10.29524 -10.29427 -10.28297
 Alpha  occ. eigenvalues --  -10.27930 -10.27761 -10.27384 -10.27182 -10.27146
 Alpha  occ. eigenvalues --  -10.27112 -10.27046 -10.27036 -10.26996 -10.26955
 Alpha  occ. eigenvalues --  -10.26943 -10.26827 -10.26805 -10.26772 -10.26753
 Alpha  occ. eigenvalues --  -10.26640 -10.26622 -10.26542 -10.26331 -10.26295
 Alpha  occ. eigenvalues --  -10.25911 -10.25820 -10.25778 -10.25383 -10.25380
 Alpha  occ. eigenvalues --  -10.25371 -10.25166 -10.24910 -10.24669 -10.24544
 Alpha  occ. eigenvalues --  -10.24273 -10.24261 -10.24219 -10.23905 -10.23634
 Alpha  occ. eigenvalues --  -10.22804 -10.22559  -1.10871  -1.06146  -0.94370
 Alpha  occ. eigenvalues --   -0.93340  -0.92809  -0.92170  -0.91543  -0.90439
 Alpha  occ. eigenvalues --   -0.87985  -0.87931  -0.86786  -0.85837  -0.84909
 Alpha  occ. eigenvalues --   -0.83658  -0.82495  -0.81125  -0.80180  -0.78281
 Alpha  occ. eigenvalues --   -0.78102  -0.76878  -0.76474  -0.76392  -0.76302
 Alpha  occ. eigenvalues --   -0.75548  -0.75511  -0.74623  -0.73828  -0.70736
 Alpha  occ. eigenvalues --   -0.69086  -0.67503  -0.66328  -0.65038  -0.63767
 Alpha  occ. eigenvalues --   -0.63054  -0.62948  -0.62380  -0.61299  -0.60396
 Alpha  occ. eigenvalues --   -0.60161  -0.59559  -0.59302  -0.58397  -0.56447
 Alpha  occ. eigenvalues --   -0.56014  -0.55162  -0.54847  -0.54446  -0.53677
 Alpha  occ. eigenvalues --   -0.53575  -0.52631  -0.52007  -0.51875  -0.51167
 Alpha  occ. eigenvalues --   -0.50801  -0.50460  -0.49946  -0.49705  -0.49530
 Alpha  occ. eigenvalues --   -0.49213  -0.49131  -0.48855  -0.48643  -0.48488
 Alpha  occ. eigenvalues --   -0.48397  -0.48136  -0.47598  -0.47094  -0.46458
 Alpha  occ. eigenvalues --   -0.46079  -0.45842  -0.45602  -0.44884  -0.44691
 Alpha  occ. eigenvalues --   -0.44671  -0.44395  -0.44312  -0.44111  -0.43853
 Alpha  occ. eigenvalues --   -0.43390  -0.43345  -0.43029  -0.42821  -0.42507
 Alpha  occ. eigenvalues --   -0.42048  -0.41940  -0.41395  -0.41313  -0.40843
 Alpha  occ. eigenvalues --   -0.40736  -0.40354  -0.39991  -0.39159  -0.39045
 Alpha  occ. eigenvalues --   -0.38689  -0.38558  -0.38332  -0.37734  -0.37553
 Alpha  occ. eigenvalues --   -0.37460  -0.37275  -0.36951  -0.36599  -0.35501
 Alpha  occ. eigenvalues --   -0.35192  -0.34970  -0.33499  -0.32420  -0.32087
 Alpha  occ. eigenvalues --   -0.31667  -0.29611  -0.28026  -0.26833  -0.23653
 Alpha  occ. eigenvalues --   -0.20274
 Alpha virt. eigenvalues --   -0.04565  -0.00469   0.03197   0.05814   0.07524
 Alpha virt. eigenvalues --    0.08737   0.10255   0.10949   0.12042   0.12253
 Alpha virt. eigenvalues --    0.12518   0.12828   0.13336   0.13408   0.13737

 Mulliken charges:
               1
     1  O   -0.574103
     2  O   -0.559598
     3  C   -0.044805
     4  C   -0.025498
     5  C   -0.175422
     6  C   -0.157296
     7  C    0.140560
     8  C    0.166460
     9  C    0.018116
    10  C    0.031438
    11  C   -0.218818
    12  C   -0.225029
    13  C    0.091032
    14  C    0.047928
    15  C   -0.262636
    16  C   -0.308793
    17  C   -0.287628
    18  C   -0.319152
    19  C   -0.121638
    20  C   -0.158282
    21  C   -0.361772
    22  C   -0.348973
    23  C   -0.094994
    24  C   -0.087930
    25  C    0.122323
    26  C    0.150601
    27  C   -0.351748
    28  C   -0.379904
    29  C   -0.084406
    30  C   -0.157554
    31  C   -0.112308
    32  C   -0.076086
    33  C   -0.132597
    34  C   -0.010768
    35  C    0.157550
    36  C    0.058460
    37  C   -0.373578
    38  C   -0.360566
    39  C   -0.144136
    40  C   -0.116632
    41  C   -0.076279
    42  C   -0.075252
    43  H    0.117741
    44  H    0.063359
    45  H    0.071004
    46  H    0.099112
    47  H    0.105327
    48  H    0.059859
    49  H    0.137003
    50  H    0.110674
    51  H    0.108332
    52  H    0.107159
    53  H    0.093751
    54  H    0.103168
    55  H    0.069340
    56  H    0.101478
    57  H    0.109289
    58  H    0.109886
    59  H    0.100860
    60  H    0.109913
    61  H    0.075909
    62  H    0.106183
    63  H    0.101394
    64  H    0.111705
    65  H    0.080296
    66  H    0.081545
    67  H    0.097565
    68  H    0.115063
    69  H    0.090464
    70  H    0.107413
    71  H    0.124270
    72  H    0.128421
    73  H    0.295274
    74  H    0.306902
    75  H    0.066196
    76  H    0.084348
    77  H    0.131222
    78  H    0.131514
    79  H    0.078836
    80  H    0.132716
    81  H    0.119611
    82  H    0.109842
    83  H    0.079356
    84  H    0.052632
    85  H    0.068862
    86  H    0.057282
    87  H    0.081090
    88  H    0.006205
    89  H    0.085137
    90  H    0.123166
    91  H    0.114181
    92  H    0.126143
    93  H    0.135474
    94  H    0.119499
    95  H    0.071007
    96  H    0.086275
    97  H    0.075671
    98  H    0.063780
 Sum of Mulliken charges =  -0.00000

 Dipole moment (field-independent basis, Debye):
    X=             -0.8559    Y=             -0.9808    Z=              2.4176  Tot=              2.7458
 Quadrupole moment (field-independent basis, Debye-Ang):
   XX=           -300.5190   YY=           -241.6663   ZZ=           -259.8755
   XY=              4.8470   XZ=             -4.6142   YZ=              1.9175

 Normal termination of Gaussian 16 at Thu Jun 27 11:21:36 2019.
