 Gaussian 16, Revision A.03,
 Gaussian 16:  ES64L-G16RevA.03 25-Dec-2016

 -------------------------------------
 # td=(NStates=1) CAM-B3LYP/6-31G(d,p)
 -------------------------------------

 --
 TD
 --
 Symbolic Z-matrix:
 Charge =  0 Multiplicity = 1

                         Standard orientation:
 ---------------------------------------------------------------------
 Center     Atomic      Atomic             Coordinates (Angstroms)
 Number     Number       Type             X           Y           Z
 ---------------------------------------------------------------------
      1          8           0       14.796116   -2.121129   -0.207609
      2          8           0      -14.658048    2.166465    0.843842
      3          6           0       11.367752   -0.959973    1.308067
      4          6           0      -12.254201   -0.768812    0.948809
      5          6           0       13.007094   -1.244736    1.148686
      6          6           0      -13.500677   -0.084042    0.934636
      7          6           0       13.325990   -1.834025   -0.176495
      8          6           0      -13.339324    1.429343    0.871770
      9          6           0       10.933035   -0.244620    0.060850
     10          6           0      -11.351859   -0.284206   -0.235401
     11          6           0       13.017911   -0.923505   -1.264274
     12          6           0      -12.689318    1.823985   -0.517080
     13          6           0       11.596564   -0.319583   -1.098397
     14          6           0      -11.505609    0.871881   -0.874615
     15          6           0       11.297665   -0.127150    2.627734
     16          6           0       10.584915   -2.300763    1.503388
     17          6           0      -11.472698   -0.610720    2.247720
     18          6           0      -12.580290   -2.201916    0.637535
     19          6           0        9.581051    0.396373    0.164119
     20          6           0      -10.058457   -1.154708   -0.437840
     21          6           0       11.176836    0.353871   -2.402908
     22          6           0      -10.686029    1.450853   -1.994906
     23          6           0        9.245817    1.699027   -0.042308
     24          6           0       -8.754794   -0.661428   -0.312083
     25          6           0        7.953097    2.338341    0.114034
     26          6           0       -7.613998   -1.371729   -0.473129
     27          6           0        7.877747    3.763230    0.537694
     28          6           0       -7.816224   -2.856795   -0.987629
     29          6           0        6.901289    1.555329   -0.266851
     30          6           0       -6.397099   -0.711728   -0.356470
     31          6           0        5.508127    1.980015   -0.089275
     32          6           0       -5.122433   -1.325651   -0.388064
     33          6           0        4.409509    1.261462   -0.245308
     34          6           0       -4.023790   -0.602295   -0.276707
     35          6           0        3.016957    1.591831   -0.184109
     36          6           0       -2.666048   -0.971556   -0.361796
     37          6           0        2.839977    3.041302    0.320515
     38          6           0       -2.466086   -2.396890   -0.991076
     39          6           0        2.147358    0.559592   -0.382779
     40          6           0       -1.693078   -0.121754   -0.180094
     41          6           0        0.694098    0.784678   -0.102778
     42          6           0       -0.234826   -0.213022   -0.265869
     43          1           0       13.397925   -0.158286    1.049561
     44          1           0       13.291668   -1.870602    2.088438
     45          1           0      -13.905908   -0.406867    1.961740
     46          1           0      -14.221145   -0.502344    0.273062
     47          1           0       12.541138   -2.760383   -0.338372
     48          1           0      -12.789065    1.691401    1.673477
     49          1           0       13.660614   -0.063429   -1.099446
     50          1           0       13.133829   -1.277719   -2.254410
     51          1           0      -13.640266    1.584126   -1.177839
     52          1           0      -12.456989    2.901698   -0.719365
     53          1           0       11.683860   -0.542041    3.416487
     54          1           0       10.117631   -0.003704    2.876869
     55          1           0       11.807296    0.871637    2.492043
     56          1           0       10.771031   -3.234286    0.878225
     57          1           0       10.799863   -2.606416    2.536729
     58          1           0        9.446865   -2.201865    1.260947
     59          1           0      -11.174684    0.376675    2.402132
     60          1           0      -10.481675   -1.335546    2.180997
     61          1           0      -12.103719   -0.902681    3.108211
     62          1           0      -13.472047   -2.475956    1.275620
     63          1           0      -11.772656   -2.903501    0.891816
     64          1           0      -13.025296   -2.389546   -0.314991
     65          1           0        8.822472   -0.297142    0.536066
     66          1           0      -10.235373   -2.221690   -0.486921
     67          1           0       10.092202    0.741770   -2.449599
     68          1           0       11.785260    1.163015   -2.709510
     69          1           0       11.304229   -0.291634   -3.410764
     70          1           0      -11.385554    1.526662   -2.805263
     71          1           0       -9.891532    0.752412   -2.369093
     72          1           0      -10.317691    2.491482   -1.720330
     73          1           0       15.010371   -2.933610    0.177534
     74          1           0      -15.201952    1.990360    1.704326
     75          1           0       10.130221    2.372244   -0.336830
     76          1           0       -8.751884    0.552825   -0.189110
     77          1           0        8.234677    4.194889   -0.363133
     78          1           0        6.919493    4.290428    0.981345
     79          1           0        8.675706    3.690820    1.453632
     80          1           0       -8.376099   -3.449771   -0.349638
     81          1           0       -8.089597   -2.793220   -2.168660
     82          1           0       -6.840845   -3.324952   -0.953396
     83          1           0        7.118107    0.547775   -0.710075
     84          1           0       -6.444906    0.293440    0.081071
     85          1           0        5.461549    3.089835    0.147489
     86          1           0       -5.099613   -2.417562   -0.740591
     87          1           0        4.639058    0.265711   -0.642804
     88          1           0       -3.941144    0.439363    0.101152
     89          1           0        3.396039    3.539269    1.116049
     90          1           0        1.751553    3.339900    0.533217
     91          1           0        3.150838    3.702050   -0.671514
     92          1           0       -2.824916   -3.037942   -0.207519
     93          1           0       -3.111865   -2.350599   -1.985840
     94          1           0       -1.433501   -2.699938   -1.183473
     95          1           0        2.412031   -0.434197   -0.759356
     96          1           0       -1.840101    0.849760    0.269772
     97          1           0        0.371278    1.780720    0.058616
     98          1           0        0.262969   -1.172556   -0.602550
 ---------------------------------------------------------------------

 SCF Done:  E(RCAM-B3LYP) =  -1707.04528269     A.U. after   14 cycles

 Excitation energies and oscillator strengths:

 Excited State   1:      Singlet-A      2.8849 eV  429.78 nm  f=3.7879  <S**2>=0.000
     155 ->158        -0.19260
     156 ->157         0.67414
 This state for optimization and/or second-order correction.
 Total Energy, E(TD-HF/TD-DFT) =  -1706.93926633
 Copying the excited state density for this state as the 1-particle RhoCI density.

 The electronic state is 1-A.
 Alpha  occ. eigenvalues --  -19.20865 -19.20374 -10.31214 -10.30108 -10.28429
 Alpha  occ. eigenvalues --  -10.28026 -10.27928 -10.27749 -10.27196 -10.27182
 Alpha  occ. eigenvalues --  -10.27143 -10.26894 -10.26724 -10.26716 -10.26562
 Alpha  occ. eigenvalues --  -10.26494 -10.26464 -10.26393 -10.26361 -10.26329
 Alpha  occ. eigenvalues --  -10.26323 -10.26322 -10.26299 -10.26257 -10.26226
 Alpha  occ. eigenvalues --  -10.26106 -10.26016 -10.26008 -10.26006 -10.25930
 Alpha  occ. eigenvalues --  -10.25697 -10.25669 -10.25619 -10.25540 -10.25474
 Alpha  occ. eigenvalues --  -10.25332 -10.25057 -10.24932 -10.24758 -10.24751
 Alpha  occ. eigenvalues --  -10.24443 -10.24342  -1.07670  -1.04976  -0.94205
 Alpha  occ. eigenvalues --   -0.93477  -0.92393  -0.91636  -0.90653  -0.90180
 Alpha  occ. eigenvalues --   -0.87220  -0.86745  -0.86511  -0.85241  -0.84354
 Alpha  occ. eigenvalues --   -0.82678  -0.81714  -0.80293  -0.78820  -0.77666
 Alpha  occ. eigenvalues --   -0.76941  -0.76609  -0.76340  -0.75864  -0.75670
 Alpha  occ. eigenvalues --   -0.75277  -0.74721  -0.74538  -0.74081  -0.70725
 Alpha  occ. eigenvalues --   -0.68757  -0.67198  -0.65715  -0.64947  -0.64032
 Alpha  occ. eigenvalues --   -0.63368  -0.62372  -0.61700  -0.59870  -0.59276
 Alpha  occ. eigenvalues --   -0.58567  -0.58380  -0.57629  -0.57388  -0.55959
 Alpha  occ. eigenvalues --   -0.55119  -0.54627  -0.54583  -0.54185  -0.53595
 Alpha  occ. eigenvalues --   -0.52421  -0.52196  -0.52036  -0.51560  -0.51115
 Alpha  occ. eigenvalues --   -0.50498  -0.50251  -0.49809  -0.49458  -0.49072
 Alpha  occ. eigenvalues --   -0.48848  -0.48715  -0.48465  -0.48404  -0.47713
 Alpha  occ. eigenvalues --   -0.47647  -0.47469  -0.46706  -0.45970  -0.45616
 Alpha  occ. eigenvalues --   -0.45521  -0.45270  -0.45228  -0.44818  -0.44433
 Alpha  occ. eigenvalues --   -0.44011  -0.43852  -0.43513  -0.43262  -0.43049
 Alpha  occ. eigenvalues --   -0.42709  -0.42503  -0.42326  -0.42244  -0.41791
 Alpha  occ. eigenvalues --   -0.41363  -0.41349  -0.40993  -0.40751  -0.40589
 Alpha  occ. eigenvalues --   -0.40228  -0.39864  -0.39790  -0.39608  -0.39338
 Alpha  occ. eigenvalues --   -0.38852  -0.38725  -0.38679  -0.38106  -0.38032
 Alpha  occ. eigenvalues --   -0.37435  -0.37176  -0.36721  -0.36664  -0.35756
 Alpha  occ. eigenvalues --   -0.34754  -0.34337  -0.33715  -0.32355  -0.31970
 Alpha  occ. eigenvalues --   -0.31713  -0.29570  -0.28587  -0.27023  -0.23710
 Alpha  occ. eigenvalues --   -0.20990
 Alpha virt. eigenvalues --   -0.03833  -0.00197   0.03350   0.06593   0.08355
 Alpha virt. eigenvalues --    0.09277   0.10949   0.12136   0.12152   0.12235
 Alpha virt. eigenvalues --    0.12662   0.12770   0.13239   0.13543   0.14040

 Mulliken charges:
               1
     1  O   -0.571298
     2  O   -0.587271
     3  C   -0.031809
     4  C    0.011119
     5  C   -0.168942
     6  C   -0.196752
     7  C    0.160132
     8  C    0.167099
     9  C    0.039462
    10  C    0.039346
    11  C   -0.196934
    12  C   -0.223494
    13  C    0.060582
    14  C    0.052224
    15  C   -0.285101
    16  C   -0.307962
    17  C   -0.289114
    18  C   -0.313211
    19  C   -0.111019
    20  C   -0.167000
    21  C   -0.372033
    22  C   -0.360059
    23  C   -0.110893
    24  C   -0.086112
    25  C    0.070863
    26  C    0.097550
    27  C   -0.350700
    28  C   -0.355658
    29  C   -0.116776
    30  C   -0.122535
    31  C   -0.083711
    32  C   -0.100659
    33  C   -0.116341
    34  C   -0.089198
    35  C    0.135429
    36  C    0.121152
    37  C   -0.369951
    38  C   -0.362369
    39  C   -0.139585
    40  C   -0.148622
    41  C   -0.081959
    42  C   -0.094965
    43  H    0.095430
    44  H    0.082751
    45  H    0.068272
    46  H    0.108332
    47  H    0.060914
    48  H    0.093668
    49  H    0.124216
    50  H    0.114423
    51  H    0.113221
    52  H    0.105240
    53  H    0.115630
    54  H    0.080514
    55  H    0.101774
    56  H    0.101202
    57  H    0.103635
    58  H    0.096765
    59  H    0.116872
    60  H    0.091429
    61  H    0.094745
    62  H    0.080595
    63  H    0.098164
    64  H    0.117661
    65  H    0.091436
    66  H    0.086937
    67  H    0.113352
    68  H    0.126693
    69  H    0.082662
    70  H    0.120689
    71  H    0.116241
    72  H    0.107025
    73  H    0.300542
    74  H    0.300294
    75  H    0.078380
    76  H    0.077871
    77  H    0.143296
    78  H    0.118638
    79  H    0.105685
    80  H    0.130864
    81  H    0.116280
    82  H    0.101731
    83  H    0.085383
    84  H    0.088294
    85  H    0.060728
    86  H    0.091344
    87  H    0.065217
    88  H    0.074882
    89  H    0.137737
    90  H    0.099987
    91  H    0.101689
    92  H    0.126630
    93  H    0.111819
    94  H    0.107061
    95  H    0.100797
    96  H    0.073707
    97  H    0.082655
    98  H    0.065071
 Sum of Mulliken charges =  -0.00000

 Dipole moment (field-independent basis, Debye):
    X=              0.6337    Y=             -1.3495    Z=              1.6892  Tot=              2.2530
 Quadrupole moment (field-independent basis, Debye-Ang):
   XX=           -282.1406   YY=           -242.9242   ZZ=           -257.6575
   XY=             11.2144   XZ=             -7.3823   YZ=              2.0578

 Normal termination of Gaussian 16 at Fri Jun 28 11:00:14 2019.
