 Gaussian 16, Revision A.03,
 Gaussian 16:  ES64L-G16RevA.03 25-Dec-2016

 -------------------------------------
 # td=(NStates=1) CAM-B3LYP/6-31G(d,p)
 -------------------------------------

 --
 TD
 --
 Symbolic Z-matrix:
 Charge =  0 Multiplicity = 1

                         Standard orientation:
 ---------------------------------------------------------------------
 Center     Atomic      Atomic             Coordinates (Angstroms)
 Number     Number       Type             X           Y           Z
 ---------------------------------------------------------------------
      1          8           0       14.797952   -2.038774   -0.396397
      2          8           0      -14.929831    1.809555    0.821498
      3          6           0       11.559675   -1.097249    1.197182
      4          6           0      -12.413338   -0.952795    0.738735
      5          6           0       13.013119   -1.418921    1.124300
      6          6           0      -13.780954   -0.294555    0.703804
      7          6           0       13.454716   -1.966585   -0.323758
      8          6           0      -13.681914    1.228922    0.778818
      9          6           0       11.003537   -0.301702    0.022259
     10          6           0      -11.425500   -0.319072   -0.205535
     11          6           0       13.061145   -0.938966   -1.362834
     12          6           0      -12.896106    1.619396   -0.509912
     13          6           0       11.686038   -0.209648   -1.192042
     14          6           0      -11.600285    0.786841   -0.844552
     15          6           0       11.269698   -0.219086    2.527053
     16          6           0       10.782731   -2.473252    1.335826
     17          6           0      -11.686021   -0.675485    2.096128
     18          6           0      -12.595239   -2.448206    0.481637
     19          6           0        9.712653    0.415578    0.250137
     20          6           0      -10.133467   -1.080167   -0.369327
     21          6           0       11.229665    0.514021   -2.400310
     22          6           0      -10.788665    1.504464   -1.913548
     23          6           0        9.380439    1.654269    0.010589
     24          6           0       -8.931685   -0.552956   -0.379174
     25          6           0        8.094608    2.235448    0.076819
     26          6           0       -7.579815   -1.177210   -0.584404
     27          6           0        8.074778    3.613909    0.519920
     28          6           0       -7.647733   -2.653143   -0.940463
     29          6           0        6.959946    1.631665   -0.190062
     30          6           0       -6.445410   -0.495138   -0.292255
     31          6           0        5.624196    1.982244    0.056977
     32          6           0       -5.107116   -0.959161   -0.470296
     33          6           0        4.458783    1.135529   -0.043658
     34          6           0       -3.947673   -0.194835   -0.336368
     35          6           0        3.104349    1.549626    0.190110
     36          6           0       -2.660172   -0.733844   -0.370749
     37          6           0        2.860213    3.040810    0.567386
     38          6           0       -2.400690   -2.118738   -0.796565
     39          6           0        2.183342    0.586177   -0.166530
     40          6           0       -1.648358    0.097553   -0.117116
     41          6           0        0.673354    0.839827   -0.025431
     42          6           0       -0.278448   -0.105602   -0.266259
     43          1           0       13.729760   -0.396447    1.076262
     44          1           0       13.275119   -1.919305    2.005019
     45          1           0      -14.464575   -0.691450    1.540476
     46          1           0      -14.589387   -0.430326   -0.116006
     47          1           0       12.911299   -2.835180   -0.631279
     48          1           0      -13.219958    1.523149    1.724944
     49          1           0       13.868034   -0.293040   -1.554711
     50          1           0       13.127006   -1.250074   -2.528255
     51          1           0      -13.571873    1.448895   -1.269628
     52          1           0      -12.664717    2.594524   -0.235955
     53          1           0       11.698269   -0.652428    3.374874
     54          1           0       10.288147   -0.264356    2.873513
     55          1           0       11.782720    0.625491    2.609079
     56          1           0       11.061373   -2.998245    0.587604
     57          1           0       11.263029   -3.065211    2.137730
     58          1           0        9.798290   -2.548758    1.548874
     59          1           0      -11.604178    0.142167    2.412891
     60          1           0      -10.810740   -1.120726    2.233092
     61          1           0      -12.135768   -1.247344    3.063395
     62          1           0      -13.304306   -2.725641    1.334711
     63          1           0      -11.730903   -2.879092    0.681811
     64          1           0      -13.017615   -2.464012   -0.549794
     65          1           0        8.774303   -0.171119    0.454096
     66          1           0      -10.232520   -2.105629   -0.404804
     67          1           0       10.239547    1.062164   -2.357893
     68          1           0       11.992390    1.305618   -2.553531
     69          1           0       11.284651   -0.239742   -3.355746
     70          1           0      -11.383704    1.905063   -2.739828
     71          1           0      -10.257868    0.776638   -2.448452
     72          1           0      -10.188934    2.375704   -1.434925
     73          1           0       15.241074   -2.715432    0.097096
     74          1           0      -15.390725    1.916885    1.797364
     75          1           0       10.086385    2.337269   -0.236946
     76          1           0       -8.969784    0.611499   -0.253086
     77          1           0        8.501936    4.190948   -0.200876
     78          1           0        7.073553    3.965385    0.536412
     79          1           0        8.647982    3.586750    1.514489
     80          1           0       -8.472146   -3.204933   -0.213476
     81          1           0       -8.182908   -2.712613   -1.892506
     82          1           0       -6.616652   -3.115022   -1.016459
     83          1           0        6.926308    0.626314   -0.302494
     84          1           0       -6.425671    0.698937   -0.146329
     85          1           0        5.447092    3.092145    0.330934
     86          1           0       -5.043351   -1.920402   -0.583380
     87          1           0        4.795887    0.192297   -0.444759
     88          1           0       -4.010781    0.842911   -0.074425
     89          1           0        3.271796    3.272171    1.662751
     90          1           0        1.699163    3.280434    0.610689
     91          1           0        3.350767    3.563746   -0.192144
     92          1           0       -2.734013   -2.820607   -0.099843
     93          1           0       -2.799564   -2.392484   -1.767251
     94          1           0       -1.340287   -2.496173   -0.734209
     95          1           0        2.383101   -0.402014   -0.586185
     96          1           0       -1.955155    1.240148   -0.074310
     97          1           0        0.363340    1.653098    0.479314
     98          1           0        0.060435   -1.218571   -0.547918
 ---------------------------------------------------------------------

 SCF Done:  E(RCAM-B3LYP) =  -1706.91803936     A.U. after   14 cycles

 Excitation energies and oscillator strengths:

 Excited State   1:      Singlet-A      2.6801 eV  462.62 nm  f=3.7352  <S**2>=0.000
     155 ->158         0.16736
     156 ->157         0.68384
 This state for optimization and/or second-order correction.
 Total Energy, E(TD-HF/TD-DFT) =  -1706.81954929
 Copying the excited state density for this state as the 1-particle RhoCI density.

 The electronic state is 1-A.
 Alpha  occ. eigenvalues --  -19.21550 -19.21125 -10.30927 -10.29211 -10.27988
 Alpha  occ. eigenvalues --  -10.27731 -10.27623 -10.27600 -10.27309 -10.27227
 Alpha  occ. eigenvalues --  -10.27033 -10.26989 -10.26710 -10.26503 -10.26473
 Alpha  occ. eigenvalues --  -10.26288 -10.26266 -10.26227 -10.26144 -10.25994
 Alpha  occ. eigenvalues --  -10.25877 -10.25844 -10.25691 -10.25688 -10.25598
 Alpha  occ. eigenvalues --  -10.25585 -10.25522 -10.25297 -10.25032 -10.24930
 Alpha  occ. eigenvalues --  -10.24897 -10.24755 -10.24503 -10.24417 -10.24040
 Alpha  occ. eigenvalues --  -10.23829 -10.23699 -10.23381 -10.23273 -10.22506
 Alpha  occ. eigenvalues --  -10.22113 -10.22043  -1.12273  -1.08246  -0.93744
 Alpha  occ. eigenvalues --   -0.93227  -0.92657  -0.91860  -0.90212  -0.89719
 Alpha  occ. eigenvalues --   -0.86944  -0.86479  -0.86231  -0.85275  -0.84567
 Alpha  occ. eigenvalues --   -0.82679  -0.81891  -0.80591  -0.79601  -0.78501
 Alpha  occ. eigenvalues --   -0.78115  -0.78046  -0.76652  -0.76278  -0.75963
 Alpha  occ. eigenvalues --   -0.75771  -0.75203  -0.74836  -0.73888  -0.70709
 Alpha  occ. eigenvalues --   -0.69364  -0.67237  -0.66170  -0.65073  -0.64716
 Alpha  occ. eigenvalues --   -0.64170  -0.62932  -0.61847  -0.60721  -0.60671
 Alpha  occ. eigenvalues --   -0.59970  -0.59379  -0.58308  -0.57506  -0.56181
 Alpha  occ. eigenvalues --   -0.56104  -0.55126  -0.54652  -0.54496  -0.53912
 Alpha  occ. eigenvalues --   -0.53349  -0.53095  -0.52341  -0.52145  -0.51273
 Alpha  occ. eigenvalues --   -0.50959  -0.50601  -0.50252  -0.49938  -0.49826
 Alpha  occ. eigenvalues --   -0.49570  -0.49379  -0.48888  -0.48774  -0.47966
 Alpha  occ. eigenvalues --   -0.47746  -0.47347  -0.47177  -0.46332  -0.46307
 Alpha  occ. eigenvalues --   -0.45978  -0.45697  -0.45132  -0.44851  -0.44557
 Alpha  occ. eigenvalues --   -0.44425  -0.43932  -0.43695  -0.43505  -0.43299
 Alpha  occ. eigenvalues --   -0.43110  -0.43064  -0.42441  -0.42304  -0.42025
 Alpha  occ. eigenvalues --   -0.41436  -0.41374  -0.41236  -0.41203  -0.40725
 Alpha  occ. eigenvalues --   -0.40052  -0.39431  -0.39302  -0.38856  -0.38608
 Alpha  occ. eigenvalues --   -0.38517  -0.38300  -0.38283  -0.37959  -0.37717
 Alpha  occ. eigenvalues --   -0.37653  -0.37545  -0.37184  -0.36166  -0.35535
 Alpha  occ. eigenvalues --   -0.35112  -0.34119  -0.33899  -0.32184  -0.31604
 Alpha  occ. eigenvalues --   -0.30296  -0.29904  -0.27711  -0.26752  -0.23798
 Alpha  occ. eigenvalues --   -0.20239
 Alpha virt. eigenvalues --   -0.04164  -0.00109   0.03980   0.06231   0.08505
 Alpha virt. eigenvalues --    0.09454   0.09986   0.11964   0.12514   0.13098
 Alpha virt. eigenvalues --    0.13144   0.13381   0.13743   0.14105   0.14212

 Mulliken charges:
               1
     1  O   -0.542962
     2  O   -0.581930
     3  C   -0.009853
     4  C   -0.036722
     5  C   -0.202605
     6  C   -0.180788
     7  C    0.187053
     8  C    0.162983
     9  C    0.038579
    10  C    0.093081
    11  C   -0.236661
    12  C   -0.206308
    13  C    0.085278
    14  C    0.008439
    15  C   -0.314844
    16  C   -0.303380
    17  C   -0.272550
    18  C   -0.282367
    19  C   -0.111481
    20  C   -0.130436
    21  C   -0.363352
    22  C   -0.352311
    23  C   -0.067788
    24  C   -0.081959
    25  C    0.077470
    26  C    0.099652
    27  C   -0.356256
    28  C   -0.366679
    29  C   -0.100614
    30  C   -0.117532
    31  C   -0.114456
    32  C   -0.072922
    33  C   -0.117797
    34  C   -0.122280
    35  C    0.096886
    36  C    0.167322
    37  C   -0.351800
    38  C   -0.390843
    39  C   -0.124773
    40  C   -0.150757
    41  C   -0.092699
    42  C   -0.077908
    43  H    0.074552
    44  H    0.093659
    45  H    0.060994
    46  H    0.089680
    47  H    0.086487
    48  H    0.065963
    49  H    0.131741
    50  H    0.074275
    51  H    0.121257
    52  H    0.107540
    53  H    0.085942
    54  H    0.108760
    55  H    0.110688
    56  H    0.110533
    57  H    0.082873
    58  H    0.113493
    59  H    0.104910
    60  H    0.119174
    61  H    0.044369
    62  H    0.096820
    63  H    0.105918
    64  H    0.109406
    65  H    0.080098
    66  H    0.067027
    67  H    0.121230
    68  H    0.116640
    69  H    0.091957
    70  H    0.109848
    71  H    0.125371
    72  H    0.109971
    73  H    0.306720
    74  H    0.317274
    75  H    0.071770
    76  H    0.072539
    77  H    0.124892
    78  H    0.105601
    79  H    0.115754
    80  H    0.100646
    81  H    0.133037
    82  H    0.109531
    83  H    0.056375
    84  H    0.070262
    85  H    0.058941
    86  H    0.059342
    87  H    0.083428
    88  H    0.081215
    89  H    0.115059
    90  H    0.101123
    91  H    0.145098
    92  H    0.127658
    93  H    0.127910
    94  H    0.101529
    95  H    0.093408
    96  H    0.071357
    97  H    0.077931
    98  H    0.069292
 Sum of Mulliken charges =  -0.00000

 Dipole moment (field-independent basis, Debye):
    X=              1.8064    Y=             -1.4520    Z=              1.7340  Tot=              2.8944
 Quadrupole moment (field-independent basis, Debye-Ang):
   XX=           -247.7212   YY=           -241.7246   ZZ=           -256.5243
   XY=            -10.9966   XZ=             -6.2717   YZ=              2.9723

 Normal termination of Gaussian 16 at Sat Jul  6 03:50:11 2019.
