 Gaussian 16, Revision A.03,
 Gaussian 16:  ES64L-G16RevA.03 25-Dec-2016

 -------------------------------------
 # td=(NStates=1) CAM-B3LYP/6-31G(d,p)
 -------------------------------------

 --
 TD
 --
 Symbolic Z-matrix:
 Charge =  0 Multiplicity = 1

                         Standard orientation:
 ---------------------------------------------------------------------
 Center     Atomic      Atomic             Coordinates (Angstroms)
 Number     Number       Type             X           Y           Z
 ---------------------------------------------------------------------
      1          8           0       14.680677   -2.179123   -0.531778
      2          8           0      -14.777650    1.911497    0.632276
      3          6           0       11.514954   -1.060438    1.188068
      4          6           0      -12.279618   -0.801653    0.898155
      5          6           0       12.931005   -1.435672    1.094258
      6          6           0      -13.663328   -0.134885    0.855883
      7          6           0       13.286605   -1.940637   -0.349552
      8          6           0      -13.584003    1.356198    0.605966
      9          6           0       10.929008   -0.231957    0.006237
     10          6           0      -11.305120   -0.252493   -0.207031
     11          6           0       13.007414   -0.767660   -1.410816
     12          6           0      -12.915074    1.573056   -0.695628
     13          6           0       11.509766   -0.158229   -1.230199
     14          6           0      -11.598848    0.828616   -0.813122
     15          6           0       11.347481   -0.234613    2.536501
     16          6           0       10.660348   -2.406618    1.349203
     17          6           0      -11.642252   -0.795059    2.244229
     18          6           0      -12.553800   -2.310031    0.499149
     19          6           0        9.617451    0.412409    0.213664
     20          6           0      -10.033426   -1.017345   -0.451315
     21          6           0       10.943832    0.417197   -2.462832
     22          6           0      -10.707680    1.535946   -1.881304
     23          6           0        9.288083    1.625844   -0.092437
     24          6           0       -8.815674   -0.478990   -0.323953
     25          6           0        8.040135    2.376780    0.120520
     26          6           0       -7.596779   -1.274924   -0.507511
     27          6           0        8.113139    3.845110    0.379089
     28          6           0       -7.680559   -2.683667   -0.888580
     29          6           0        6.955658    1.640410    0.001110
     30          6           0       -6.462030   -0.567514   -0.384580
     31          6           0        5.595084    2.068418    0.056479
     32          6           0       -5.088328   -1.181374   -0.358404
     33          6           0        4.533743    1.216926    0.012193
     34          6           0       -3.979155   -0.452992   -0.192159
     35          6           0        3.076346    1.618206    0.245823
     36          6           0       -2.502034   -0.944909   -0.321275
     37          6           0        2.836072    3.016426    0.522211
     38          6           0       -2.388328   -2.346181   -0.843791
     39          6           0        2.109577    0.742768    0.013127
     40          6           0       -1.548699   -0.013385   -0.170621
     41          6           0        0.654445    0.800386    0.118633
     42          6           0       -0.123647   -0.224290   -0.229477
     43          1           0       13.555652   -0.575170    1.500585
     44          1           0       13.251572   -2.243592    1.766847
     45          1           0      -14.234622   -0.402779    1.706038
     46          1           0      -14.040317   -0.416029   -0.073764
     47          1           0       12.590264   -2.944044   -0.601714
     48          1           0      -13.066270    2.059815    1.256672
     49          1           0       13.803323   -0.097332   -1.170258
     50          1           0       13.436360   -1.067570   -2.364576
     51          1           0      -13.590967    1.407008   -1.481612
     52          1           0      -12.660982    2.705936   -0.768013
     53          1           0       11.560009   -1.083040    3.189034
     54          1           0       10.285305    0.188855    2.666636
     55          1           0       11.966408    0.664475    2.480855
     56          1           0       11.019156   -2.931496    0.463855
     57          1           0       10.814092   -3.005375    2.371339
     58          1           0        9.333027   -2.257716    1.339119
     59          1           0      -11.543373    0.148314    2.801500
     60          1           0      -10.568188   -1.193899    2.077708
     61          1           0      -12.227689   -1.473251    3.148616
     62          1           0      -12.972738   -2.797839    1.303437
     63          1           0      -11.590490   -2.929398    0.377423
     64          1           0      -13.197049   -2.285096   -0.396410
     65          1           0        8.928966   -0.190536    0.857611
     66          1           0      -10.042965   -2.117447   -0.745976
     67          1           0        9.911214    0.529809   -2.276763
     68          1           0       11.461063    1.250180   -2.920218
     69          1           0       10.963679   -0.466673   -3.127964
     70          1           0      -11.200131    1.474674   -2.913467
     71          1           0      -10.050517    0.783085   -2.213169
     72          1           0      -10.354269    2.560789   -1.658425
     73          1           0       14.920829   -2.916464   -0.075912
     74          1           0      -15.301515    1.880433    1.612522
     75          1           0       10.051000    2.130172   -0.405108
     76          1           0       -8.664919    0.550494    0.010657
     77          1           0        8.680261    4.174706   -0.606337
     78          1           0        7.152602    4.225962    0.448987
     79          1           0        8.508917    3.968775    1.403660
     80          1           0       -8.628939   -3.487502   -0.370750
     81          1           0       -7.913347   -2.700203   -1.920384
     82          1           0       -6.662993   -3.135796   -0.983707
     83          1           0        7.150078    0.594516   -0.045917
     84          1           0       -6.588469    0.487309   -0.176281
     85          1           0        5.385836    3.127219    0.282340
     86          1           0       -4.930048   -2.304480   -0.628723
     87          1           0        4.435047    0.152486   -0.245318
     88          1           0       -4.192967    0.558573    0.004597
     89          1           0        3.592640    3.288541    1.530546
     90          1           0        1.729361    3.272526    0.915529
     91          1           0        3.271636    3.522052   -0.245294
     92          1           0       -2.872676   -3.044124   -0.208765
     93          1           0       -2.780478   -2.529308   -1.836379
     94          1           0       -1.212244   -2.608508   -0.740044
     95          1           0        2.347184   -0.186597   -0.240670
     96          1           0       -1.792859    0.902342    0.182488
     97          1           0        0.294573    1.852445    0.652415
     98          1           0        0.367165   -1.084304   -0.588559
 ---------------------------------------------------------------------

 SCF Done:  E(RCAM-B3LYP) =  -1706.95543232     A.U. after   13 cycles

 Excitation energies and oscillator strengths:

 Excited State   1:      Singlet-A      3.3185 eV  373.61 nm  f=3.5236  <S**2>=0.000
     155 ->158        -0.20526
     156 ->157         0.66513
 This state for optimization and/or second-order correction.
 Total Energy, E(TD-HF/TD-DFT) =  -1706.83347866
 Copying the excited state density for this state as the 1-particle RhoCI density.

 The electronic state is 1-A.
 Alpha  occ. eigenvalues --  -19.21217 -19.20796 -10.32637 -10.28120 -10.27884
 Alpha  occ. eigenvalues --  -10.27870 -10.27693 -10.27458 -10.27386 -10.27227
 Alpha  occ. eigenvalues --  -10.26886 -10.26842 -10.26724 -10.26712 -10.26711
 Alpha  occ. eigenvalues --  -10.26580 -10.26473 -10.26376 -10.26305 -10.26200
 Alpha  occ. eigenvalues --  -10.26161 -10.26099 -10.26022 -10.25906 -10.25880
 Alpha  occ. eigenvalues --  -10.25689 -10.25617 -10.25548 -10.25441 -10.25258
 Alpha  occ. eigenvalues --  -10.25182 -10.25162 -10.25153 -10.24841 -10.24404
 Alpha  occ. eigenvalues --  -10.24378 -10.24321 -10.24146 -10.24114 -10.23941
 Alpha  occ. eigenvalues --  -10.23695 -10.23270  -1.10916  -1.10467  -0.93438
 Alpha  occ. eigenvalues --   -0.93293  -0.92214  -0.91593  -0.91248  -0.90146
 Alpha  occ. eigenvalues --   -0.87484  -0.86872  -0.86399  -0.85045  -0.84473
 Alpha  occ. eigenvalues --   -0.83014  -0.82048  -0.80478  -0.79552  -0.78686
 Alpha  occ. eigenvalues --   -0.76927  -0.76655  -0.75944  -0.75611  -0.75409
 Alpha  occ. eigenvalues --   -0.75087  -0.74903  -0.74759  -0.73943  -0.69778
 Alpha  occ. eigenvalues --   -0.68233  -0.67072  -0.65457  -0.64839  -0.63405
 Alpha  occ. eigenvalues --   -0.62973  -0.62489  -0.62339  -0.60398  -0.59480
 Alpha  occ. eigenvalues --   -0.58933  -0.58652  -0.58526  -0.58226  -0.56534
 Alpha  occ. eigenvalues --   -0.56003  -0.55483  -0.55231  -0.53722  -0.53675
 Alpha  occ. eigenvalues --   -0.53101  -0.52669  -0.52215  -0.51413  -0.51284
 Alpha  occ. eigenvalues --   -0.50990  -0.50368  -0.50273  -0.49496  -0.49338
 Alpha  occ. eigenvalues --   -0.49277  -0.49105  -0.48963  -0.48566  -0.48136
 Alpha  occ. eigenvalues --   -0.47778  -0.47648  -0.46976  -0.46494  -0.46188
 Alpha  occ. eigenvalues --   -0.46005  -0.45733  -0.45431  -0.45113  -0.44641
 Alpha  occ. eigenvalues --   -0.44365  -0.44317  -0.44005  -0.43606  -0.43344
 Alpha  occ. eigenvalues --   -0.42782  -0.42753  -0.42422  -0.41975  -0.41583
 Alpha  occ. eigenvalues --   -0.41535  -0.41198  -0.41037  -0.40809  -0.40647
 Alpha  occ. eigenvalues --   -0.40529  -0.39627  -0.39579  -0.39477  -0.39277
 Alpha  occ. eigenvalues --   -0.38794  -0.38366  -0.38095  -0.37820  -0.37317
 Alpha  occ. eigenvalues --   -0.37216  -0.36965  -0.36465  -0.35683  -0.35400
 Alpha  occ. eigenvalues --   -0.34905  -0.34144  -0.33304  -0.32274  -0.32187
 Alpha  occ. eigenvalues --   -0.30263  -0.29909  -0.28656  -0.26644  -0.24375
 Alpha  occ. eigenvalues --   -0.22044
 Alpha virt. eigenvalues --   -0.02579   0.00735   0.03539   0.06617   0.08766
 Alpha virt. eigenvalues --    0.09158   0.10074   0.10096   0.11234   0.11595
 Alpha virt. eigenvalues --    0.11960   0.12696   0.13119   0.13413   0.13829

 Mulliken charges:
               1
     1  O   -0.541882
     2  O   -0.571470
     3  C   -0.026364
     4  C   -0.013307
     5  C   -0.179224
     6  C   -0.177289
     7  C    0.152349
     8  C    0.214970
     9  C    0.058868
    10  C    0.078638
    11  C   -0.227046
    12  C   -0.234460
    13  C    0.035307
    14  C    0.038509
    15  C   -0.292119
    16  C   -0.276137
    17  C   -0.290964
    18  C   -0.296245
    19  C   -0.128642
    20  C   -0.179946
    21  C   -0.361199
    22  C   -0.363235
    23  C   -0.071658
    24  C   -0.062402
    25  C    0.058645
    26  C    0.161821
    27  C   -0.347891
    28  C   -0.378849
    29  C   -0.087708
    30  C   -0.155068
    31  C   -0.119651
    32  C   -0.096582
    33  C   -0.090813
    34  C   -0.104190
    35  C    0.125711
    36  C    0.090666
    37  C   -0.363472
    38  C   -0.374303
    39  C   -0.136647
    40  C   -0.097608
    41  C   -0.062148
    42  C   -0.089403
    43  H    0.102776
    44  H    0.084558
    45  H    0.081218
    46  H    0.102978
    47  H    0.056166
    48  H    0.054444
    49  H    0.124965
    50  H    0.106002
    51  H    0.119950
    52  H    0.086938
    53  H    0.099780
    54  H    0.095911
    55  H    0.105159
    56  H    0.107694
    57  H    0.089947
    58  H    0.059097
    59  H    0.104437
    60  H    0.102876
    61  H    0.056533
    62  H    0.104933
    63  H    0.080809
    64  H    0.100555
    65  H    0.079348
    66  H    0.091014
    67  H    0.124226
    68  H    0.120937
    69  H    0.112808
    70  H    0.092610
    71  H    0.119722
    72  H    0.118696
    73  H    0.295599
    74  H    0.307673
    75  H    0.065741
    76  H    0.089762
    77  H    0.115225
    78  H    0.117931
    79  H    0.130957
    80  H    0.081546
    81  H    0.143476
    82  H    0.106740
    83  H    0.080258
    84  H    0.086536
    85  H    0.082682
    86  H    0.070477
    87  H    0.082424
    88  H    0.073564
    89  H    0.071428
    90  H    0.098889
    91  H    0.143601
    92  H    0.131382
    93  H    0.134808
    94  H    0.085250
    95  H    0.057814
    96  H    0.083478
    97  H    0.064678
    98  H    0.093431
 Sum of Mulliken charges =  -0.00000

 Dipole moment (field-independent basis, Debye):
    X=              0.8294    Y=             -0.8985    Z=              1.2781  Tot=              1.7688
 Quadrupole moment (field-independent basis, Debye-Ang):
   XX=           -265.3553   YY=           -244.3693   ZZ=           -259.5590
   XY=             -0.1849   XZ=             -4.5207   YZ=              4.0993

 Normal termination of Gaussian 16 at Fri Jul  5 23:28:13 2019.
