 Gaussian 16, Revision A.03,
 Gaussian 16:  ES64L-G16RevA.03 25-Dec-2016

 -------------------------------------
 # td=(NStates=1) CAM-B3LYP/6-31G(d,p)
 -------------------------------------

 --
 TD
 --
 Symbolic Z-matrix:
 Charge =  0 Multiplicity = 1

                         Standard orientation:
 ---------------------------------------------------------------------
 Center     Atomic      Atomic             Coordinates (Angstroms)
 Number     Number       Type             X           Y           Z
 ---------------------------------------------------------------------
      1          8           0       14.874659   -1.957055   -0.378129
      2          8           0      -14.909785    1.626761    0.912736
      3          6           0       11.394577   -1.295667    1.109187
      4          6           0      -12.281879   -0.933356    0.678532
      5          6           0       12.958112   -1.471542    0.994898
      6          6           0      -13.681631   -0.346435    0.653994
      7          6           0       13.381248   -1.852208   -0.369065
      8          6           0      -13.584969    1.116997    0.835053
      9          6           0       10.899907   -0.380441   -0.058768
     10          6           0      -11.356466   -0.154413   -0.243710
     11          6           0       13.010500   -0.760710   -1.229479
     12          6           0      -12.890690    1.711372   -0.417777
     13          6           0       11.554734   -0.186648   -1.210377
     14          6           0      -11.561287    0.955842   -0.706468
     15          6           0       11.156955   -0.655695    2.463672
     16          6           0       10.649742   -2.607671    1.098823
     17          6           0      -11.704367   -1.000244    2.137161
     18          6           0      -12.509587   -2.393495    0.274572
     19          6           0        9.641272    0.272372    0.129034
     20          6           0      -10.074361   -0.958882   -0.458695
     21          6           0       11.050628    0.554525   -2.410756
     22          6           0      -10.665234    1.682527   -1.755831
     23          6           0        9.359098    1.540765    0.051776
     24          6           0       -8.817710   -0.444866   -0.443131
     25          6           0        8.061264    2.262346    0.159922
     26          6           0       -7.539441   -1.197290   -0.569888
     27          6           0        8.120207    3.715009    0.547101
     28          6           0       -7.723150   -2.622146   -1.017274
     29          6           0        6.898869    1.568430    0.032182
     30          6           0       -6.452415   -0.513214   -0.283332
     31          6           0        5.585872    2.038935    0.216994
     32          6           0       -5.120175   -0.958807   -0.461092
     33          6           0        4.428878    1.312224   -0.030459
     34          6           0       -3.968201   -0.186063   -0.290523
     35          6           0        3.103561    1.617237    0.114307
     36          6           0       -2.531985   -0.761269   -0.430990
     37          6           0        2.851311    3.058092    0.529330
     38          6           0       -2.350796   -2.135460   -0.879274
     39          6           0        2.158977    0.704778   -0.041786
     40          6           0       -1.562743    0.144182   -0.105852
     41          6           0        0.737359    0.928646    0.106008
     42          6           0       -0.145563   -0.128157   -0.002093
     43          1           0       13.365340   -0.467776    1.174953
     44          1           0       13.162779   -2.168729    1.793647
     45          1           0      -14.427621   -0.606693    1.379579
     46          1           0      -14.230093   -0.482745   -0.198310
     47          1           0       12.964375   -2.785975   -0.796742
     48          1           0      -13.152179    1.364809    1.799698
     49          1           0       13.806614    0.166237   -0.785807
     50          1           0       13.282606   -1.011647   -2.191449
     51          1           0      -13.564614    1.608035   -1.222233
     52          1           0      -12.829696    2.752679   -0.376544
     53          1           0       11.685289   -1.335702    3.233170
     54          1           0       10.251975   -0.418750    2.629847
     55          1           0       11.555900    0.283261    2.447635
     56          1           0       10.735324   -3.123874    0.210671
     57          1           0       10.936161   -2.938398    2.010597
     58          1           0        9.583360   -2.187542    1.115405
     59          1           0      -11.894564    0.014188    2.824166
     60          1           0      -10.513584   -1.174620    2.171293
     61          1           0      -12.236407   -1.997509    2.667280
     62          1           0      -13.397200   -2.987943    0.718676
     63          1           0      -11.500834   -3.032273    0.469282
     64          1           0      -12.719993   -2.339734   -0.825615
     65          1           0        8.876895   -0.268345    0.709102
     66          1           0      -10.269234   -2.094437   -0.774255
     67          1           0       10.055674    1.038937   -2.214023
     68          1           0       11.473397    1.658687   -2.593938
     69          1           0       11.197184    0.222298   -3.512749
     70          1           0      -11.214115    2.073427   -2.596465
     71          1           0       -9.889901    0.996652   -2.010983
     72          1           0      -10.118434    2.604879   -1.358204
     73          1           0       15.226501   -2.306099    0.366599
     74          1           0      -15.304500    1.215164    1.572221
     75          1           0       10.209129    2.145626   -0.295789
     76          1           0       -8.729947    0.507084   -0.249298
     77          1           0        8.972779    4.254399    0.045846
     78          1           0        6.924949    4.246871    0.307619
     79          1           0        8.300115    3.406667    1.720231
     80          1           0       -8.220764   -3.193074   -0.303200
     81          1           0       -8.462533   -2.606496   -1.856391
     82          1           0       -6.662290   -2.917391   -1.629333
     83          1           0        7.043168    0.501765   -0.513004
     84          1           0       -6.552844    0.727267   -0.089103
     85          1           0        5.431050    2.842384    0.866934
     86          1           0       -5.106503   -2.022588   -0.817784
     87          1           0        4.722606    0.312422   -0.486643
     88          1           0       -4.097562    0.761835    0.030578
     89          1           0        3.142519    3.198006    1.550119
     90          1           0        1.779169    3.224862    0.762948
     91          1           0        3.420394    3.562947   -0.223118
     92          1           0       -2.779610   -2.920775   -0.273385
     93          1           0       -2.788374   -2.293083   -1.941341
     94          1           0       -1.234989   -2.429555   -0.829718
     95          1           0        2.516567   -0.368648   -0.387255
     96          1           0       -1.830052    1.227688    0.178976
     97          1           0        0.432342    1.944442    0.304991
     98          1           0        0.072758   -1.178358   -0.281804
 ---------------------------------------------------------------------

 SCF Done:  E(RCAM-B3LYP) =  -1706.92688264     A.U. after   14 cycles

 Excitation energies and oscillator strengths:

 Excited State   1:      Singlet-A      2.7141 eV  456.82 nm  f=3.5239  <S**2>=0.000
     155 ->158         0.16914
     156 ->157         0.68184
 This state for optimization and/or second-order correction.
 Total Energy, E(TD-HF/TD-DFT) =  -1706.82714223
 Copying the excited state density for this state as the 1-particle RhoCI density.

 The electronic state is 1-A.
 Alpha  occ. eigenvalues --  -19.19339 -19.19254 -10.30141 -10.29355 -10.29149
 Alpha  occ. eigenvalues --  -10.28244 -10.28076 -10.27741 -10.27510 -10.27453
 Alpha  occ. eigenvalues --  -10.27180 -10.27162 -10.27130 -10.27047 -10.27034
 Alpha  occ. eigenvalues --  -10.26980 -10.26928 -10.26914 -10.26844 -10.26754
 Alpha  occ. eigenvalues --  -10.26679 -10.26621 -10.26590 -10.26499 -10.26158
 Alpha  occ. eigenvalues --  -10.26124 -10.25936 -10.25776 -10.25671 -10.25643
 Alpha  occ. eigenvalues --  -10.25542 -10.25534 -10.25402 -10.25197 -10.24963
 Alpha  occ. eigenvalues --  -10.24940 -10.24898 -10.24834 -10.24267 -10.23664
 Alpha  occ. eigenvalues --  -10.23310 -10.22976  -1.11077  -1.08027  -0.94670
 Alpha  occ. eigenvalues --   -0.94638  -0.92828  -0.91721  -0.90961  -0.90313
 Alpha  occ. eigenvalues --   -0.87975  -0.87382  -0.87120  -0.86259  -0.85124
 Alpha  occ. eigenvalues --   -0.83572  -0.82644  -0.80784  -0.79535  -0.78536
 Alpha  occ. eigenvalues --   -0.78078  -0.77070  -0.76589  -0.76254  -0.76104
 Alpha  occ. eigenvalues --   -0.75917  -0.75873  -0.73883  -0.73685  -0.70686
 Alpha  occ. eigenvalues --   -0.68966  -0.67700  -0.66389  -0.64903  -0.64429
 Alpha  occ. eigenvalues --   -0.63931  -0.62763  -0.61953  -0.60638  -0.59551
 Alpha  occ. eigenvalues --   -0.59028  -0.58971  -0.58361  -0.58021  -0.56974
 Alpha  occ. eigenvalues --   -0.56051  -0.55453  -0.55039  -0.54887  -0.54039
 Alpha  occ. eigenvalues --   -0.53563  -0.53302  -0.53121  -0.52088  -0.51488
 Alpha  occ. eigenvalues --   -0.50950  -0.50448  -0.50138  -0.50000  -0.49637
 Alpha  occ. eigenvalues --   -0.49003  -0.48787  -0.48451  -0.48296  -0.48198
 Alpha  occ. eigenvalues --   -0.47956  -0.47759  -0.47236  -0.46777  -0.46677
 Alpha  occ. eigenvalues --   -0.46363  -0.45887  -0.45851  -0.45356  -0.44643
 Alpha  occ. eigenvalues --   -0.43998  -0.43831  -0.43701  -0.43368  -0.43166
 Alpha  occ. eigenvalues --   -0.42959  -0.42881  -0.42506  -0.42284  -0.42125
 Alpha  occ. eigenvalues --   -0.41898  -0.41584  -0.41417  -0.40640  -0.40347
 Alpha  occ. eigenvalues --   -0.40280  -0.39870  -0.39782  -0.39360  -0.39185
 Alpha  occ. eigenvalues --   -0.38844  -0.38693  -0.38571  -0.38225  -0.38195
 Alpha  occ. eigenvalues --   -0.37939  -0.37586  -0.37182  -0.35863  -0.35457
 Alpha  occ. eigenvalues --   -0.35076  -0.34609  -0.34223  -0.32993  -0.32490
 Alpha  occ. eigenvalues --   -0.31478  -0.30772  -0.28736  -0.27161  -0.24304
 Alpha  occ. eigenvalues --   -0.20865
 Alpha virt. eigenvalues --   -0.04451  -0.00376   0.02838   0.05891   0.08358
 Alpha virt. eigenvalues --    0.10057   0.11152   0.11441   0.11758   0.12420
 Alpha virt. eigenvalues --    0.12517   0.12847   0.13065   0.13364   0.13670

 Mulliken charges:
               1
     1  O   -0.574341
     2  O   -0.552930
     3  C   -0.071045
     4  C    0.003607
     5  C   -0.182626
     6  C   -0.172843
     7  C    0.172861
     8  C    0.144030
     9  C    0.051975
    10  C    0.091890
    11  C   -0.195919
    12  C   -0.220756
    13  C    0.089908
    14  C    0.038958
    15  C   -0.277857
    16  C   -0.254806
    17  C   -0.281461
    18  C   -0.306164
    19  C   -0.122239
    20  C   -0.155363
    21  C   -0.389836
    22  C   -0.367840
    23  C   -0.110492
    24  C   -0.072828
    25  C    0.067692
    26  C    0.121319
    27  C   -0.330724
    28  C   -0.370658
    29  C   -0.117294
    30  C   -0.118674
    31  C   -0.104581
    32  C   -0.097379
    33  C   -0.125892
    34  C   -0.106120
    35  C    0.127329
    36  C    0.111395
    37  C   -0.366513
    38  C   -0.380797
    39  C   -0.128568
    40  C   -0.119487
    41  C   -0.095051
    42  C   -0.081583
    43  H    0.106568
    44  H    0.074893
    45  H    0.067352
    46  H    0.111056
    47  H    0.089158
    48  H    0.079747
    49  H    0.077681
    50  H    0.102709
    51  H    0.121085
    52  H    0.108435
    53  H    0.086813
    54  H    0.105073
    55  H    0.108586
    56  H    0.111074
    57  H    0.103490
    58  H    0.090097
    59  H    0.078071
    60  H    0.104011
    61  H    0.077376
    62  H    0.103249
    63  H    0.078941
    64  H    0.100866
    65  H    0.081339
    66  H    0.081052
    67  H    0.126248
    68  H    0.093692
    69  H    0.116129
    70  H    0.113564
    71  H    0.121415
    72  H    0.100294
    73  H    0.293030
    74  H    0.283210
    75  H    0.074343
    76  H    0.074427
    77  H    0.123052
    78  H    0.085908
    79  H    0.119699
    80  H    0.141307
    81  H    0.126104
    82  H    0.090442
    83  H    0.077348
    84  H    0.064487
    85  H    0.087534
    86  H    0.073055
    87  H    0.067856
    88  H    0.077421
    89  H    0.129895
    90  H    0.096882
    91  H    0.135066
    92  H    0.133759
    93  H    0.121647
    94  H    0.097819
    95  H    0.079072
    96  H    0.079878
    97  H    0.093181
    98  H    0.085216
 Sum of Mulliken charges =  -0.00000

 Dipole moment (field-independent basis, Debye):
    X=             -0.5646    Y=             -1.1209    Z=              1.5602  Tot=              2.0024
 Quadrupole moment (field-independent basis, Debye-Ang):
   XX=           -294.8221   YY=           -249.4754   ZZ=           -259.1082
   XY=             19.0351   XZ=             14.0046   YZ=              0.3318

 Normal termination of Gaussian 16 at Wed Jun 26 23:53:14 2019.
