 Gaussian 16, Revision A.03,
 Gaussian 16:  ES64L-G16RevA.03 25-Dec-2016

 -------------------------------------
 # td=(NStates=1) CAM-B3LYP/6-31G(d,p)
 -------------------------------------

 --
 TD
 --
 Symbolic Z-matrix:
 Charge =  0 Multiplicity = 1

                         Standard orientation:
 ---------------------------------------------------------------------
 Center     Atomic      Atomic             Coordinates (Angstroms)
 Number     Number       Type             X           Y           Z
 ---------------------------------------------------------------------
      1          8           0       14.604571   -2.395655   -0.170626
      2          8           0      -14.829516    1.975113    0.873187
      3          6           0       11.400551   -1.124721    1.219844
      4          6           0      -12.313968   -1.031160    0.816701
      5          6           0       12.816594   -1.560220    1.186750
      6          6           0      -13.660281   -0.272496    1.003081
      7          6           0       13.172270   -2.119152   -0.159990
      8          6           0      -13.497186    1.332205    0.859691
      9          6           0       10.917790   -0.359081    0.016115
     10          6           0      -11.330137   -0.399312   -0.259955
     11          6           0       12.830713   -1.153584   -1.256274
     12          6           0      -12.872375    1.787840   -0.367075
     13          6           0       11.613310   -0.295664   -1.121088
     14          6           0      -11.621530    0.862413   -0.690900
     15          6           0       11.354722   -0.193672    2.504551
     16          6           0       10.472630   -2.275792    1.416206
     17          6           0      -11.533880   -1.026443    2.142545
     18          6           0      -12.573355   -2.479744    0.391574
     19          6           0        9.674709    0.402069    0.186290
     20          6           0      -10.093110   -1.138650   -0.491165
     21          6           0       11.147381    0.312740   -2.444354
     22          6           0      -10.635099    1.576733   -1.656313
     23          6           0        9.305063    1.606327   -0.142311
     24          6           0       -8.896487   -0.629923   -0.305031
     25          6           0        8.038467    2.260277    0.104767
     26          6           0       -7.586746   -1.385794   -0.587482
     27          6           0        8.116874    3.776769    0.365606
     28          6           0       -7.544306   -2.761004   -0.948974
     29          6           0        6.925409    1.659401   -0.092464
     30          6           0       -6.396272   -0.667724   -0.486872
     31          6           0        5.475939    2.162514    0.091464
     32          6           0       -5.016635   -1.064198   -0.580806
     33          6           0        4.455620    1.402007   -0.111734
     34          6           0       -3.937923   -0.352371   -0.360200
     35          6           0        3.117944    1.895579    0.117925
     36          6           0       -2.560828   -0.764368   -0.524380
     37          6           0        2.829507    3.328023    0.368637
     38          6           0       -2.340646   -2.072473   -0.995514
     39          6           0        2.170399    0.891131   -0.243155
     40          6           0       -1.528675    0.154579   -0.270624
     41          6           0        0.696301    1.030504   -0.052882
     42          6           0       -0.140333   -0.001332   -0.347910
     43          1           0       13.524464   -0.657084    1.428780
     44          1           0       12.899762   -2.204561    2.171010
     45          1           0      -13.998210   -0.659631    2.014985
     46          1           0      -14.036599   -0.521938   -0.047443
     47          1           0       12.546118   -3.006162   -0.412320
     48          1           0      -12.990227    1.533947    1.706261
     49          1           0       13.761287   -0.363897   -1.155822
     50          1           0       12.771531   -1.410209   -2.395464
     51          1           0      -13.579311    1.678341   -1.231613
     52          1           0      -12.485086    2.867487   -0.157391
     53          1           0       11.791636   -0.654600    3.326382
     54          1           0       10.128452   -0.073981    2.964336
     55          1           0       11.759345    0.832431    2.405557
     56          1           0       10.708255   -2.831468    0.530504
     57          1           0       10.748741   -2.952538    2.217618
     58          1           0        9.479179   -2.043338    1.569986
     59          1           0      -11.372718    0.013779    2.478774
     60          1           0      -10.526296   -1.318894    2.046726
     61          1           0      -12.047060   -1.561586    2.877314
     62          1           0      -13.282661   -3.067051    0.991289
     63          1           0      -11.682730   -3.093009    0.519938
     64          1           0      -12.714698   -2.503932   -0.669297
     65          1           0        8.951261   -0.107766    0.978360
     66          1           0      -10.122729   -2.153235   -0.592986
     67          1           0       10.218530    0.709727   -2.566288
     68          1           0       11.811930    1.133105   -2.685629
     69          1           0       11.353490   -0.434268   -3.293664
     70          1           0      -11.401108    2.247973   -2.346462
     71          1           0       -9.773904    1.033880   -2.172416
     72          1           0      -10.031672    2.360704   -1.185482
     73          1           0       14.767547   -2.943951    0.521913
     74          1           0      -15.178429    1.685849    1.617465
     75          1           0       10.095172    2.212599   -0.631751
     76          1           0       -8.746597    0.309768   -0.110515
     77          1           0        8.644666    4.259397   -0.451161
     78          1           0        7.201222    4.262984    0.609598
     79          1           0        8.709031    3.808170    1.341333
     80          1           0       -7.927297   -3.518635    0.058194
     81          1           0       -8.240999   -3.228357   -1.742315
     82          1           0       -6.715799   -3.182732   -1.313346
     83          1           0        6.864735    0.707142   -0.367035
     84          1           0       -6.512169    0.341227   -0.296631
     85          1           0        5.411510    3.339769    0.257565
     86          1           0       -4.764906   -2.168138   -1.166073
     87          1           0        4.659042    0.438678   -0.464436
     88          1           0       -3.983161    0.512381    0.364767
     89          1           0        3.384529    3.833577    1.297835
     90          1           0        1.713477    3.334842    0.822330
     91          1           0        3.043524    3.857745   -0.637038
     92          1           0       -2.560202   -3.106329   -0.453276
     93          1           0       -3.108761   -2.277429   -1.865742
     94          1           0       -1.190653   -2.116467   -1.227364
     95          1           0        2.383659   -0.013469   -0.477016
     96          1           0       -1.798675    1.245355    0.071109
     97          1           0        0.255892    2.008455    0.222972
     98          1           0        0.269702   -0.903708   -0.683182
 ---------------------------------------------------------------------

 SCF Done:  E(RCAM-B3LYP) =  -1706.94136432     A.U. after   14 cycles

 Excitation energies and oscillator strengths:

 Excited State   1:      Singlet-A      2.8639 eV  432.92 nm  f=3.4093  <S**2>=0.000
     155 ->158         0.14576
     156 ->157         0.68717
 This state for optimization and/or second-order correction.
 Total Energy, E(TD-HF/TD-DFT) =  -1706.83611700
 Copying the excited state density for this state as the 1-particle RhoCI density.

 The electronic state is 1-A.
 Alpha  occ. eigenvalues --  -19.20787 -19.19773 -10.31604 -10.29772 -10.28837
 Alpha  occ. eigenvalues --  -10.28210 -10.28006 -10.27439 -10.27346 -10.27158
 Alpha  occ. eigenvalues --  -10.27102 -10.27101 -10.27087 -10.27024 -10.27010
 Alpha  occ. eigenvalues --  -10.27000 -10.26919 -10.26807 -10.26697 -10.26576
 Alpha  occ. eigenvalues --  -10.26276 -10.26243 -10.26234 -10.26111 -10.26004
 Alpha  occ. eigenvalues --  -10.25939 -10.25937 -10.25891 -10.25855 -10.25834
 Alpha  occ. eigenvalues --  -10.25790 -10.25500 -10.25447 -10.25289 -10.25193
 Alpha  occ. eigenvalues --  -10.25151 -10.25085 -10.24777 -10.23999 -10.23929
 Alpha  occ. eigenvalues --  -10.23582 -10.23066  -1.10176  -1.09768  -0.95096
 Alpha  occ. eigenvalues --   -0.93124  -0.92471  -0.91994  -0.90783  -0.90310
 Alpha  occ. eigenvalues --   -0.88087  -0.87799  -0.86410  -0.86122  -0.85466
 Alpha  occ. eigenvalues --   -0.83484  -0.82267  -0.80777  -0.80371  -0.78238
 Alpha  occ. eigenvalues --   -0.77322  -0.77081  -0.76729  -0.76423  -0.76337
 Alpha  occ. eigenvalues --   -0.75430  -0.74761  -0.74534  -0.73626  -0.70371
 Alpha  occ. eigenvalues --   -0.69304  -0.67777  -0.66088  -0.65000  -0.64599
 Alpha  occ. eigenvalues --   -0.63472  -0.63133  -0.62303  -0.60990  -0.60486
 Alpha  occ. eigenvalues --   -0.59329  -0.59069  -0.58766  -0.58026  -0.56843
 Alpha  occ. eigenvalues --   -0.56259  -0.55567  -0.55309  -0.54711  -0.54357
 Alpha  occ. eigenvalues --   -0.54064  -0.52955  -0.52534  -0.51754  -0.50993
 Alpha  occ. eigenvalues --   -0.50788  -0.50388  -0.50036  -0.49997  -0.49816
 Alpha  occ. eigenvalues --   -0.49263  -0.49096  -0.48833  -0.48504  -0.48016
 Alpha  occ. eigenvalues --   -0.47564  -0.47206  -0.46678  -0.46310  -0.46248
 Alpha  occ. eigenvalues --   -0.45945  -0.45909  -0.45525  -0.45431  -0.45021
 Alpha  occ. eigenvalues --   -0.44936  -0.44016  -0.43821  -0.43399  -0.43340
 Alpha  occ. eigenvalues --   -0.43201  -0.42924  -0.42817  -0.42549  -0.42437
 Alpha  occ. eigenvalues --   -0.41783  -0.41671  -0.41214  -0.41137  -0.40831
 Alpha  occ. eigenvalues --   -0.40328  -0.40079  -0.39970  -0.39339  -0.39296
 Alpha  occ. eigenvalues --   -0.39124  -0.38817  -0.38428  -0.38254  -0.37831
 Alpha  occ. eigenvalues --   -0.37355  -0.36932  -0.36894  -0.36108  -0.35984
 Alpha  occ. eigenvalues --   -0.35965  -0.35295  -0.33987  -0.32446  -0.32208
 Alpha  occ. eigenvalues --   -0.31577  -0.29750  -0.28394  -0.26416  -0.24801
 Alpha  occ. eigenvalues --   -0.21110
 Alpha virt. eigenvalues --   -0.04092   0.00497   0.02953   0.05739   0.07480
 Alpha virt. eigenvalues --    0.09762   0.11088   0.11133   0.11796   0.12175
 Alpha virt. eigenvalues --    0.12518   0.12715   0.13168   0.13217   0.13999

 Mulliken charges:
               1
     1  O   -0.549257
     2  O   -0.544179
     3  C   -0.033122
     4  C   -0.020035
     5  C   -0.198201
     6  C   -0.207983
     7  C    0.161450
     8  C    0.158733
     9  C    0.073497
    10  C    0.049427
    11  C   -0.224389
    12  C   -0.215808
    13  C    0.062459
    14  C    0.017074
    15  C   -0.288751
    16  C   -0.283116
    17  C   -0.309704
    18  C   -0.315255
    19  C   -0.096600
    20  C   -0.109226
    21  C   -0.365399
    22  C   -0.361272
    23  C   -0.115658
    24  C   -0.051742
    25  C    0.072348
    26  C    0.134607
    27  C   -0.361445
    28  C   -0.371587
    29  C   -0.097515
    30  C   -0.146390
    31  C   -0.105277
    32  C   -0.073557
    33  C   -0.070687
    34  C   -0.098548
    35  C    0.091047
    36  C    0.138106
    37  C   -0.363098
    38  C   -0.382140
    39  C   -0.098089
    40  C   -0.133608
    41  C   -0.098811
    42  C   -0.062917
    43  H    0.102883
    44  H    0.084987
    45  H    0.093364
    46  H    0.104269
    47  H    0.089811
    48  H    0.096652
    49  H    0.099828
    50  H    0.100560
    51  H    0.137399
    52  H    0.118552
    53  H    0.107172
    54  H    0.042349
    55  H    0.111803
    56  H    0.099198
    57  H    0.092513
    58  H    0.117721
    59  H    0.089603
    60  H    0.113750
    61  H    0.098041
    62  H    0.097453
    63  H    0.100482
    64  H    0.110489
    65  H    0.065772
    66  H    0.084068
    67  H    0.131124
    68  H    0.120432
    69  H    0.097594
    70  H    0.077876
    71  H    0.118295
    72  H    0.112092
    73  H    0.297568
    74  H    0.287046
    75  H    0.079146
    76  H    0.069474
    77  H    0.122360
    78  H    0.112942
    79  H    0.110577
    80  H    0.067142
    81  H    0.107422
    82  H    0.126066
    83  H    0.061412
    84  H    0.076928
    85  H    0.067896
    86  H    0.046692
    87  H    0.087137
    88  H    0.084133
    89  H    0.112935
    90  H    0.102648
    91  H    0.138825
    92  H    0.113844
    93  H    0.108679
    94  H    0.090326
    95  H    0.069255
    96  H    0.073163
    97  H    0.081850
    98  H    0.083026
 Sum of Mulliken charges =  -0.00000

 Dipole moment (field-independent basis, Debye):
    X=              1.6951    Y=             -1.0878    Z=              1.9568  Tot=              2.8082
 Quadrupole moment (field-independent basis, Debye-Ang):
   XX=           -299.9975   YY=           -245.7236   ZZ=           -257.7541
   XY=             13.7648   XZ=             -5.1489   YZ=              0.2002

 Normal termination of Gaussian 16 at Sat Jul  6 12:40:35 2019.
