 Gaussian 16, Revision A.03,
 Gaussian 16:  ES64L-G16RevA.03 25-Dec-2016

 -------------------------------------
 # td=(NStates=1) CAM-B3LYP/6-31G(d,p)
 -------------------------------------

 --
 TD
 --
 Symbolic Z-matrix:
 Charge =  0 Multiplicity = 1

                         Standard orientation:
 ---------------------------------------------------------------------
 Center     Atomic      Atomic             Coordinates (Angstroms)
 Number     Number       Type             X           Y           Z
 ---------------------------------------------------------------------
      1          8           0       14.894592   -1.955692   -0.439812
      2          8           0      -14.839481    1.975585    0.743391
      3          6           0       11.581667   -0.995777    1.243955
      4          6           0      -12.352514   -0.903603    0.852704
      5          6           0       13.097389   -1.313846    1.149100
      6          6           0      -13.762499   -0.205853    0.848056
      7          6           0       13.466131   -1.809139   -0.257818
      8          6           0      -13.617243    1.298970    0.733708
      9          6           0       11.021640   -0.279206   -0.016359
     10          6           0      -11.381875   -0.285717   -0.105092
     11          6           0       13.174473   -0.720062   -1.317930
     12          6           0      -12.918119    1.625759   -0.543021
     13          6           0       11.763777   -0.269849   -1.113806
     14          6           0      -11.653450    0.951733   -0.727803
     15          6           0       11.393754   -0.333495    2.499445
     16          6           0       10.840211   -2.474641    1.353938
     17          6           0      -11.750323   -0.656873    2.289160
     18          6           0      -12.563077   -2.342198    0.621064
     19          6           0        9.733099    0.229111    0.213811
     20          6           0      -10.206000   -1.035867   -0.406711
     21          6           0       11.231087    0.507590   -2.354041
     22          6           0      -10.846936    1.476184   -1.806526
     23          6           0        9.379348    1.617519   -0.070087
     24          6           0       -8.902064   -0.559483   -0.276720
     25          6           0        8.000487    2.192025    0.162334
     26          6           0       -7.716875   -1.311157   -0.531628
     27          6           0        8.091542    3.585819    0.375069
     28          6           0       -7.709244   -2.744850   -1.203631
     29          6           0        6.914539    1.399901    0.052844
     30          6           0       -6.474848   -0.654823   -0.352538
     31          6           0        5.582284    1.799684    0.136480
     32          6           0       -5.094366   -1.178230   -0.622429
     33          6           0        4.391232    1.214717   -0.064320
     34          6           0       -4.033944   -0.426755   -0.360958
     35          6           0        3.006420    1.695326    0.062738
     36          6           0       -2.688755   -0.841168   -0.438108
     37          6           0        2.858353    3.140521    0.455964
     38          6           0       -2.425614   -2.320737   -0.760100
     39          6           0        2.085846    0.821063   -0.125886
     40          6           0       -1.689258    0.092151   -0.184375
     41          6           0        0.658398    0.987619   -0.095555
     42          6           0       -0.227547    0.013831   -0.356816
     43          1           0       13.744665   -0.562798    1.183629
     44          1           0       13.561351   -2.278079    1.741620
     45          1           0      -14.354126   -0.670277    1.717059
     46          1           0      -14.546965   -0.592554   -0.012867
     47          1           0       13.004513   -2.901801   -0.638386
     48          1           0      -12.710007    1.736883    1.526525
     49          1           0       14.033067    0.007329   -1.226548
     50          1           0       13.237342   -1.206363   -2.325734
     51          1           0      -13.655038    1.458458   -1.372721
     52          1           0      -12.832644    2.658658   -0.617178
     53          1           0       11.790482   -0.664867    3.375564
     54          1           0       10.254854   -0.208228    2.826835
     55          1           0       11.930765    0.721354    2.395142
     56          1           0       10.928200   -3.149191    0.281490
     57          1           0       11.491538   -3.069959    2.003726
     58          1           0        9.847729   -2.484786    1.566217
     59          1           0      -11.551664    0.412186    2.620713
     60          1           0      -10.843527   -1.137257    2.196681
     61          1           0      -12.340240   -1.355700    2.968112
     62          1           0      -13.376062   -2.637113    1.141015
     63          1           0      -11.788464   -3.144767    0.837836
     64          1           0      -12.943289   -2.395431   -0.556179
     65          1           0        9.040940   -0.198674    0.886371
     66          1           0      -10.444132   -2.052310   -0.812664
     67          1           0       10.154044    0.628014   -2.315237
     68          1           0       11.557717    1.578744   -2.359231
     69          1           0       11.418476   -0.025680   -3.257113
     70          1           0      -11.589383    1.650945   -2.681579
     71          1           0      -10.052828    0.809005   -2.026498
     72          1           0      -10.417860    2.503252   -1.435566
     73          1           0       15.069037   -2.656054    0.251719
     74          1           0      -15.366617    1.337747    1.477362
     75          1           0       10.086089    2.320639   -0.477340
     76          1           0       -9.031796    0.408650    0.176582
     77          1           0        8.924863    3.946147   -0.120659
     78          1           0        7.107423    4.056311   -0.023888
     79          1           0        8.368362    3.804964    1.470021
     80          1           0       -8.552325   -3.243726   -0.447517
     81          1           0       -8.090534   -2.664105   -2.250410
     82          1           0       -6.656332   -3.201935   -0.983975
     83          1           0        6.911221    0.310169   -0.256552
     84          1           0       -6.462064    0.530014   -0.258668
     85          1           0        5.547882    2.878763    0.693656
     86          1           0       -5.000484   -2.016380   -1.150381
     87          1           0        4.272813    0.108926   -0.430842
     88          1           0       -4.224417    0.472634    0.039931
     89          1           0        3.381082    3.156670    1.343413
     90          1           0        1.725518    3.441428    0.697636
     91          1           0        3.308375    3.762572   -0.114062
     92          1           0       -2.713056   -2.961506   -0.005068
     93          1           0       -2.708149   -2.550745   -1.844348
     94          1           0       -1.259584   -2.610751   -0.631865
     95          1           0        2.212705   -0.233375   -0.465466
     96          1           0       -2.013890    0.954504   -0.041073
     97          1           0        0.309830    2.028232    0.272863
     98          1           0        0.320966   -0.885084   -0.729403
 ---------------------------------------------------------------------

 SCF Done:  E(RCAM-B3LYP) =  -1706.91252384     A.U. after   14 cycles

 Excitation energies and oscillator strengths:

 Excited State   1:      Singlet-A      2.7822 eV  445.63 nm  f=3.8053  <S**2>=0.000
     155 ->158        -0.22127
     156 ->157         0.65674
 This state for optimization and/or second-order correction.
 Total Energy, E(TD-HF/TD-DFT) =  -1706.81027967
 Copying the excited state density for this state as the 1-particle RhoCI density.

 The electronic state is 1-A.
 Alpha  occ. eigenvalues --  -19.23149 -19.21331 -10.31522 -10.31097 -10.28592
 Alpha  occ. eigenvalues --  -10.28260 -10.28143 -10.27564 -10.27543 -10.27465
 Alpha  occ. eigenvalues --  -10.27400 -10.27372 -10.27211 -10.26938 -10.26874
 Alpha  occ. eigenvalues --  -10.26788 -10.26744 -10.26618 -10.26558 -10.26485
 Alpha  occ. eigenvalues --  -10.26262 -10.26196 -10.26036 -10.26017 -10.25984
 Alpha  occ. eigenvalues --  -10.25972 -10.25910 -10.25812 -10.25766 -10.25631
 Alpha  occ. eigenvalues --  -10.25497 -10.25492 -10.25483 -10.25388 -10.25256
 Alpha  occ. eigenvalues --  -10.25135 -10.25018 -10.24648 -10.24642 -10.24587
 Alpha  occ. eigenvalues --  -10.23905 -10.23786  -1.09304  -1.08626  -0.94302
 Alpha  occ. eigenvalues --   -0.93923  -0.92737  -0.91930  -0.91348  -0.89307
 Alpha  occ. eigenvalues --   -0.88336  -0.87448  -0.86960  -0.85431  -0.84810
 Alpha  occ. eigenvalues --   -0.83805  -0.82362  -0.79913  -0.79620  -0.79040
 Alpha  occ. eigenvalues --   -0.77416  -0.76561  -0.76259  -0.75767  -0.75731
 Alpha  occ. eigenvalues --   -0.75690  -0.75352  -0.75100  -0.73938  -0.70326
 Alpha  occ. eigenvalues --   -0.68863  -0.66905  -0.65297  -0.64546  -0.63815
 Alpha  occ. eigenvalues --   -0.63589  -0.63222  -0.62176  -0.61607  -0.60267
 Alpha  occ. eigenvalues --   -0.58948  -0.58803  -0.58427  -0.57173  -0.56155
 Alpha  occ. eigenvalues --   -0.55459  -0.55265  -0.54868  -0.53999  -0.53439
 Alpha  occ. eigenvalues --   -0.52689  -0.52381  -0.52059  -0.51832  -0.50850
 Alpha  occ. eigenvalues --   -0.50645  -0.50481  -0.50307  -0.50049  -0.49902
 Alpha  occ. eigenvalues --   -0.49441  -0.49032  -0.48843  -0.48555  -0.48171
 Alpha  occ. eigenvalues --   -0.47861  -0.47736  -0.47648  -0.46629  -0.46489
 Alpha  occ. eigenvalues --   -0.46310  -0.46246  -0.45791  -0.45486  -0.45123
 Alpha  occ. eigenvalues --   -0.44792  -0.44402  -0.44217  -0.44000  -0.43547
 Alpha  occ. eigenvalues --   -0.43289  -0.43072  -0.42945  -0.42244  -0.42039
 Alpha  occ. eigenvalues --   -0.41864  -0.41090  -0.41013  -0.40894  -0.40748
 Alpha  occ. eigenvalues --   -0.40599  -0.40530  -0.40164  -0.39900  -0.39616
 Alpha  occ. eigenvalues --   -0.39539  -0.38936  -0.38352  -0.38138  -0.37423
 Alpha  occ. eigenvalues --   -0.37254  -0.37174  -0.37013  -0.36206  -0.35919
 Alpha  occ. eigenvalues --   -0.35241  -0.34871  -0.33228  -0.31992  -0.31734
 Alpha  occ. eigenvalues --   -0.31537  -0.29587  -0.28032  -0.26026  -0.23451
 Alpha  occ. eigenvalues --   -0.21078
 Alpha virt. eigenvalues --   -0.04217  -0.01371   0.02212   0.05450   0.07340
 Alpha virt. eigenvalues --    0.09260   0.09641   0.09998   0.11377   0.11795
 Alpha virt. eigenvalues --    0.11931   0.12434   0.12731   0.13037   0.13416

 Mulliken charges:
               1
     1  O   -0.556129
     2  O   -0.556127
     3  C   -0.020298
     4  C   -0.008274
     5  C   -0.164108
     6  C   -0.206067
     7  C    0.125943
     8  C    0.201761
     9  C    0.128976
    10  C    0.040965
    11  C   -0.208975
    12  C   -0.213292
    13  C    0.020862
    14  C    0.073865
    15  C   -0.282563
    16  C   -0.302997
    17  C   -0.293187
    18  C   -0.311650
    19  C   -0.130645
    20  C   -0.160331
    21  C   -0.367562
    22  C   -0.349490
    23  C   -0.125892
    24  C   -0.078574
    25  C    0.093926
    26  C    0.058581
    27  C   -0.374961
    28  C   -0.341170
    29  C   -0.087867
    30  C   -0.136548
    31  C   -0.112322
    32  C   -0.076357
    33  C   -0.120595
    34  C   -0.084887
    35  C    0.141157
    36  C    0.102861
    37  C   -0.352629
    38  C   -0.375923
    39  C   -0.149851
    40  C   -0.099458
    41  C   -0.059280
    42  C   -0.105867
    43  H    0.118712
    44  H    0.058098
    45  H    0.077471
    46  H    0.075376
    47  H    0.058661
    48  H    0.033517
    49  H    0.126479
    50  H    0.111388
    51  H    0.106712
    52  H    0.115417
    53  H    0.120173
    54  H    0.076990
    55  H    0.081697
    56  H    0.066022
    57  H    0.105312
    58  H    0.114637
    59  H    0.110457
    60  H    0.117273
    61  H    0.083132
    62  H    0.110921
    63  H    0.104331
    64  H    0.081268
    65  H    0.101124
    66  H    0.093690
    67  H    0.117886
    68  H    0.107593
    69  H    0.102740
    70  H    0.100597
    71  H    0.121714
    72  H    0.096186
    73  H    0.295544
    74  H    0.311323
    75  H    0.092296
    76  H    0.096224
    77  H    0.125700
    78  H    0.108399
    79  H    0.124465
    80  H    0.093552
    81  H    0.137826
    82  H    0.117008
    83  H    0.085666
    84  H    0.079369
    85  H    0.052619
    86  H    0.078086
    87  H    0.069199
    88  H    0.074654
    89  H    0.134916
    90  H    0.091657
    91  H    0.134463
    92  H    0.139912
    93  H    0.121334
    94  H    0.084879
    95  H    0.077068
    96  H    0.059753
    97  H    0.066116
    98  H    0.077375
 Sum of Mulliken charges =  -0.00000

 Dipole moment (field-independent basis, Debye):
    X=             -0.2104    Y=             -1.5021    Z=              1.7004  Tot=              2.2786
 Quadrupole moment (field-independent basis, Debye-Ang):
   XX=           -271.6823   YY=           -248.3527   ZZ=           -261.6364
   XY=             24.3881   XZ=             11.1883   YZ=             -0.2486

 Normal termination of Gaussian 16 at Sat Jun 29 11:33:51 2019.
