 Gaussian 16, Revision A.03,
 Gaussian 16:  ES64L-G16RevA.03 25-Dec-2016

 -------------------------------------
 # td=(NStates=1) CAM-B3LYP/6-31G(d,p)
 -------------------------------------

 --
 TD
 --
 Symbolic Z-matrix:
 Charge =  0 Multiplicity = 1

                         Standard orientation:
 ---------------------------------------------------------------------
 Center     Atomic      Atomic             Coordinates (Angstroms)
 Number     Number       Type             X           Y           Z
 ---------------------------------------------------------------------
      1          8           0       14.701275   -2.239412   -0.334773
      2          8           0      -14.654150    2.074070    0.639106
      3          6           0       11.365941   -1.033160    1.200157
      4          6           0      -12.393023   -0.926507    0.758271
      5          6           0       12.833472   -1.422326    1.113196
      6          6           0      -13.630851   -0.113668    0.759771
      7          6           0       13.350350   -1.993584   -0.231129
      8          6           0      -13.411722    1.347968    0.738928
      9          6           0       10.936144   -0.331597    0.001432
     10          6           0      -11.302941   -0.269656   -0.146185
     11          6           0       12.956925   -0.932328   -1.232717
     12          6           0      -12.716742    1.737719   -0.509925
     13          6           0       11.563573   -0.253580   -1.186867
     14          6           0      -11.481392    0.941645   -0.729113
     15          6           0       11.212121   -0.212405    2.559874
     16          6           0       10.457026   -2.269944    1.339598
     17          6           0      -11.796602   -0.920817    2.140536
     18          6           0      -12.627410   -2.458725    0.380768
     19          6           0        9.721950    0.474042    0.190342
     20          6           0      -10.090761   -1.099391   -0.465916
     21          6           0       11.017165    0.440559   -2.375861
     22          6           0      -10.528499    1.615796   -1.702371
     23          6           0        9.402286    1.693218   -0.208632
     24          6           0       -8.884788   -0.641954   -0.246240
     25          6           0        8.045678    2.282519   -0.040919
     26          6           0       -7.599856   -1.297095   -0.439302
     27          6           0        8.043164    3.746781    0.207901
     28          6           0       -7.683724   -2.646836   -1.065992
     29          6           0        6.850663    1.586632   -0.102174
     30          6           0       -6.404607   -0.691535   -0.160295
     31          6           0        5.542123    1.947298    0.175447
     32          6           0       -5.078105   -1.116399   -0.406605
     33          6           0        4.481604    1.241399   -0.101220
     34          6           0       -3.893343   -0.435041   -0.131361
     35          6           0        3.131541    1.548289    0.233751
     36          6           0       -2.632632   -0.808841   -0.483253
     37          6           0        2.898693    2.972197    0.687478
     38          6           0       -2.344111   -2.232134   -0.906743
     39          6           0        2.131273    0.698313   -0.324409
     40          6           0       -1.572572    0.057834   -0.254638
     41          6           0        0.734531    0.918391   -0.050537
     42          6           0       -0.134978   -0.084243   -0.390030
     43          1           0       13.567100   -0.629679    1.312212
     44          1           0       13.153833   -2.266726    1.814024
     45          1           0      -14.290547   -0.305544    1.438635
     46          1           0      -14.483381   -0.254709   -0.106283
     47          1           0       12.737424   -3.058409   -0.485437
     48          1           0      -12.951657    1.563388    1.697073
     49          1           0       13.619979    0.045414   -1.120400
     50          1           0       13.283509   -1.287995   -2.167329
     51          1           0      -13.361285    1.641645   -1.185988
     52          1           0      -12.500641    2.730048   -0.364785
     53          1           0       11.459493   -1.023921    3.358739
     54          1           0       10.213624    0.138776    2.828668
     55          1           0       11.705466    0.663529    2.897440
     56          1           0       10.576599   -2.969722    0.544404
     57          1           0       10.528121   -2.837385    2.266887
     58          1           0        9.265172   -2.007799    1.160012
     59          1           0      -11.669508    0.111954    2.467725
     60          1           0      -10.894659   -1.520641    2.220862
     61          1           0      -12.525418   -1.174096    2.887981
     62          1           0      -13.481119   -2.815425    0.906669
     63          1           0      -11.815876   -3.054722    0.808728
     64          1           0      -12.623369   -2.654590   -0.668311
     65          1           0        9.056083   -0.078507    0.814286
     66          1           0      -10.266634   -2.203866   -0.864730
     67          1           0        9.958794    0.679304   -2.079722
     68          1           0       11.630126    1.265384   -2.734703
     69          1           0       10.862156   -0.336145   -3.156228
     70          1           0      -11.076233    1.997006   -2.496144
     71          1           0       -9.573408    1.011037   -1.836852
     72          1           0      -10.066480    2.589316   -1.027592
     73          1           0       14.862741   -2.803758    0.404358
     74          1           0      -15.315006    1.511269    1.254493
     75          1           0       10.191237    2.426368   -0.542228
     76          1           0       -8.649993    0.395758    0.062392
     77          1           0        8.532959    4.328158   -0.573357
     78          1           0        7.143002    4.071961    0.204731
     79          1           0        8.572075    4.134235    1.327282
     80          1           0       -7.996525   -3.413487   -0.186345
     81          1           0       -8.448096   -2.692074   -1.872841
     82          1           0       -6.614058   -3.184524   -1.254846
     83          1           0        6.838675    0.675491   -0.269037
     84          1           0       -6.425583    0.277234    0.308472
     85          1           0        5.580125    2.920144    0.674354
     86          1           0       -4.876310   -2.118046   -0.966838
     87          1           0        4.569191    0.294203   -0.376964
     88          1           0       -4.274421    0.530870    0.581440
     89          1           0        3.297002    2.940425    1.916344
     90          1           0        1.780093    3.298433    0.471118
     91          1           0        3.755742    3.786999    0.028008
     92          1           0       -2.686178   -2.994408   -0.221581
     93          1           0       -2.812658   -2.280171   -1.982685
     94          1           0       -1.434064   -2.445332   -0.965422
     95          1           0        2.376378   -0.383983   -0.670948
     96          1           0       -1.718848    0.944144    0.273215
     97          1           0        0.292176    1.722863    0.445556
     98          1           0        0.240685   -0.929966   -1.203249
 ---------------------------------------------------------------------

 SCF Done:  E(RCAM-B3LYP) =  -1706.89161998     A.U. after   14 cycles

 Excitation energies and oscillator strengths:

 Excited State   1:      Singlet-A      2.4467 eV  506.74 nm  f=3.7096  <S**2>=0.000
     155 ->158         0.15516
     156 ->157         0.68808
 This state for optimization and/or second-order correction.
 Total Energy, E(TD-HF/TD-DFT) =  -1706.80170577
 Copying the excited state density for this state as the 1-particle RhoCI density.

 The electronic state is 1-A.
 Alpha  occ. eigenvalues --  -19.22526 -19.21726 -10.31826 -10.30256 -10.29087
 Alpha  occ. eigenvalues --  -10.28605 -10.27872 -10.27701 -10.27634 -10.27624
 Alpha  occ. eigenvalues --  -10.27394 -10.27304 -10.27290 -10.27242 -10.27232
 Alpha  occ. eigenvalues --  -10.26881 -10.26768 -10.26702 -10.26605 -10.26040
 Alpha  occ. eigenvalues --  -10.26023 -10.25994 -10.25900 -10.25888 -10.25846
 Alpha  occ. eigenvalues --  -10.25823 -10.25778 -10.25683 -10.25218 -10.25172
 Alpha  occ. eigenvalues --  -10.25130 -10.24896 -10.24769 -10.24758 -10.24733
 Alpha  occ. eigenvalues --  -10.24730 -10.24571 -10.24335 -10.24094 -10.23889
 Alpha  occ. eigenvalues --  -10.23344 -10.21924  -1.12644  -1.07895  -0.94414
 Alpha  occ. eigenvalues --   -0.94032  -0.92560  -0.92057  -0.90836  -0.89926
 Alpha  occ. eigenvalues --   -0.87942  -0.87682  -0.86824  -0.85933  -0.85174
 Alpha  occ. eigenvalues --   -0.83391  -0.82462  -0.80432  -0.79959  -0.78435
 Alpha  occ. eigenvalues --   -0.77398  -0.76688  -0.76583  -0.76468  -0.75866
 Alpha  occ. eigenvalues --   -0.75584  -0.75345  -0.75162  -0.73272  -0.70688
 Alpha  occ. eigenvalues --   -0.69120  -0.67253  -0.66262  -0.65543  -0.64789
 Alpha  occ. eigenvalues --   -0.64502  -0.63412  -0.61883  -0.61327  -0.59913
 Alpha  occ. eigenvalues --   -0.59252  -0.58428  -0.58109  -0.57801  -0.56443
 Alpha  occ. eigenvalues --   -0.56171  -0.55223  -0.54948  -0.54728  -0.54350
 Alpha  occ. eigenvalues --   -0.53824  -0.52894  -0.52552  -0.52052  -0.51006
 Alpha  occ. eigenvalues --   -0.50566  -0.50360  -0.50281  -0.49808  -0.49568
 Alpha  occ. eigenvalues --   -0.49237  -0.48710  -0.48305  -0.48156  -0.47862
 Alpha  occ. eigenvalues --   -0.47475  -0.47135  -0.46875  -0.46278  -0.46191
 Alpha  occ. eigenvalues --   -0.46121  -0.45882  -0.45591  -0.45352  -0.45135
 Alpha  occ. eigenvalues --   -0.44558  -0.44482  -0.44227  -0.44081  -0.43816
 Alpha  occ. eigenvalues --   -0.43388  -0.42971  -0.42545  -0.42215  -0.42058
 Alpha  occ. eigenvalues --   -0.41958  -0.41507  -0.41345  -0.41267  -0.41060
 Alpha  occ. eigenvalues --   -0.40572  -0.40351  -0.39924  -0.39790  -0.39746
 Alpha  occ. eigenvalues --   -0.39678  -0.39090  -0.38671  -0.38241  -0.37500
 Alpha  occ. eigenvalues --   -0.37322  -0.36830  -0.36667  -0.36361  -0.35802
 Alpha  occ. eigenvalues --   -0.35675  -0.34548  -0.33304  -0.32484  -0.32179
 Alpha  occ. eigenvalues --   -0.32163  -0.29674  -0.27940  -0.26541  -0.23844
 Alpha  occ. eigenvalues --   -0.20124
 Alpha virt. eigenvalues --   -0.05264  -0.00571   0.03036   0.06162   0.07872
 Alpha virt. eigenvalues --    0.09004   0.10795   0.11202   0.11290   0.11619
 Alpha virt. eigenvalues --    0.12170   0.12477   0.12950   0.13361   0.13470

 Mulliken charges:
               1
     1  O   -0.519993
     2  O   -0.573180
     3  C   -0.006448
     4  C   -0.004740
     5  C   -0.195430
     6  C   -0.194698
     7  C    0.168500
     8  C    0.149173
     9  C    0.082778
    10  C    0.036567
    11  C   -0.221712
    12  C   -0.163370
    13  C    0.054904
    14  C    0.037794
    15  C   -0.309600
    16  C   -0.303614
    17  C   -0.300352
    18  C   -0.314984
    19  C   -0.107515
    20  C   -0.164805
    21  C   -0.370551
    22  C   -0.336416
    23  C   -0.121464
    24  C   -0.068371
    25  C    0.066228
    26  C    0.139562
    27  C   -0.344865
    28  C   -0.376040
    29  C   -0.075027
    30  C   -0.142602
    31  C   -0.068862
    32  C   -0.083615
    33  C   -0.089154
    34  C   -0.099314
    35  C    0.095039
    36  C    0.082558
    37  C   -0.323838
    38  C   -0.337947
    39  C   -0.135563
    40  C   -0.126045
    41  C   -0.066227
    42  C   -0.096419
    43  H    0.113074
    44  H    0.058564
    45  H    0.078118
    46  H    0.064160
    47  H    0.034460
    48  H    0.083960
    49  H    0.096912
    50  H    0.104651
    51  H    0.124627
    52  H    0.112874
    53  H    0.083697
    54  H    0.105573
    55  H    0.114276
    56  H    0.117244
    57  H    0.106897
    58  H    0.081795
    59  H    0.100031
    60  H    0.116247
    61  H    0.093785
    62  H    0.105390
    63  H    0.101189
    64  H    0.112663
    65  H    0.083824
    66  H    0.092174
    67  H    0.132963
    68  H    0.117263
    69  H    0.108147
    70  H    0.123389
    71  H    0.119197
    72  H    0.070901
    73  H    0.306474
    74  H    0.297394
    75  H    0.093395
    76  H    0.087339
    77  H    0.116056
    78  H    0.114494
    79  H    0.073159
    80  H    0.100442
    81  H    0.123042
    82  H    0.097679
    83  H    0.038026
    84  H    0.073313
    85  H    0.077307
    86  H    0.070632
    87  H    0.070171
    88  H    0.066257
    89  H    0.095611
    90  H    0.105402
    91  H    0.085258
    92  H    0.125200
    93  H    0.106050
    94  H    0.112736
    95  H    0.094657
    96  H    0.075011
    97  H    0.095903
    98  H    0.070602
 Sum of Mulliken charges =  -0.00000

 Dipole moment (field-independent basis, Debye):
    X=             -0.0325    Y=             -2.2715    Z=              2.0553  Tot=              3.0635
 Quadrupole moment (field-independent basis, Debye-Ang):
   XX=           -258.2765   YY=           -250.9717   ZZ=           -259.8770
   XY=             17.8263   XZ=              2.6177   YZ=             -0.1297

 Normal termination of Gaussian 16 at Sat Jul  6 05:19:50 2019.
