 Gaussian 16, Revision A.03,
 Gaussian 16:  ES64L-G16RevA.03 25-Dec-2016

 -------------------------------------
 # td=(NStates=1) CAM-B3LYP/6-31G(d,p)
 -------------------------------------

 --
 TD
 --
 Symbolic Z-matrix:
 Charge =  0 Multiplicity = 1

                         Standard orientation:
 ---------------------------------------------------------------------
 Center     Atomic      Atomic             Coordinates (Angstroms)
 Number     Number       Type             X           Y           Z
 ---------------------------------------------------------------------
      1          8           0       14.679138   -2.313664   -0.594842
      2          8           0      -14.933484    1.731808    0.615975
      3          6           0       11.531722   -1.206227    1.154578
      4          6           0      -12.234735   -0.904117    0.889195
      5          6           0       12.974300   -1.492559    0.965369
      6          6           0      -13.653266   -0.300535    0.783396
      7          6           0       13.300220   -1.991617   -0.426545
      8          6           0      -13.555422    1.194985    0.706374
      9          6           0       10.985304   -0.487828   -0.138479
     10          6           0      -11.326784   -0.377125   -0.235196
     11          6           0       13.083958   -0.800412   -1.408634
     12          6           0      -12.898376    1.500374   -0.686245
     13          6           0       11.657828   -0.306054   -1.214964
     14          6           0      -11.638143    0.696026   -0.952276
     15          6           0       11.382683   -0.444608    2.574949
     16          6           0       10.679489   -2.533132    1.297650
     17          6           0      -11.678781   -0.835027    2.387578
     18          6           0      -12.453892   -2.422954    0.640058
     19          6           0        9.596399    0.154235    0.115129
     20          6           0      -10.090260   -1.076958   -0.344677
     21          6           0       11.178208    0.598586   -2.397228
     22          6           0      -10.831570    1.330597   -2.033054
     23          6           0        9.307412    1.460869    0.019682
     24          6           0       -8.881607   -0.502811   -0.296900
     25          6           0        8.047477    2.149163    0.246394
     26          6           0       -7.605126   -1.240156   -0.536562
     27          6           0        8.270481    3.659088    0.772583
     28          6           0       -7.670735   -2.722303   -0.784383
     29          6           0        6.900815    1.593157    0.111689
     30          6           0       -6.371492   -0.517269   -0.353688
     31          6           0        5.574857    2.139663    0.282316
     32          6           0       -5.093533   -1.066921   -0.581308
     33          6           0        4.407193    1.411110    0.052743
     34          6           0       -4.103140   -0.263363   -0.285050
     35          6           0        2.990092    1.830625    0.157047
     36          6           0       -2.647959   -0.652417   -0.501893
     37          6           0        2.845172    3.264408    0.554990
     38          6           0       -2.297530   -2.042370   -0.808289
     39          6           0        2.067340    0.978769    0.028792
     40          6           0       -1.738191    0.364826   -0.315603
     41          6           0        0.633050    1.204086   -0.072803
     42          6           0       -0.234595    0.148950   -0.336287
     43          1           0       13.440196   -0.523156    1.198254
     44          1           0       13.280613   -2.365602    1.687413
     45          1           0      -14.062929   -0.426463    1.750731
     46          1           0      -14.171263   -1.034889    0.007714
     47          1           0       12.733201   -2.968997   -0.623986
     48          1           0      -12.958608    1.602221    1.651183
     49          1           0       13.903480   -0.158194   -1.198948
     50          1           0       13.248861   -1.237223   -2.398826
     51          1           0      -13.680091    1.393692   -1.462189
     52          1           0      -12.462623    2.532851   -0.575891
     53          1           0       11.839779   -1.270446    3.160452
     54          1           0       10.520146   -0.152200    2.847824
     55          1           0       12.059094    0.439907    2.630743
     56          1           0       10.694729   -3.117813    0.310674
     57          1           0       11.114215   -3.105851    2.224064
     58          1           0        9.521984   -2.380735    1.616302
     59          1           0      -11.124262    0.197886    2.593000
     60          1           0      -10.870756   -1.570609    2.257340
     61          1           0      -12.559670   -1.084229    3.010792
     62          1           0      -13.202776   -2.701048    1.302061
     63          1           0      -11.635678   -3.232782    0.892679
     64          1           0      -12.587111   -2.489829   -0.460872
     65          1           0        8.729984   -0.486993    0.361189
     66          1           0      -10.271792   -2.078199   -0.375069
     67          1           0       10.037214    0.776507   -2.488877
     68          1           0       11.836900    1.494089   -2.341447
     69          1           0       11.415702    0.144233   -3.347490
     70          1           0      -11.540079    1.590786   -2.925560
     71          1           0       -9.962651    0.767432   -2.573109
     72          1           0      -10.371514    2.287198   -1.588259
     73          1           0       15.086708   -2.804740    0.152358
     74          1           0      -15.167922    1.657690    1.400606
     75          1           0       10.104045    2.211040   -0.253600
     76          1           0       -8.578238    0.503459    0.028050
     77          1           0        9.122633    4.175350    0.235184
     78          1           0        7.275320    4.275471    0.712554
     79          1           0        8.498626    3.791347    1.759252
     80          1           0       -8.467842   -3.222780    0.007256
     81          1           0       -8.161800   -2.865186   -1.822501
     82          1           0       -6.866173   -3.352690   -0.816405
     83          1           0        6.905737    0.759588   -0.492322
     84          1           0       -6.386875    0.598948   -0.073044
     85          1           0        5.461944    3.099475    0.637990
     86          1           0       -4.865073   -2.003689   -0.739754
     87          1           0        4.747012    0.480683   -0.565368
     88          1           0       -4.326121    0.886210   -0.119196
     89          1           0        3.013994    3.469896    1.739700
     90          1           0        1.734930    3.579028    0.308114
     91          1           0        3.422835    3.864970   -0.257284
     92          1           0       -2.643043   -2.883116   -0.187170
     93          1           0       -2.554236   -2.143219   -1.916961
     94          1           0       -1.192527   -2.187990   -0.687763
     95          1           0        2.253716   -0.062954   -0.129645
     96          1           0       -2.131190    1.466525   -0.243609
     97          1           0        0.230026    2.200693    0.434117
     98          1           0        0.150796   -0.637231   -0.604189
 ---------------------------------------------------------------------

 SCF Done:  E(RCAM-B3LYP) =  -1706.96132287     A.U. after   13 cycles

 Excitation energies and oscillator strengths:

 Excited State   1:      Singlet-A      3.0840 eV  402.03 nm  f=3.5408  <S**2>=0.000
     155 ->158        -0.19546
     156 ->157         0.66679
 This state for optimization and/or second-order correction.
 Total Energy, E(TD-HF/TD-DFT) =  -1706.84798853
 Copying the excited state density for this state as the 1-particle RhoCI density.

 The electronic state is 1-A.
 Alpha  occ. eigenvalues --  -19.20392 -19.19649 -10.31713 -10.30573 -10.27913
 Alpha  occ. eigenvalues --  -10.27877 -10.27764 -10.27760 -10.27530 -10.27357
 Alpha  occ. eigenvalues --  -10.27060 -10.27033 -10.27000 -10.26837 -10.26807
 Alpha  occ. eigenvalues --  -10.26717 -10.26663 -10.26645 -10.26428 -10.26419
 Alpha  occ. eigenvalues --  -10.26263 -10.26128 -10.26077 -10.26066 -10.26028
 Alpha  occ. eigenvalues --  -10.25940 -10.25882 -10.25787 -10.25735 -10.25586
 Alpha  occ. eigenvalues --  -10.25516 -10.25465 -10.25294 -10.25059 -10.24938
 Alpha  occ. eigenvalues --  -10.24907 -10.24886 -10.24561 -10.24393 -10.24375
 Alpha  occ. eigenvalues --  -10.24186 -10.23990  -1.11561  -1.08196  -0.93828
 Alpha  occ. eigenvalues --   -0.93257  -0.92270  -0.91758  -0.90750  -0.89285
 Alpha  occ. eigenvalues --   -0.87389  -0.86756  -0.86551  -0.85462  -0.84317
 Alpha  occ. eigenvalues --   -0.83291  -0.81918  -0.79812  -0.79165  -0.77599
 Alpha  occ. eigenvalues --   -0.76492  -0.76012  -0.75765  -0.75484  -0.75262
 Alpha  occ. eigenvalues --   -0.75097  -0.74607  -0.74432  -0.73992  -0.70228
 Alpha  occ. eigenvalues --   -0.68715  -0.67326  -0.65957  -0.64938  -0.63950
 Alpha  occ. eigenvalues --   -0.63238  -0.62886  -0.62519  -0.61426  -0.60178
 Alpha  occ. eigenvalues --   -0.59273  -0.58524  -0.57921  -0.57370  -0.56260
 Alpha  occ. eigenvalues --   -0.55728  -0.54654  -0.54192  -0.54030  -0.53197
 Alpha  occ. eigenvalues --   -0.52455  -0.52190  -0.51808  -0.51263  -0.51079
 Alpha  occ. eigenvalues --   -0.50622  -0.50494  -0.49797  -0.49395  -0.49233
 Alpha  occ. eigenvalues --   -0.48950  -0.48583  -0.48171  -0.48050  -0.47884
 Alpha  occ. eigenvalues --   -0.47520  -0.46986  -0.46726  -0.46368  -0.45967
 Alpha  occ. eigenvalues --   -0.45794  -0.45577  -0.45322  -0.45313  -0.44817
 Alpha  occ. eigenvalues --   -0.44398  -0.44304  -0.43973  -0.43774  -0.43422
 Alpha  occ. eigenvalues --   -0.42715  -0.42456  -0.42395  -0.42172  -0.42031
 Alpha  occ. eigenvalues --   -0.41865  -0.41443  -0.41153  -0.41027  -0.40733
 Alpha  occ. eigenvalues --   -0.40464  -0.39816  -0.39562  -0.39380  -0.39282
 Alpha  occ. eigenvalues --   -0.39094  -0.38653  -0.38420  -0.38220  -0.37862
 Alpha  occ. eigenvalues --   -0.37459  -0.37039  -0.36785  -0.36302  -0.36120
 Alpha  occ. eigenvalues --   -0.34774  -0.33908  -0.33134  -0.32191  -0.32027
 Alpha  occ. eigenvalues --   -0.31731  -0.29835  -0.28997  -0.27204  -0.24172
 Alpha  occ. eigenvalues --   -0.21514
 Alpha virt. eigenvalues --   -0.03256  -0.00055   0.03337   0.06906   0.08498
 Alpha virt. eigenvalues --    0.09957   0.11093   0.11753   0.12021   0.12484
 Alpha virt. eigenvalues --    0.12748   0.12982   0.13276   0.13331   0.13628

 Mulliken charges:
               1
     1  O   -0.582349
     2  O   -0.518682
     3  C   -0.013441
     4  C   -0.052444
     5  C   -0.187683
     6  C   -0.154180
     7  C    0.178552
     8  C    0.103265
     9  C    0.056396
    10  C    0.068619
    11  C   -0.217958
    12  C   -0.205912
    13  C    0.035012
    14  C    0.043249
    15  C   -0.281439
    16  C   -0.294642
    17  C   -0.289434
    18  C   -0.322625
    19  C   -0.141724
    20  C   -0.128416
    21  C   -0.353326
    22  C   -0.352422
    23  C   -0.082521
    24  C   -0.073893
    25  C    0.101454
    26  C    0.090837
    27  C   -0.373844
    28  C   -0.361013
    29  C   -0.124959
    30  C   -0.156636
    31  C   -0.080729
    32  C   -0.018786
    33  C   -0.128348
    34  C   -0.112019
    35  C    0.122746
    36  C    0.103518
    37  C   -0.366760
    38  C   -0.385464
    39  C   -0.109928
    40  C   -0.140209
    41  C   -0.096597
    42  C   -0.056500
    43  H    0.105945
    44  H    0.061820
    45  H    0.070854
    46  H    0.102872
    47  H    0.077144
    48  H    0.088259
    49  H    0.128187
    50  H    0.112802
    51  H    0.130354
    52  H    0.100165
    53  H    0.096594
    54  H    0.114708
    55  H    0.092504
    56  H    0.105215
    57  H    0.083328
    58  H    0.089461
    59  H    0.088279
    60  H    0.116775
    61  H    0.105009
    62  H    0.110080
    63  H    0.081672
    64  H    0.110644
    65  H    0.090137
    66  H    0.087932
    67  H    0.112705
    68  H    0.113814
    69  H    0.105653
    70  H    0.096507
    71  H    0.111110
    72  H    0.108706
    73  H    0.300776
    74  H    0.274958
    75  H    0.076631
    76  H    0.084821
    77  H    0.107796
    78  H    0.095446
    79  H    0.136622
    80  H    0.093537
    81  H    0.111100
    82  H    0.117783
    83  H    0.080226
    84  H    0.081150
    85  H    0.074834
    86  H    0.078426
    87  H    0.068457
    88  H    0.073189
    89  H    0.120798
    90  H    0.094202
    91  H    0.119130
    92  H    0.126742
    93  H    0.128138
    94  H    0.110479
    95  H    0.081716
    96  H    0.086764
    97  H    0.079458
    98  H    0.058819
 Sum of Mulliken charges =  -0.00000

 Dipole moment (field-independent basis, Debye):
    X=              0.5727    Y=             -1.1822    Z=              2.1471  Tot=              2.5170
 Quadrupole moment (field-independent basis, Debye-Ang):
   XX=           -291.4019   YY=           -246.3626   ZZ=           -259.7178
   XY=             14.9151   XZ=             -0.7669   YZ=              2.7432

 Normal termination of Gaussian 16 at Fri Jun 28 03:32:53 2019.
