 Gaussian 16, Revision A.03,
 Gaussian 16:  ES64L-G16RevA.03 25-Dec-2016

 -------------------------------------
 # td=(NStates=1) CAM-B3LYP/6-31G(d,p)
 -------------------------------------

 --
 TD
 --
 Symbolic Z-matrix:
 Charge =  0 Multiplicity = 1

                         Standard orientation:
 ---------------------------------------------------------------------
 Center     Atomic      Atomic             Coordinates (Angstroms)
 Number     Number       Type             X           Y           Z
 ---------------------------------------------------------------------
      1          8           0      -14.649508   -2.289321    0.533519
      2          8           0       14.775404    2.196955   -0.485401
      3          6           0      -11.615753   -0.949904   -1.178740
      4          6           0       12.382037   -0.831102   -0.728984
      5          6           0      -13.047221   -1.346732   -0.932554
      6          6           0       13.714406   -0.094131   -0.571551
      7          6           0      -13.240733   -1.933953    0.378008
      8          6           0       13.519670    1.419765   -0.448547
      9          6           0      -10.981727   -0.166252    0.048626
     10          6           0       11.353249   -0.284587    0.274177
     11          6           0      -12.876617   -1.085525    1.584681
     12          6           0       12.759649    1.759420    0.818032
     13          6           0      -11.610460   -0.301070    1.301302
     14          6           0       11.532689    0.825695    0.989148
     15          6           0      -11.466837    0.015067   -2.363697
     16          6           0      -10.723182   -2.219779   -1.388899
     17          6           0       11.892914   -0.782735   -2.218077
     18          6           0       12.696593   -2.461269   -0.504626
     19          6           0       -9.694781    0.424864   -0.146150
     20          6           0       10.123542   -1.110757    0.401502
     21          6           0      -11.184970    0.299474    2.513084
     22          6           0       10.637413    1.235467    2.143325
     23          6           0       -9.415908    1.699912    0.210262
     24          6           0        8.867236   -0.561715    0.241095
     25          6           0       -8.018212    2.260222   -0.023587
     26          6           0        7.654743   -1.287640    0.408053
     27          6           0       -8.030724    3.774197   -0.383674
     28          6           0        7.687583   -2.789853    0.646497
     29          6           0       -6.931091    1.512170    0.163264
     30          6           0        6.544578   -0.621521    0.245974
     31          6           0       -5.556191    1.914626   -0.131300
     32          6           0        5.101448   -1.133486    0.286502
     33          6           0       -4.549535    1.144835   -0.118139
     34          6           0        3.991217   -0.387918    0.126495
     35          6           0       -3.173270    1.535604   -0.269840
     36          6           0        2.651935   -0.801023    0.159858
     37          6           0       -2.856126    2.943344   -0.731657
     38          6           0        2.456504   -2.265354    0.529577
     39          6           0       -2.139629    0.657758   -0.022001
     40          6           0        1.643493    0.078952   -0.162408
     41          6           0       -0.759707    0.886853   -0.256839
     42          6           0        0.137153   -0.130620   -0.056117
     43          1           0      -13.647459   -0.291734   -1.039339
     44          1           0      -13.258237   -2.085890   -1.715240
     45          1           0       14.232558   -0.524561   -1.349862
     46          1           0       14.088067   -0.400175    0.379381
     47          1           0      -12.747854   -2.852083    0.412132
     48          1           0       13.031242    1.775923   -1.387414
     49          1           0      -13.732637   -0.389163    1.715087
     50          1           0      -12.778367   -1.732701    2.333492
     51          1           0       13.565288    1.467435    1.623644
     52          1           0       12.403966    2.969683    0.977851
     53          1           0      -11.812883   -0.498405   -3.393717
     54          1           0      -10.422392    0.364229   -2.602111
     55          1           0      -12.073466    0.984035   -2.294724
     56          1           0      -10.966716   -3.033634   -0.715815
     57          1           0      -11.220296   -2.672366   -2.217781
     58          1           0       -9.620722   -2.085943   -1.766473
     59          1           0       11.922431    0.236826   -2.444283
     60          1           0       10.850557   -1.177643   -2.034407
     61          1           0       12.356347   -1.278056   -2.955554
     62          1           0       13.599019   -2.675188   -1.218259
     63          1           0       11.783848   -3.139089   -0.902682
     64          1           0       12.920311   -2.582666    0.462998
     65          1           0       -8.809268   -0.042201   -0.753616
     66          1           0       10.220389   -2.241458    0.685494
     67          1           0      -10.112443    0.858083    2.307253
     68          1           0      -11.687620    1.320212    2.852629
     69          1           0      -11.345391   -0.406313    3.402915
     70          1           0       11.266399    1.833078    2.778889
     71          1           0       10.049382    0.443183    2.479076
     72          1           0        9.961458    2.010254    1.802109
     73          1           0      -14.833855   -2.801047   -0.149741
     74          1           0       15.176397    2.097473   -1.428129
     75          1           0      -10.017018    2.461311    0.569027
     76          1           0        8.855938    0.483456    0.060657
     77          1           0       -8.463918    4.404040    0.305230
     78          1           0       -7.087319    4.090812   -0.523711
     79          1           0       -8.636866    3.939559   -1.226149
     80          1           0        8.258474   -3.236778   -0.262634
     81          1           0        8.180570   -3.117761    1.799573
     82          1           0        6.634816   -3.266850    0.631542
     83          1           0       -7.223714    0.597947    0.470051
     84          1           0        6.340672    0.483662   -0.112337
     85          1           0       -5.436223    2.899413   -0.390299
     86          1           0        4.993652   -2.117938    0.576620
     87          1           0       -4.558870    0.022499    0.220568
     88          1           0        4.080191    0.690218    0.035652
     89          1           0       -3.407059    3.089200   -1.727708
     90          1           0       -1.757129    3.029130   -0.833253
     91          1           0       -3.100923    3.936087   -0.132177
     92          1           0        3.201840   -2.700852   -0.159466
     93          1           0        2.609093   -2.433981    1.550259
     94          1           0        1.439285   -2.580138    0.394778
     95          1           0       -2.548391   -0.383468    0.241002
     96          1           0        1.975269    1.169475   -0.344899
     97          1           0       -0.436266    1.933903   -0.434652
     98          1           0       -0.113587   -1.151913    0.071140
 ---------------------------------------------------------------------

 SCF Done:  E(RCAM-B3LYP) =  -1707.01756546     A.U. after   14 cycles

 Excitation energies and oscillator strengths:

 Excited State   1:      Singlet-A      3.0236 eV  410.06 nm  f=3.6311  <S**2>=0.000
     155 ->158        -0.16676
     156 ->157         0.67947
 This state for optimization and/or second-order correction.
 Total Energy, E(TD-HF/TD-DFT) =  -1706.90645126
 Copying the excited state density for this state as the 1-particle RhoCI density.

 The electronic state is 1-A.
 Alpha  occ. eigenvalues --  -19.20665 -19.19394 -10.30791 -10.29278 -10.29015
 Alpha  occ. eigenvalues --  -10.28206 -10.28078 -10.27471 -10.27389 -10.27253
 Alpha  occ. eigenvalues --  -10.27210 -10.27177 -10.27070 -10.27066 -10.27019
 Alpha  occ. eigenvalues --  -10.26919 -10.26871 -10.26801 -10.26747 -10.26635
 Alpha  occ. eigenvalues --  -10.26597 -10.26560 -10.26535 -10.26313 -10.26184
 Alpha  occ. eigenvalues --  -10.26146 -10.25936 -10.25926 -10.25867 -10.25740
 Alpha  occ. eigenvalues --  -10.25722 -10.25584 -10.25456 -10.25441 -10.24964
 Alpha  occ. eigenvalues --  -10.24942 -10.24571 -10.24391 -10.23950 -10.23758
 Alpha  occ. eigenvalues --  -10.23726 -10.22829  -1.10213  -1.06052  -0.93956
 Alpha  occ. eigenvalues --   -0.93164  -0.92362  -0.91958  -0.90738  -0.90249
 Alpha  occ. eigenvalues --   -0.87928  -0.87549  -0.86504  -0.85676  -0.84587
 Alpha  occ. eigenvalues --   -0.83285  -0.81820  -0.80931  -0.79552  -0.78180
 Alpha  occ. eigenvalues --   -0.77331  -0.76362  -0.76158  -0.76125  -0.75954
 Alpha  occ. eigenvalues --   -0.75713  -0.75020  -0.74572  -0.74171  -0.70830
 Alpha  occ. eigenvalues --   -0.68706  -0.67467  -0.65743  -0.65085  -0.63884
 Alpha  occ. eigenvalues --   -0.63075  -0.62809  -0.61921  -0.60502  -0.60369
 Alpha  occ. eigenvalues --   -0.59262  -0.58936  -0.57826  -0.57277  -0.56709
 Alpha  occ. eigenvalues --   -0.55759  -0.55691  -0.54868  -0.54458  -0.54181
 Alpha  occ. eigenvalues --   -0.53303  -0.52751  -0.52232  -0.51693  -0.50661
 Alpha  occ. eigenvalues --   -0.50568  -0.50267  -0.49877  -0.49722  -0.49257
 Alpha  occ. eigenvalues --   -0.48963  -0.48764  -0.48626  -0.48261  -0.47861
 Alpha  occ. eigenvalues --   -0.47717  -0.47373  -0.47342  -0.47233  -0.46740
 Alpha  occ. eigenvalues --   -0.46620  -0.46182  -0.46086  -0.45060  -0.44692
 Alpha  occ. eigenvalues --   -0.44408  -0.44203  -0.43792  -0.43525  -0.43476
 Alpha  occ. eigenvalues --   -0.43234  -0.42675  -0.42634  -0.42422  -0.41988
 Alpha  occ. eigenvalues --   -0.41941  -0.41831  -0.41772  -0.41673  -0.41372
 Alpha  occ. eigenvalues --   -0.40389  -0.40178  -0.39861  -0.39733  -0.39550
 Alpha  occ. eigenvalues --   -0.39312  -0.39052  -0.38311  -0.38209  -0.37699
 Alpha  occ. eigenvalues --   -0.37531  -0.37088  -0.36693  -0.36460  -0.36023
 Alpha  occ. eigenvalues --   -0.35529  -0.35006  -0.33291  -0.32670  -0.31671
 Alpha  occ. eigenvalues --   -0.31240  -0.29603  -0.28167  -0.26387  -0.24777
 Alpha  occ. eigenvalues --   -0.21587
 Alpha virt. eigenvalues --   -0.03687   0.00262   0.02583   0.05636   0.07762
 Alpha virt. eigenvalues --    0.08967   0.10643   0.11552   0.11849   0.11978
 Alpha virt. eigenvalues --    0.12810   0.12943   0.12950   0.13754   0.14132

 Mulliken charges:
               1
     1  O   -0.554769
     2  O   -0.584250
     3  C   -0.008799
     4  C   -0.046203
     5  C   -0.187689
     6  C   -0.176486
     7  C    0.149515
     8  C    0.170927
     9  C    0.065074
    10  C    0.053337
    11  C   -0.202360
    12  C   -0.221624
    13  C    0.072829
    14  C    0.058751
    15  C   -0.302465
    16  C   -0.317067
    17  C   -0.293599
    18  C   -0.300548
    19  C   -0.137080
    20  C   -0.177605
    21  C   -0.371754
    22  C   -0.356520
    23  C   -0.086979
    24  C   -0.072005
    25  C    0.034208
    26  C    0.130138
    27  C   -0.374077
    28  C   -0.353094
    29  C   -0.089875
    30  C   -0.126590
    31  C   -0.082827
    32  C   -0.111601
    33  C   -0.088939
    34  C   -0.095411
    35  C    0.120177
    36  C    0.109100
    37  C   -0.370817
    38  C   -0.364438
    39  C   -0.132046
    40  C   -0.157455
    41  C   -0.080743
    42  C   -0.086109
    43  H    0.092423
    44  H    0.085097
    45  H    0.089236
    46  H    0.099186
    47  H    0.086235
    48  H    0.076565
    49  H    0.131152
    50  H    0.123646
    51  H    0.117021
    52  H    0.090398
    53  H    0.070759
    54  H    0.108855
    55  H    0.101283
    56  H    0.108873
    57  H    0.098303
    58  H    0.106822
    59  H    0.095308
    60  H    0.101361
    61  H    0.105756
    62  H    0.087702
    63  H    0.085594
    64  H    0.116591
    65  H    0.105408
    66  H    0.093416
    67  H    0.093116
    68  H    0.103843
    69  H    0.101686
    70  H    0.111705
    71  H    0.129474
    72  H    0.114309
    73  H    0.282939
    74  H    0.304772
    75  H    0.092526
    76  H    0.093053
    77  H    0.123499
    78  H    0.114154
    79  H    0.123202
    80  H    0.121832
    81  H    0.089572
    82  H    0.108769
    83  H    0.072033
    84  H    0.078160
    85  H    0.080855
    86  H    0.074866
    87  H    0.067717
    88  H    0.075368
    89  H    0.114039
    90  H    0.100426
    91  H    0.103848
    92  H    0.122599
    93  H    0.134215
    94  H    0.103281
    95  H    0.075740
    96  H    0.071632
    97  H    0.099081
    98  H    0.088466
 Sum of Mulliken charges =  -0.00000

 Dipole moment (field-independent basis, Debye):
    X=             -1.0811    Y=             -0.9335    Z=             -1.9938  Tot=              2.4526
 Quadrupole moment (field-independent basis, Debye-Ang):
   XX=           -294.2431   YY=           -243.6914   ZZ=           -260.8108
   XY=            -14.3689   XZ=              0.7989   YZ=             -1.0013

 Normal termination of Gaussian 16 at Mon Jul  8 15:45:01 2019.
