 Gaussian 16, Revision A.03,
 Gaussian 16:  ES64L-G16RevA.03 25-Dec-2016

 -------------------------------------
 # td=(NStates=1) CAM-B3LYP/6-31G(d,p)
 -------------------------------------

 --
 TD
 --
 Symbolic Z-matrix:
 Charge =  0 Multiplicity = 1

                         Standard orientation:
 ---------------------------------------------------------------------
 Center     Atomic      Atomic             Coordinates (Angstroms)
 Number     Number       Type             X           Y           Z
 ---------------------------------------------------------------------
      1          8           0       14.661520   -2.104677   -0.503738
      2          8           0      -14.733543    1.979419    0.744867
      3          6           0       11.540874   -1.079645    1.208351
      4          6           0      -12.331519   -0.927287    0.733843
      5          6           0       13.049173   -1.305744    1.045616
      6          6           0      -13.650336   -0.194399    0.661768
      7          6           0       13.345954   -1.845152   -0.248656
      8          6           0      -13.493449    1.356334    0.795412
      9          6           0       10.885462   -0.389033    0.002596
     10          6           0      -11.316917   -0.217570   -0.079837
     11          6           0       12.911747   -0.867913   -1.366889
     12          6           0      -12.740833    1.740774   -0.501837
     13          6           0       11.578319   -0.210972   -1.118694
     14          6           0      -11.482747    0.937655   -0.699887
     15          6           0       11.337467   -0.152095    2.492637
     16          6           0       10.863082   -2.400750    1.508645
     17          6           0      -11.781634   -0.988933    2.274446
     18          6           0      -12.661649   -2.331793    0.258780
     19          6           0        9.720527    0.369254    0.251932
     20          6           0      -10.085808   -1.023011   -0.372981
     21          6           0       10.981823    0.431821   -2.363058
     22          6           0      -10.533496    1.595051   -1.732972
     23          6           0        9.349996    1.543784   -0.035269
     24          6           0       -8.799281   -0.558340   -0.216122
     25          6           0        8.002728    2.277811    0.161380
     26          6           0       -7.573369   -1.277155   -0.442207
     27          6           0        8.028637    3.757111    0.418375
     28          6           0       -7.773639   -2.715076   -0.771478
     29          6           0        6.909116    1.469025    0.033406
     30          6           0       -6.453395   -0.620032   -0.312600
     31          6           0        5.527871    1.944971    0.188332
     32          6           0       -5.077139   -1.065685   -0.585566
     33          6           0        4.461568    1.153724    0.063885
     34          6           0       -3.946294   -0.422507   -0.373871
     35          6           0        3.096097    1.594108    0.225094
     36          6           0       -2.593885   -0.850215   -0.547684
     37          6           0        2.661635    2.991531    0.565879
     38          6           0       -2.434937   -2.325876   -0.827432
     39          6           0        2.119874    0.628253   -0.193543
     40          6           0       -1.648915    0.054567   -0.409606
     41          6           0        0.686063    0.882329   -0.139616
     42          6           0       -0.182343   -0.021400   -0.545804
     43          1           0       13.661490   -0.370539    1.093637
     44          1           0       13.281975   -1.851935    1.929091
     45          1           0      -14.222493   -0.468371    1.386286
     46          1           0      -14.185479   -0.440679   -0.079831
     47          1           0       12.700829   -2.548051   -0.425396
     48          1           0      -12.760549    1.729123    1.618136
     49          1           0       13.889523   -0.255189   -1.602681
     50          1           0       12.795488   -1.382715   -2.239198
     51          1           0      -13.392878    1.605159   -1.265912
     52          1           0      -12.458558    2.865049   -0.663839
     53          1           0       11.543569   -0.551559    3.370008
     54          1           0       10.258731    0.023729    2.760639
     55          1           0       11.948637    0.748678    2.443005
     56          1           0       11.137290   -3.265708    0.625444
     57          1           0       11.167780   -2.844700    2.418188
     58          1           0        9.855916   -2.166284    1.453153
     59          1           0      -12.075563    0.060910    2.845253
     60          1           0      -10.907582   -1.322859    2.522256
     61          1           0      -12.520209   -1.762271    3.010476
     62          1           0      -13.353756   -2.807624    0.982172
     63          1           0      -11.859273   -2.836167    0.541326
     64          1           0      -13.035571   -2.534005   -0.737226
     65          1           0        8.943548   -0.260539    0.685464
     66          1           0      -10.233708   -2.127224   -0.583715
     67          1           0        9.960017    0.745621   -2.238553
     68          1           0       11.560042    1.318458   -2.602496
     69          1           0       11.354073   -0.298353   -3.257330
     70          1           0      -10.881713    1.965027   -2.684560
     71          1           0       -9.557583    0.987196   -1.980062
     72          1           0      -10.216180    2.669829   -1.483202
     73          1           0       15.192909   -2.899031    0.106492
     74          1           0      -15.426996    1.632463    1.231931
     75          1           0       10.041304    2.270202   -0.619514
     76          1           0       -8.545340    0.523915    0.018418
     77          1           0        8.733664    4.183280   -0.438487
     78          1           0        7.024167    4.259012    0.514665
     79          1           0        8.594412    4.060050    1.241409
     80          1           0       -8.064836   -3.175347    0.152339
     81          1           0       -8.545266   -3.087807   -1.438186
     82          1           0       -6.831955   -3.320264   -1.114086
     83          1           0        6.917937    0.527275   -0.323459
     84          1           0       -6.389714    0.374650    0.009886
     85          1           0        5.297940    3.040138    0.337502
     86          1           0       -4.918663   -2.176901   -0.835963
     87          1           0        4.476835    0.023337   -0.077597
     88          1           0       -3.922476    0.625751   -0.107276
     89          1           0        3.075149    3.426810    1.475146
     90          1           0        1.653197    3.256755    0.447851
     91          1           0        3.166476    3.484970   -0.303928
     92          1           0       -3.047351   -2.878193   -0.151374
     93          1           0       -2.867846   -2.389941   -1.775703
     94          1           0       -1.498507   -2.565346   -1.004034
     95          1           0        2.383451   -0.267805   -0.615008
     96          1           0       -1.913174    0.931207    0.104073
     97          1           0        0.344005    1.974882   -0.098915
     98          1           0        0.270460   -1.081123   -0.534364
 ---------------------------------------------------------------------

 SCF Done:  E(RCAM-B3LYP) =  -1706.94693226     A.U. after   13 cycles

 Excitation energies and oscillator strengths:

 Excited State   1:      Singlet-A      3.0878 eV  401.53 nm  f=3.5923  <S**2>=0.000
     155 ->158        -0.17924
     156 ->157         0.67610
 This state for optimization and/or second-order correction.
 Total Energy, E(TD-HF/TD-DFT) =  -1706.83345853
 Copying the excited state density for this state as the 1-particle RhoCI density.

 The electronic state is 1-A.
 Alpha  occ. eigenvalues --  -19.21899 -19.20580 -10.30815 -10.27992 -10.27928
 Alpha  occ. eigenvalues --  -10.27784 -10.27600 -10.27174 -10.26887 -10.26795
 Alpha  occ. eigenvalues --  -10.26342 -10.26298 -10.26182 -10.26158 -10.26093
 Alpha  occ. eigenvalues --  -10.26091 -10.26060 -10.26008 -10.25958 -10.25868
 Alpha  occ. eigenvalues --  -10.25788 -10.25739 -10.25675 -10.25655 -10.25519
 Alpha  occ. eigenvalues --  -10.25502 -10.25273 -10.25210 -10.25175 -10.25120
 Alpha  occ. eigenvalues --  -10.25090 -10.24959 -10.24833 -10.24592 -10.24405
 Alpha  occ. eigenvalues --  -10.24390 -10.23884 -10.23604 -10.23418 -10.23366
 Alpha  occ. eigenvalues --  -10.23199 -10.21946  -1.10645  -1.08573  -0.94143
 Alpha  occ. eigenvalues --   -0.93990  -0.92407  -0.91463  -0.90880  -0.89849
 Alpha  occ. eigenvalues --   -0.87614  -0.86854  -0.86679  -0.85670  -0.84762
 Alpha  occ. eigenvalues --   -0.83154  -0.82267  -0.80766  -0.79178  -0.79157
 Alpha  occ. eigenvalues --   -0.77442  -0.77090  -0.76539  -0.76413  -0.76210
 Alpha  occ. eigenvalues --   -0.76066  -0.75786  -0.75250  -0.74505  -0.70375
 Alpha  occ. eigenvalues --   -0.68936  -0.67875  -0.66506  -0.65457  -0.65158
 Alpha  occ. eigenvalues --   -0.63987  -0.62641  -0.61000  -0.60816  -0.60329
 Alpha  occ. eigenvalues --   -0.59934  -0.59345  -0.58609  -0.58185  -0.56364
 Alpha  occ. eigenvalues --   -0.56156  -0.55787  -0.55401  -0.54488  -0.54328
 Alpha  occ. eigenvalues --   -0.53753  -0.53134  -0.52108  -0.51631  -0.50995
 Alpha  occ. eigenvalues --   -0.50270  -0.50130  -0.49925  -0.49565  -0.49446
 Alpha  occ. eigenvalues --   -0.49039  -0.48899  -0.48560  -0.48213  -0.47947
 Alpha  occ. eigenvalues --   -0.47859  -0.47579  -0.47354  -0.46376  -0.46164
 Alpha  occ. eigenvalues --   -0.46131  -0.45662  -0.45385  -0.45288  -0.45123
 Alpha  occ. eigenvalues --   -0.44560  -0.44425  -0.43961  -0.43732  -0.43362
 Alpha  occ. eigenvalues --   -0.43302  -0.43132  -0.42976  -0.42728  -0.42131
 Alpha  occ. eigenvalues --   -0.41848  -0.41651  -0.41592  -0.40888  -0.40599
 Alpha  occ. eigenvalues --   -0.40221  -0.40099  -0.39640  -0.39446  -0.38912
 Alpha  occ. eigenvalues --   -0.38759  -0.38571  -0.38316  -0.38198  -0.37679
 Alpha  occ. eigenvalues --   -0.37544  -0.36914  -0.36057  -0.35958  -0.35173
 Alpha  occ. eigenvalues --   -0.34810  -0.34046  -0.33831  -0.31963  -0.31801
 Alpha  occ. eigenvalues --   -0.31623  -0.29933  -0.28101  -0.26756  -0.24155
 Alpha  occ. eigenvalues --   -0.21266
 Alpha virt. eigenvalues --   -0.03003   0.00609   0.03781   0.06364   0.08261
 Alpha virt. eigenvalues --    0.08806   0.09859   0.12048   0.12377   0.12853
 Alpha virt. eigenvalues --    0.12951   0.13164   0.13804   0.14043   0.14339

 Mulliken charges:
               1
     1  O   -0.585493
     2  O   -0.556831
     3  C   -0.045430
     4  C   -0.032677
     5  C   -0.161486
     6  C   -0.164165
     7  C    0.229242
     8  C    0.165613
     9  C    0.076945
    10  C    0.076117
    11  C   -0.252804
    12  C   -0.215775
    13  C    0.052486
    14  C    0.089615
    15  C   -0.310972
    16  C   -0.283056
    17  C   -0.291035
    18  C   -0.307008
    19  C   -0.081915
    20  C   -0.173544
    21  C   -0.358932
    22  C   -0.377104
    23  C   -0.124799
    24  C   -0.103766
    25  C    0.076144
    26  C    0.181559
    27  C   -0.365947
    28  C   -0.397653
    29  C   -0.095195
    30  C   -0.151711
    31  C   -0.112778
    32  C   -0.109611
    33  C   -0.093591
    34  C   -0.093800
    35  C    0.093606
    36  C    0.132545
    37  C   -0.373564
    38  C   -0.358684
    39  C   -0.138837
    40  C   -0.171864
    41  C   -0.066256
    42  C   -0.104228
    43  H    0.085077
    44  H    0.080606
    45  H    0.080138
    46  H    0.102049
    47  H    0.073071
    48  H    0.075729
    49  H    0.106371
    50  H    0.114375
    51  H    0.123374
    52  H    0.080377
    53  H    0.103049
    54  H    0.093819
    55  H    0.107849
    56  H    0.066205
    57  H    0.108854
    58  H    0.111517
    59  H    0.089813
    60  H    0.129934
    61  H    0.040578
    62  H    0.096808
    63  H    0.109344
    64  H    0.113280
    65  H    0.074662
    66  H    0.087505
    67  H    0.125538
    68  H    0.118236
    69  H    0.084207
    70  H    0.116380
    71  H    0.113412
    72  H    0.096566
    73  H    0.303677
    74  H    0.299101
    75  H    0.066332
    76  H    0.087565
    77  H    0.104280
    78  H    0.116116
    79  H    0.139150
    80  H    0.131810
    81  H    0.126556
    82  H    0.095767
    83  H    0.085358
    84  H    0.080273
    85  H    0.075349
    86  H    0.062449
    87  H    0.085451
    88  H    0.066634
    89  H    0.123602
    90  H    0.121034
    91  H    0.123554
    92  H    0.130344
    93  H    0.131097
    94  H    0.107268
    95  H    0.082111
    96  H    0.082691
    97  H    0.079089
    98  H    0.071260
 Sum of Mulliken charges =  -0.00000

 Dipole moment (field-independent basis, Debye):
    X=              0.2632    Y=             -1.7075    Z=              1.7005  Tot=              2.4241
 Quadrupole moment (field-independent basis, Debye-Ang):
   XX=           -233.9520   YY=           -241.8893   ZZ=           -260.6751
   XY=             12.8696   XZ=              7.2864   YZ=             -0.5156

 Normal termination of Gaussian 16 at Wed Jul  3 22:39:50 2019.
