 Gaussian 16, Revision A.03,
 Gaussian 16:  ES64L-G16RevA.03 25-Dec-2016

 -------------------------------------
 # td=(NStates=1) CAM-B3LYP/6-31G(d,p)
 -------------------------------------

 --
 TD
 --
 Symbolic Z-matrix:
 Charge =  0 Multiplicity = 1

                         Standard orientation:
 ---------------------------------------------------------------------
 Center     Atomic      Atomic             Coordinates (Angstroms)
 Number     Number       Type             X           Y           Z
 ---------------------------------------------------------------------
      1          8           0       14.689801   -2.175531   -0.491641
      2          8           0      -14.685972    2.039993    0.632410
      3          6           0       11.463518   -1.122914    1.266669
      4          6           0      -12.312929   -0.872603    0.863592
      5          6           0       12.915649   -1.390522    1.027999
      6          6           0      -13.633956   -0.131843    0.878235
      7          6           0       13.261241   -1.950799   -0.399106
      8          6           0      -13.434150    1.391138    0.789601
      9          6           0       10.895264   -0.281857    0.003435
     10          6           0      -11.341541   -0.305021   -0.327299
     11          6           0       13.025488   -0.763376   -1.348982
     12          6           0      -12.804461    1.718416   -0.581564
     13          6           0       11.614649   -0.225900   -1.163080
     14          6           0      -11.567113    0.930813   -0.902202
     15          6           0       11.335995   -0.197957    2.472147
     16          6           0       10.688290   -2.393761    1.449744
     17          6           0      -11.476705   -0.793346    2.199069
     18          6           0      -12.500080   -2.365889    0.512357
     19          6           0        9.659532    0.304980    0.081810
     20          6           0      -10.192598   -1.083658   -0.498473
     21          6           0       11.127590    0.413014   -2.471146
     22          6           0      -10.718926    1.462096   -2.045921
     23          6           0        9.280565    1.569312   -0.137503
     24          6           0       -8.911677   -0.613219   -0.317688
     25          6           0        8.092100    2.285035    0.014997
     26          6           0       -7.578827   -1.458232   -0.568484
     27          6           0        8.156266    3.764943    0.390911
     28          6           0       -7.748868   -2.849158   -0.973024
     29          6           0        6.884727    1.550688   -0.123429
     30          6           0       -6.405651   -0.744351   -0.357323
     31          6           0        5.510128    2.008930    0.026967
     32          6           0       -5.054920   -1.213701   -0.421156
     33          6           0        4.402289    1.237098   -0.100617
     34          6           0       -4.039902   -0.412377   -0.205643
     35          6           0        3.024265    1.666347    0.255428
     36          6           0       -2.574400   -0.803806   -0.317213
     37          6           0        2.785678    3.052400    0.698939
     38          6           0       -2.391863   -2.139780   -0.850455
     39          6           0        2.126712    0.730577    0.067230
     40          6           0       -1.674774    0.074101    0.073871
     41          6           0        0.692605    0.832084    0.256339
     42          6           0       -0.218016   -0.059644   -0.045898
     43          1           0       13.521586   -0.401344    0.975437
     44          1           0       13.200045   -2.262753    1.700763
     45          1           0      -14.248343   -0.427995    1.787125
     46          1           0      -14.340940   -0.542270    0.200941
     47          1           0       12.561373   -2.742894   -0.581585
     48          1           0      -12.851261    1.921566    1.576813
     49          1           0       13.689953   -0.014238   -1.140174
     50          1           0       13.338128   -0.939245   -2.513845
     51          1           0      -13.501366    1.761039   -1.399806
     52          1           0      -12.709923    2.831941   -0.573479
     53          1           0       11.677407   -0.850867    3.225149
     54          1           0       10.222220    0.100214    2.556873
     55          1           0       12.092344    0.684321    2.668428
     56          1           0       10.813238   -2.960211    0.746452
     57          1           0       10.848901   -2.913103    2.448895
     58          1           0        9.569520   -1.935088    1.431207
     59          1           0      -11.275192    0.291009    2.388414
     60          1           0      -10.472667   -1.197932    2.122841
     61          1           0      -12.121300   -1.286995    2.769595
     62          1           0      -13.304107   -2.864493    1.248146
     63          1           0      -11.478647   -2.782374    0.576999
     64          1           0      -12.967928   -2.257359   -0.423431
     65          1           0        8.836451   -0.264668    0.596771
     66          1           0      -10.404697   -2.207706   -0.715296
     67          1           0       10.044145    0.844189   -2.287555
     68          1           0       11.800398    1.167016   -2.675249
     69          1           0       11.249484   -0.132228   -3.309698
     70          1           0      -11.298880    2.078616   -2.821207
     71          1           0      -10.176031    0.698268   -2.596973
     72          1           0      -10.201409    2.476087   -1.778142
     73          1           0       14.935316   -2.928779    0.281998
     74          1           0      -15.234328    1.748693    1.391385
     75          1           0       10.282872    2.170537   -0.520758
     76          1           0       -8.638108    0.276772   -0.108074
     77          1           0        8.592469    4.086378   -0.525297
     78          1           0        7.114326    3.974651    0.660025
     79          1           0        8.652543    4.010940    1.187044
     80          1           0       -8.313273   -3.357525   -0.143231
     81          1           0       -8.347023   -3.179180   -1.960384
     82          1           0       -6.791215   -3.201424   -0.912241
     83          1           0        7.065552    0.550019   -0.607767
     84          1           0       -6.499562    0.450903    0.018041
     85          1           0        5.426293    3.254865   -0.065737
     86          1           0       -4.846293   -2.158448   -0.924716
     87          1           0        4.435326    0.171019   -0.183904
     88          1           0       -4.279051    0.599208    0.259152
     89          1           0        3.264466    3.087876    1.716451
     90          1           0        1.820616    3.329017    0.664807
     91          1           0        3.529090    3.499444   -0.013534
     92          1           0       -2.910804   -2.958204   -0.161184
     93          1           0       -2.860783   -2.340214   -1.716013
     94          1           0       -1.459980   -2.581384   -0.877573
     95          1           0        2.304127   -0.228970   -0.405882
     96          1           0       -2.090255    1.099061    0.464836
     97          1           0        0.398049    1.809967    0.657304
     98          1           0        0.139335   -0.880960   -0.544121
 ---------------------------------------------------------------------

 SCF Done:  E(RCAM-B3LYP) =  -1706.93291301     A.U. after   14 cycles

 Excitation energies and oscillator strengths:

 Excited State   1:      Singlet-A      3.0970 eV  400.34 nm  f=3.4506  <S**2>=0.000
     155 ->158        -0.22425
     156 ->157         0.65142
 This state for optimization and/or second-order correction.
 Total Energy, E(TD-HF/TD-DFT) =  -1706.81910216
 Copying the excited state density for this state as the 1-particle RhoCI density.

 The electronic state is 1-A.
 Alpha  occ. eigenvalues --  -19.22733 -19.20859 -10.30598 -10.30553 -10.28085
 Alpha  occ. eigenvalues --  -10.27765 -10.27735 -10.27668 -10.27449 -10.27236
 Alpha  occ. eigenvalues --  -10.27040 -10.27029 -10.26811 -10.26717 -10.26631
 Alpha  occ. eigenvalues --  -10.26585 -10.26388 -10.26305 -10.26250 -10.26055
 Alpha  occ. eigenvalues --  -10.25894 -10.25872 -10.25598 -10.25594 -10.25543
 Alpha  occ. eigenvalues --  -10.25479 -10.25467 -10.25432 -10.25362 -10.25306
 Alpha  occ. eigenvalues --  -10.25274 -10.25239 -10.25127 -10.25032 -10.24971
 Alpha  occ. eigenvalues --  -10.24918 -10.24760 -10.24723 -10.24513 -10.24419
 Alpha  occ. eigenvalues --  -10.23736 -10.23208  -1.09292  -1.06898  -0.93996
 Alpha  occ. eigenvalues --   -0.92652  -0.92567  -0.91830  -0.90827  -0.89492
 Alpha  occ. eigenvalues --   -0.87782  -0.87290  -0.86395  -0.85585  -0.85036
 Alpha  occ. eigenvalues --   -0.83548  -0.82688  -0.80522  -0.79531  -0.79310
 Alpha  occ. eigenvalues --   -0.77747  -0.77254  -0.76951  -0.76411  -0.76035
 Alpha  occ. eigenvalues --   -0.75638  -0.75065  -0.74653  -0.73705  -0.70220
 Alpha  occ. eigenvalues --   -0.68900  -0.67343  -0.65829  -0.65073  -0.63709
 Alpha  occ. eigenvalues --   -0.62790  -0.61862  -0.61681  -0.60449  -0.59698
 Alpha  occ. eigenvalues --   -0.59242  -0.58466  -0.58201  -0.57509  -0.56301
 Alpha  occ. eigenvalues --   -0.55635  -0.55485  -0.55171  -0.54394  -0.53949
 Alpha  occ. eigenvalues --   -0.53283  -0.52880  -0.52539  -0.52083  -0.51707
 Alpha  occ. eigenvalues --   -0.51186  -0.50814  -0.50273  -0.49783  -0.49573
 Alpha  occ. eigenvalues --   -0.49350  -0.48897  -0.48506  -0.48371  -0.48117
 Alpha  occ. eigenvalues --   -0.47880  -0.47696  -0.47517  -0.47333  -0.46895
 Alpha  occ. eigenvalues --   -0.46497  -0.45961  -0.45871  -0.45674  -0.45461
 Alpha  occ. eigenvalues --   -0.44894  -0.44488  -0.44179  -0.43817  -0.43332
 Alpha  occ. eigenvalues --   -0.43016  -0.42792  -0.42500  -0.42422  -0.42225
 Alpha  occ. eigenvalues --   -0.41699  -0.41538  -0.41361  -0.41176  -0.40572
 Alpha  occ. eigenvalues --   -0.39886  -0.39843  -0.39671  -0.39328  -0.39175
 Alpha  occ. eigenvalues --   -0.38954  -0.38596  -0.38335  -0.37869  -0.37728
 Alpha  occ. eigenvalues --   -0.37271  -0.37065  -0.36730  -0.35943  -0.35676
 Alpha  occ. eigenvalues --   -0.34720  -0.34040  -0.33104  -0.32531  -0.31923
 Alpha  occ. eigenvalues --   -0.31756  -0.29520  -0.27783  -0.26012  -0.23606
 Alpha  occ. eigenvalues --   -0.21665
 Alpha virt. eigenvalues --   -0.03080  -0.00391   0.02940   0.05922   0.07815
 Alpha virt. eigenvalues --    0.09340   0.09639   0.11286   0.12041   0.12318
 Alpha virt. eigenvalues --    0.12361   0.12492   0.12784   0.13268   0.13655

 Mulliken charges:
               1
     1  O   -0.561922
     2  O   -0.561406
     3  C   -0.011624
     4  C   -0.029086
     5  C   -0.192900
     6  C   -0.195047
     7  C    0.166572
     8  C    0.165909
     9  C    0.063298
    10  C    0.040270
    11  C   -0.224748
    12  C   -0.233647
    13  C    0.039463
    14  C    0.085751
    15  C   -0.282402
    16  C   -0.266681
    17  C   -0.285904
    18  C   -0.301348
    19  C   -0.135532
    20  C   -0.176621
    21  C   -0.357591
    22  C   -0.369002
    23  C   -0.103175
    24  C   -0.037987
    25  C    0.045449
    26  C    0.078093
    27  C   -0.330768
    28  C   -0.363893
    29  C   -0.132024
    30  C   -0.137045
    31  C   -0.121997
    32  C   -0.067722
    33  C   -0.097632
    34  C   -0.124149
    35  C    0.097015
    36  C    0.160662
    37  C   -0.338892
    38  C   -0.396714
    39  C   -0.130112
    40  C   -0.148013
    41  C   -0.068663
    42  C   -0.091838
    43  H    0.103701
    44  H    0.064708
    45  H    0.062909
    46  H    0.113676
    47  H    0.089111
    48  H    0.093227
    49  H    0.136661
    50  H    0.082288
    51  H    0.129766
    52  H    0.098538
    53  H    0.098402
    54  H    0.098941
    55  H    0.094348
    56  H    0.110523
    57  H    0.097209
    58  H    0.083491
    59  H    0.093524
    60  H    0.112622
    61  H    0.106776
    62  H    0.074147
    63  H    0.108815
    64  H    0.116406
    65  H    0.076585
    66  H    0.091838
    67  H    0.104996
    68  H    0.117542
    69  H    0.119212
    70  H    0.094237
    71  H    0.127818
    72  H    0.099654
    73  H    0.297221
    74  H    0.297655
    75  H    0.058885
    76  H    0.061826
    77  H    0.132339
    78  H    0.106014
    79  H    0.133973
    80  H    0.117811
    81  H    0.113711
    82  H    0.112358
    83  H    0.092455
    84  H    0.069367
    85  H    0.081226
    86  H    0.085207
    87  H    0.092642
    88  H    0.076791
    89  H    0.127618
    90  H    0.117530
    91  H    0.117438
    92  H    0.101210
    93  H    0.139217
    94  H    0.117188
    95  H    0.070654
    96  H    0.078230
    97  H    0.061000
    98  H    0.072365
 Sum of Mulliken charges =  -0.00000

 Dipole moment (field-independent basis, Debye):
    X=              0.6494    Y=             -1.5061    Z=              1.4833  Tot=              2.2114
 Quadrupole moment (field-independent basis, Debye-Ang):
   XX=           -265.3504   YY=           -244.5639   ZZ=           -260.8701
   XY=              6.7893   XZ=              1.1641   YZ=              1.2678

 Normal termination of Gaussian 16 at Tue Jul  9 10:36:46 2019.
