 Gaussian 16, Revision A.03,
 Gaussian 16:  ES64L-G16RevA.03 25-Dec-2016

 -------------------------------------
 # td=(NStates=1) CAM-B3LYP/6-31G(d,p)
 -------------------------------------

 --
 TD
 --
 Symbolic Z-matrix:
 Charge =  0 Multiplicity = 1

                         Standard orientation:
 ---------------------------------------------------------------------
 Center     Atomic      Atomic             Coordinates (Angstroms)
 Number     Number       Type             X           Y           Z
 ---------------------------------------------------------------------
      1          8           0       14.934105   -2.042137   -0.413444
      2          8           0      -14.861965    1.914525    0.833379
      3          6           0       11.652838   -1.172854    1.182840
      4          6           0      -12.339403   -0.923563    0.799263
      5          6           0       13.089011   -1.406448    1.102256
      6          6           0      -13.728625   -0.225168    0.832379
      7          6           0       13.530091   -1.766385   -0.389381
      8          6           0      -13.521345    1.264406    0.782512
      9          6           0       11.102655   -0.359789    0.013378
     10          6           0      -11.356216   -0.297076   -0.209680
     11          6           0       13.146899   -0.833596   -1.405697
     12          6           0      -12.890662    1.684475   -0.512537
     13          6           0       11.757837   -0.111431   -1.143255
     14          6           0      -11.630174    0.922932   -0.719786
     15          6           0       11.399307   -0.354609    2.445396
     16          6           0       10.826293   -2.503533    1.340892
     17          6           0      -11.777862   -1.006573    2.218100
     18          6           0      -12.599960   -2.444509    0.368573
     19          6           0        9.731300    0.190668    0.234413
     20          6           0      -10.129424   -1.059634   -0.423671
     21          6           0       11.168398    0.755102   -2.337760
     22          6           0      -10.645580    1.533267   -1.723307
     23          6           0        9.318531    1.542537    0.069583
     24          6           0       -8.940102   -0.625444   -0.196360
     25          6           0        8.017430    2.262708    0.280055
     26          6           0       -7.648971   -1.235287   -0.592405
     27          6           0        8.136317    3.656343    0.466488
     28          6           0       -7.796643   -2.545267   -1.078899
     29          6           0        6.920301    1.468794    0.069084
     30          6           0       -6.540978   -0.565667   -0.239440
     31          6           0        5.512139    1.925198    0.237921
     32          6           0       -5.199887   -1.076209   -0.503873
     33          6           0        4.440603    1.116164    0.038099
     34          6           0       -4.041937   -0.340032   -0.230054
     35          6           0        3.069130    1.612938    0.089247
     36          6           0       -2.659484   -0.733676   -0.494882
     37          6           0        2.671708    2.994257    0.516714
     38          6           0       -2.445346   -2.190388   -0.983502
     39          6           0        2.141997    0.713672   -0.230853
     40          6           0       -1.740598    0.244407   -0.298277
     41          6           0        0.704120    0.927564   -0.164518
     42          6           0       -0.273897    0.088813   -0.531475
     43          1           0       13.644576   -0.457221    1.410824
     44          1           0       13.498127   -2.138110    1.704055
     45          1           0      -14.237187   -0.511542    1.797936
     46          1           0      -14.486399   -0.493107    0.078261
     47          1           0       13.036295   -2.571588   -0.499701
     48          1           0      -12.946458    1.642601    1.648599
     49          1           0       14.025701   -0.093080   -1.400513
     50          1           0       13.188363   -1.114302   -2.230710
     51          1           0      -13.576686    1.759699   -1.366061
     52          1           0      -12.618485    2.732022   -0.536616
     53          1           0       11.508804   -1.071426    3.372085
     54          1           0       10.511296   -0.091438    2.744551
     55          1           0       12.018034    0.468581    2.388640
     56          1           0       10.855362   -3.321811    0.616875
     57          1           0       10.983019   -3.092085    2.385798
     58          1           0        9.710731   -2.431404    1.543056
     59          1           0      -11.426066    0.032492    2.336286
     60          1           0      -10.919912   -1.580272    2.146047
     61          1           0      -12.537194   -1.411747    2.725437
     62          1           0      -13.288265   -2.934871    0.999759
     63          1           0      -11.710433   -3.102169    0.364977
     64          1           0      -12.875629   -2.454896   -0.648796
     65          1           0        8.999109   -0.490649    0.666124
     66          1           0      -10.350404   -2.193022   -0.815138
     67          1           0       10.064060    0.840560   -2.270629
     68          1           0       11.674844    1.762414   -2.407639
     69          1           0       11.419398    0.124018   -3.299537
     70          1           0      -11.328011    2.018147   -2.473858
     71          1           0       -9.758820    0.866769   -1.949861
     72          1           0      -10.225495    2.484877   -1.289763
     73          1           0       14.963901   -2.906195    0.113942
     74          1           0      -15.398431    1.678085    1.642792
     75          1           0       10.124668    2.051583   -0.487979
     76          1           0       -8.656657    0.329524    0.320654
     77          1           0        8.419480    4.085720   -0.541829
     78          1           0        7.008186    3.989089    0.862681
     79          1           0        8.950998    3.819896    1.305020
     80          1           0       -8.538378   -3.210444   -0.495336
     81          1           0       -8.393241   -2.566046   -1.962550
     82          1           0       -6.906046   -2.912384   -1.321149
     83          1           0        6.903794    0.563283   -0.566522
     84          1           0       -6.657956    0.385000    0.190680
     85          1           0        5.128040    2.926131    0.713082
     86          1           0       -5.034153   -2.156547   -0.770002
     87          1           0        4.610655    0.232825   -0.471532
     88          1           0       -4.098108    0.577691    0.528107
     89          1           0        3.066116    3.224854    1.549005
     90          1           0        1.631536    2.995537    0.856268
     91          1           0        2.862306    3.822744   -0.122045
     92          1           0       -2.966017   -2.849412   -0.229636
     93          1           0       -2.907771   -2.458384   -2.003438
     94          1           0       -1.288431   -2.172636   -0.964172
     95          1           0        2.455292   -0.407482   -0.390302
     96          1           0       -2.049343    1.029283    0.150298
     97          1           0        0.637084    1.955588    0.082967
     98          1           0        0.124222   -0.946506   -1.154457
 ---------------------------------------------------------------------

 SCF Done:  E(RCAM-B3LYP) =  -1706.94277271     A.U. after   14 cycles

 Excitation energies and oscillator strengths:

 Excited State   1:      Singlet-A      2.9958 eV  413.85 nm  f=3.6119  <S**2>=0.000
     155 ->158        -0.20262
     156 ->157         0.67005
 This state for optimization and/or second-order correction.
 Total Energy, E(TD-HF/TD-DFT) =  -1706.83267738
 Copying the excited state density for this state as the 1-particle RhoCI density.

 The electronic state is 1-A.
 Alpha  occ. eigenvalues --  -19.21561 -19.19953 -10.30436 -10.28352 -10.28315
 Alpha  occ. eigenvalues --  -10.28096 -10.27834 -10.27688 -10.27666 -10.27580
 Alpha  occ. eigenvalues --  -10.27321 -10.27316 -10.27154 -10.27133 -10.26972
 Alpha  occ. eigenvalues --  -10.26830 -10.26732 -10.26707 -10.26662 -10.26409
 Alpha  occ. eigenvalues --  -10.26394 -10.26316 -10.26307 -10.26291 -10.26150
 Alpha  occ. eigenvalues --  -10.26103 -10.26031 -10.25795 -10.25726 -10.25666
 Alpha  occ. eigenvalues --  -10.25346 -10.25263 -10.25261 -10.25197 -10.25121
 Alpha  occ. eigenvalues --  -10.25066 -10.24301 -10.23963 -10.23549 -10.23480
 Alpha  occ. eigenvalues --  -10.22969 -10.22610  -1.08853  -1.05790  -0.93797
 Alpha  occ. eigenvalues --   -0.93752  -0.92308  -0.92114  -0.90868  -0.90362
 Alpha  occ. eigenvalues --   -0.87147  -0.87049  -0.86607  -0.85741  -0.84980
 Alpha  occ. eigenvalues --   -0.83452  -0.82003  -0.80313  -0.79214  -0.78357
 Alpha  occ. eigenvalues --   -0.77355  -0.77185  -0.76901  -0.76476  -0.76212
 Alpha  occ. eigenvalues --   -0.75839  -0.75501  -0.75115  -0.74279  -0.70106
 Alpha  occ. eigenvalues --   -0.68658  -0.67379  -0.66343  -0.65424  -0.64497
 Alpha  occ. eigenvalues --   -0.63524  -0.62259  -0.60911  -0.60435  -0.60131
 Alpha  occ. eigenvalues --   -0.59754  -0.59237  -0.57896  -0.57757  -0.56800
 Alpha  occ. eigenvalues --   -0.55673  -0.55240  -0.54973  -0.54455  -0.54136
 Alpha  occ. eigenvalues --   -0.53726  -0.52981  -0.52328  -0.51722  -0.50922
 Alpha  occ. eigenvalues --   -0.50544  -0.50392  -0.50265  -0.49843  -0.49311
 Alpha  occ. eigenvalues --   -0.49157  -0.48837  -0.48616  -0.47972  -0.47894
 Alpha  occ. eigenvalues --   -0.47606  -0.47528  -0.47402  -0.46921  -0.46340
 Alpha  occ. eigenvalues --   -0.46099  -0.45985  -0.45732  -0.45504  -0.45288
 Alpha  occ. eigenvalues --   -0.44789  -0.44451  -0.44209  -0.44115  -0.43392
 Alpha  occ. eigenvalues --   -0.42903  -0.42846  -0.42636  -0.42488  -0.42267
 Alpha  occ. eigenvalues --   -0.42211  -0.41768  -0.41536  -0.41139  -0.40863
 Alpha  occ. eigenvalues --   -0.40693  -0.40305  -0.39863  -0.39693  -0.39576
 Alpha  occ. eigenvalues --   -0.38992  -0.38405  -0.38193  -0.37690  -0.37608
 Alpha  occ. eigenvalues --   -0.37311  -0.36924  -0.36391  -0.36144  -0.35837
 Alpha  occ. eigenvalues --   -0.35783  -0.34392  -0.32961  -0.31974  -0.31506
 Alpha  occ. eigenvalues --   -0.31325  -0.29737  -0.28023  -0.26878  -0.24230
 Alpha  occ. eigenvalues --   -0.21453
 Alpha virt. eigenvalues --   -0.03538  -0.00239   0.03120   0.05998   0.07730
 Alpha virt. eigenvalues --    0.09408   0.10265   0.11295   0.11650   0.11924
 Alpha virt. eigenvalues --    0.12200   0.12696   0.12878   0.13141   0.13337

 Mulliken charges:
               1
     1  O   -0.562250
     2  O   -0.600071
     3  C    0.004356
     4  C   -0.048970
     5  C   -0.186458
     6  C   -0.179124
     7  C    0.150708
     8  C    0.166842
     9  C    0.071454
    10  C    0.055651
    11  C   -0.163806
    12  C   -0.219967
    13  C    0.011675
    14  C    0.056525
    15  C   -0.282618
    16  C   -0.329488
    17  C   -0.267907
    18  C   -0.323996
    19  C   -0.130076
    20  C   -0.166890
    21  C   -0.361772
    22  C   -0.364952
    23  C   -0.122019
    24  C   -0.078206
    25  C    0.101214
    26  C    0.156092
    27  C   -0.352100
    28  C   -0.378997
    29  C   -0.125852
    30  C   -0.123750
    31  C   -0.097398
    32  C   -0.123742
    33  C   -0.104633
    34  C   -0.122084
    35  C    0.119719
    36  C    0.100393
    37  C   -0.399245
    38  C   -0.355335
    39  C   -0.127853
    40  C   -0.079604
    41  C   -0.070635
    42  C   -0.118230
    43  H    0.092460
    44  H    0.085266
    45  H    0.069853
    46  H    0.109061
    47  H    0.088852
    48  H    0.092899
    49  H    0.101399
    50  H    0.094108
    51  H    0.129317
    52  H    0.111300
    53  H    0.070572
    54  H    0.116338
    55  H    0.109230
    56  H    0.108352
    57  H    0.074912
    58  H    0.103229
    59  H    0.094642
    60  H    0.112488
    61  H    0.105106
    62  H    0.098032
    63  H    0.087164
    64  H    0.108734
    65  H    0.087053
    66  H    0.079864
    67  H    0.131025
    68  H    0.120458
    69  H    0.091996
    70  H    0.102103
    71  H    0.125583
    72  H    0.101799
    73  H    0.307332
    74  H    0.300952
    75  H    0.076583
    76  H    0.078827
    77  H    0.137874
    78  H    0.096864
    79  H    0.116392
    80  H    0.117177
    81  H    0.127226
    82  H    0.101311
    83  H    0.102057
    84  H    0.083816
    85  H    0.071375
    86  H    0.090030
    87  H    0.078429
    88  H    0.074987
    89  H    0.117259
    90  H    0.121044
    91  H    0.137943
    92  H    0.122748
    93  H    0.121156
    94  H    0.104080
    95  H    0.070906
    96  H    0.068328
    97  H    0.075093
    98  H    0.070416
 Sum of Mulliken charges =  -0.00000

 Dipole moment (field-independent basis, Debye):
    X=              0.2110    Y=             -1.3633    Z=              1.3065  Tot=              1.9000
 Quadrupole moment (field-independent basis, Debye-Ang):
   XX=           -295.8242   YY=           -242.9388   ZZ=           -259.4528
   XY=              7.4461   XZ=             -8.5572   YZ=              2.4835

 Normal termination of Gaussian 16 at Wed Jul 10 02:32:07 2019.
