 Gaussian 16, Revision A.03,
 Gaussian 16:  ES64L-G16RevA.03 25-Dec-2016

 -------------------------------------
 # td=(NStates=1) CAM-B3LYP/6-31G(d,p)
 -------------------------------------

 --
 TD
 --
 Symbolic Z-matrix:
 Charge =  0 Multiplicity = 1

                         Standard orientation:
 ---------------------------------------------------------------------
 Center     Atomic      Atomic             Coordinates (Angstroms)
 Number     Number       Type             X           Y           Z
 ---------------------------------------------------------------------
      1          8           0       14.592485   -2.265236   -0.501648
      2          8           0      -14.854373    1.965883    0.415675
      3          6           0       11.373904   -1.009108    1.220985
      4          6           0      -12.285428   -0.920076    0.723867
      5          6           0       12.955938   -1.376091    0.958367
      6          6           0      -13.652549   -0.202299    0.620000
      7          6           0       13.194857   -1.854040   -0.398142
      8          6           0      -13.591704    1.333304    0.578676
      9          6           0       10.839678   -0.309373    0.056817
     10          6           0      -11.215734   -0.255753   -0.180097
     11          6           0       12.781704   -0.993306   -1.491220
     12          6           0      -12.737566    1.728721   -0.692786
     13          6           0       11.422480   -0.322091   -1.195912
     14          6           0      -11.514818    0.865669   -0.891080
     15          6           0       11.149864   -0.274582    2.460301
     16          6           0       10.587088   -2.336269    1.358063
     17          6           0      -11.740098   -0.790226    2.139609
     18          6           0      -12.447044   -2.331553    0.372767
     19          6           0        9.518727    0.402226    0.158838
     20          6           0       -9.947390   -1.006588   -0.427503
     21          6           0       10.851938    0.229052   -2.532717
     22          6           0      -10.500098    1.530028   -1.793340
     23          6           0        9.331077    1.693076   -0.181837
     24          6           0       -8.770784   -0.570097   -0.279735
     25          6           0        8.049298    2.322276    0.010754
     26          6           0       -7.489287   -1.353958   -0.376320
     27          6           0        8.163463    3.842424    0.244290
     28          6           0       -7.623565   -2.782723   -0.809811
     29          6           0        6.914592    1.674143    0.014475
     30          6           0       -6.322863   -0.737313   -0.161469
     31          6           0        5.634051    2.071307    0.258893
     32          6           0       -4.955240   -1.184942   -0.273107
     33          6           0        4.477189    1.253163    0.180597
     34          6           0       -3.980421   -0.330299   -0.016414
     35          6           0        3.095361    1.709488    0.251988
     36          6           0       -2.552813   -0.798650   -0.207748
     37          6           0        2.751373    3.167681    0.645220
     38          6           0       -2.206377   -2.251688   -0.587642
     39          6           0        2.158636    0.753046   -0.048101
     40          6           0       -1.648846    0.055876   -0.048413
     41          6           0        0.765758    0.849659    0.016982
     42          6           0       -0.132187   -0.185706   -0.271143
     43          1           0       13.465676   -0.484276    1.165927
     44          1           0       13.472894   -2.025489    1.626370
     45          1           0      -14.055355   -0.550797    1.616218
     46          1           0      -14.332173   -0.713959   -0.098463
     47          1           0       12.609881   -2.837945   -0.433443
     48          1           0      -13.048103    1.636069    1.508238
     49          1           0       13.462567    0.060436   -1.728255
     50          1           0       12.680366   -1.639094   -2.346717
     51          1           0      -13.505201    1.702998   -1.521986
     52          1           0      -12.471543    2.848194   -0.717553
     53          1           0       11.729311   -0.730364    3.400875
     54          1           0       10.130254   -0.259578    2.824253
     55          1           0       11.764568    0.738758    2.487670
     56          1           0       10.561336   -2.873454    0.415133
     57          1           0       10.789179   -2.722916    2.371623
     58          1           0        9.551539   -2.080766    1.507963
     59          1           0      -11.440637    0.268674    2.209640
     60          1           0      -10.905208   -1.357089    2.384429
     61          1           0      -12.544383   -1.151308    2.904766
     62          1           0      -13.279036   -2.857023    1.065070
     63          1           0      -11.542082   -2.882027    0.546774
     64          1           0      -12.686948   -2.614646   -0.763763
     65          1           0        8.794051   -0.107248    0.578269
     66          1           0      -10.161628   -2.060191   -1.022546
     67          1           0        9.843280    0.682011   -2.353270
     68          1           0       11.506451    1.124313   -2.868132
     69          1           0       10.731524   -0.628687   -3.349240
     70          1           0      -10.842827    2.168309   -2.695601
     71          1           0       -9.799288    0.888335   -2.171649
     72          1           0      -10.006525    2.337074   -1.255825
     73          1           0       14.662468   -2.971230    0.073698
     74          1           0      -15.282878    1.448494    1.275164
     75          1           0       10.276344    2.201418   -0.463918
     76          1           0       -8.783163    0.367019    0.139110
     77          1           0        8.988334    4.141054   -0.519526
     78          1           0        7.231753    4.404994    0.334651
     79          1           0        8.569693    3.979022    1.274216
     80          1           0       -8.388997   -3.328559   -0.253136
     81          1           0       -8.125280   -2.862530   -1.791307
     82          1           0       -6.759133   -3.416553   -0.942025
     83          1           0        7.188066    0.553229   -0.328379
     84          1           0       -6.463929    0.235628    0.194487
     85          1           0        5.399524    3.038712    0.458171
     86          1           0       -4.736879   -2.133922   -0.749295
     87          1           0        4.554044    0.197512    0.225212
     88          1           0       -4.025777    0.635460    0.276855
     89          1           0        3.310054    3.311028    1.688597
     90          1           0        1.655991    3.546353    0.821081
     91          1           0        3.205877    3.839954   -0.118822
     92          1           0       -2.743975   -3.060666    0.245705
     93          1           0       -2.535024   -2.490343   -1.779905
     94          1           0       -1.064586   -2.469292   -0.818218
     95          1           0        2.504077   -0.241708   -0.248104
     96          1           0       -1.858881    1.150342    0.119225
     97          1           0        0.321646    1.751504    0.355779
     98          1           0        0.310810   -1.136856   -0.510039
 ---------------------------------------------------------------------

 SCF Done:  E(RCAM-B3LYP) =  -1707.01887211     A.U. after   14 cycles

 Excitation energies and oscillator strengths:

 Excited State   1:      Singlet-A      2.9275 eV  423.51 nm  f=3.1485  <S**2>=0.000
     155 ->158         0.14554
     156 ->157         0.68610
 This state for optimization and/or second-order correction.
 Total Energy, E(TD-HF/TD-DFT) =  -1706.91128746
 Copying the excited state density for this state as the 1-particle RhoCI density.

 The electronic state is 1-A.
 Alpha  occ. eigenvalues --  -19.22787 -19.20004 -10.30978 -10.30167 -10.29792
 Alpha  occ. eigenvalues --  -10.28116 -10.27974 -10.27600 -10.27356 -10.27157
 Alpha  occ. eigenvalues --  -10.27113 -10.26976 -10.26748 -10.26639 -10.26594
 Alpha  occ. eigenvalues --  -10.26578 -10.26452 -10.26345 -10.26344 -10.26237
 Alpha  occ. eigenvalues --  -10.26174 -10.26059 -10.26052 -10.25952 -10.25919
 Alpha  occ. eigenvalues --  -10.25910 -10.25875 -10.25830 -10.25821 -10.25718
 Alpha  occ. eigenvalues --  -10.25706 -10.25563 -10.25545 -10.25296 -10.25159
 Alpha  occ. eigenvalues --  -10.25044 -10.24903 -10.24800 -10.24674 -10.24594
 Alpha  occ. eigenvalues --  -10.24317 -10.24061  -1.09401  -1.08527  -0.94404
 Alpha  occ. eigenvalues --   -0.93765  -0.92237  -0.92046  -0.90805  -0.90220
 Alpha  occ. eigenvalues --   -0.87560  -0.87352  -0.86823  -0.85996  -0.84712
 Alpha  occ. eigenvalues --   -0.83146  -0.81960  -0.80261  -0.80035  -0.77178
 Alpha  occ. eigenvalues --   -0.76616  -0.76271  -0.76202  -0.76130  -0.75820
 Alpha  occ. eigenvalues --   -0.75603  -0.75348  -0.74848  -0.74094  -0.70569
 Alpha  occ. eigenvalues --   -0.68403  -0.67162  -0.65751  -0.64894  -0.64260
 Alpha  occ. eigenvalues --   -0.63486  -0.62933  -0.62305  -0.61064  -0.60459
 Alpha  occ. eigenvalues --   -0.59541  -0.58722  -0.58087  -0.57221  -0.56062
 Alpha  occ. eigenvalues --   -0.55574  -0.55507  -0.55312  -0.54303  -0.54189
 Alpha  occ. eigenvalues --   -0.53167  -0.52700  -0.52294  -0.51651  -0.51563
 Alpha  occ. eigenvalues --   -0.50427  -0.50308  -0.50076  -0.49694  -0.49446
 Alpha  occ. eigenvalues --   -0.49006  -0.48414  -0.48032  -0.47977  -0.47779
 Alpha  occ. eigenvalues --   -0.47364  -0.46968  -0.46667  -0.46239  -0.46208
 Alpha  occ. eigenvalues --   -0.45995  -0.45764  -0.45599  -0.45196  -0.45008
 Alpha  occ. eigenvalues --   -0.44930  -0.44333  -0.44214  -0.43558  -0.43239
 Alpha  occ. eigenvalues --   -0.43043  -0.42698  -0.42526  -0.42359  -0.42149
 Alpha  occ. eigenvalues --   -0.41904  -0.41850  -0.41284  -0.40972  -0.40767
 Alpha  occ. eigenvalues --   -0.40688  -0.40223  -0.40055  -0.39785  -0.39553
 Alpha  occ. eigenvalues --   -0.39332  -0.38933  -0.38447  -0.38216  -0.38121
 Alpha  occ. eigenvalues --   -0.38055  -0.37634  -0.37099  -0.36736  -0.35879
 Alpha  occ. eigenvalues --   -0.35200  -0.34648  -0.33946  -0.32806  -0.32451
 Alpha  occ. eigenvalues --   -0.32025  -0.29404  -0.28149  -0.27041  -0.24707
 Alpha  occ. eigenvalues --   -0.21088
 Alpha virt. eigenvalues --   -0.03688   0.00503   0.03482   0.06506   0.07395
 Alpha virt. eigenvalues --    0.09204   0.10247   0.10622   0.11542   0.12238
 Alpha virt. eigenvalues --    0.12398   0.12439   0.12818   0.13222   0.13763

 Mulliken charges:
               1
     1  O   -0.560878
     2  O   -0.544815
     3  C   -0.021277
     4  C    0.000131
     5  C   -0.171814
     6  C   -0.205370
     7  C    0.150568
     8  C    0.162074
     9  C    0.064906
    10  C    0.004740
    11  C   -0.175828
    12  C   -0.237409
    13  C    0.011532
    14  C    0.088496
    15  C   -0.315799
    16  C   -0.306366
    17  C   -0.294814
    18  C   -0.300410
    19  C   -0.100582
    20  C   -0.123109
    21  C   -0.343639
    22  C   -0.375308
    23  C   -0.111042
    24  C   -0.076897
    25  C    0.101037
    26  C    0.119164
    27  C   -0.366192
    28  C   -0.395066
    29  C   -0.099498
    30  C   -0.132139
    31  C   -0.097767
    32  C   -0.085498
    33  C   -0.121000
    34  C   -0.070047
    35  C    0.115302
    36  C    0.156975
    37  C   -0.370572
    38  C   -0.352883
    39  C   -0.131605
    40  C   -0.162180
    41  C   -0.066950
    42  C   -0.105852
    43  H    0.104102
    44  H    0.077167
    45  H    0.071397
    46  H    0.108138
    47  H    0.071395
    48  H    0.082259
    49  H    0.091279
    50  H    0.115453
    51  H    0.121259
    52  H    0.101160
    53  H    0.079493
    54  H    0.115472
    55  H    0.094749
    56  H    0.112132
    57  H    0.106080
    58  H    0.097583
    59  H    0.106405
    60  H    0.118786
    61  H    0.080808
    62  H    0.075114
    63  H    0.110779
    64  H    0.089817
    65  H    0.084782
    66  H    0.072239
    67  H    0.118821
    68  H    0.105415
    69  H    0.100198
    70  H    0.092539
    71  H    0.126891
    72  H    0.116304
    73  H    0.296342
    74  H    0.304607
    75  H    0.095199
    76  H    0.083352
    77  H    0.109432
    78  H    0.113591
    79  H    0.121323
    80  H    0.118550
    81  H    0.116652
    82  H    0.112417
    83  H    0.064486
    84  H    0.070478
    85  H    0.073759
    86  H    0.095755
    87  H    0.086735
    88  H    0.081428
    89  H    0.109027
    90  H    0.112573
    91  H    0.127878
    92  H    0.098521
    93  H    0.090290
    94  H    0.108560
    95  H    0.075229
    96  H    0.080548
    97  H    0.070853
    98  H    0.082080
 Sum of Mulliken charges =  -0.00000

 Dipole moment (field-independent basis, Debye):
    X=              0.3372    Y=             -1.3562    Z=              2.2468  Tot=              2.6459
 Quadrupole moment (field-independent basis, Debye-Ang):
   XX=           -305.4169   YY=           -246.2812   ZZ=           -260.3508
   XY=             14.9151   XZ=              2.3667   YZ=              2.0762

 Normal termination of Gaussian 16 at Mon Jul  8 13:09:01 2019.
