 Gaussian 16, Revision A.03,
 Gaussian 16:  ES64L-G16RevA.03 25-Dec-2016

 -------------------------------------
 # td=(NStates=1) CAM-B3LYP/6-31G(d,p)
 -------------------------------------

 --
 TD
 --
 Symbolic Z-matrix:
 Charge =  0 Multiplicity = 1

                         Standard orientation:
 ---------------------------------------------------------------------
 Center     Atomic      Atomic             Coordinates (Angstroms)
 Number     Number       Type             X           Y           Z
 ---------------------------------------------------------------------
      1          8           0       14.922736   -1.915165   -0.293008
      2          8           0      -14.768863    1.900532    0.723084
      3          6           0       11.377591   -1.314171    1.150372
      4          6           0      -12.327373   -0.928758    0.805230
      5          6           0       12.906582   -1.442278    1.093164
      6          6           0      -13.580774   -0.209460    0.803852
      7          6           0       13.527304   -1.802729   -0.281082
      8          6           0      -13.460886    1.331654    0.676953
      9          6           0       11.046646   -0.346637   -0.062987
     10          6           0      -11.403254   -0.365848   -0.235246
     11          6           0       13.164695   -0.736282   -1.219049
     12          6           0      -12.822162    1.796816   -0.557737
     13          6           0       11.712143   -0.107612   -1.162829
     14          6           0      -11.550315    0.876522   -0.846760
     15          6           0       10.837575   -0.752490    2.467477
     16          6           0       10.642157   -2.724281    0.858864
     17          6           0      -11.702732   -0.833410    2.282355
     18          6           0      -12.581159   -2.452757    0.515864
     19          6           0        9.681312    0.261534    0.161635
     20          6           0      -10.149069   -1.101036   -0.453898
     21          6           0       11.339845    0.900040   -2.407244
     22          6           0      -10.707323    1.485185   -1.860432
     23          6           0        9.285728    1.565357   -0.026682
     24          6           0       -8.866692   -0.631234   -0.380716
     25          6           0        7.974764    2.267713    0.140101
     26          6           0       -7.562737   -1.306082   -0.636891
     27          6           0        8.129247    3.681464    0.617576
     28          6           0       -7.685575   -2.701806   -1.038990
     29          6           0        6.865959    1.666287   -0.029563
     30          6           0       -6.425541   -0.536138   -0.432289
     31          6           0        5.548256    2.118314    0.184156
     32          6           0       -5.137935   -1.132439   -0.578411
     33          6           0        4.405842    1.278183    0.004296
     34          6           0       -4.034724   -0.319798   -0.327394
     35          6           0        3.085940    1.621071    0.225293
     36          6           0       -2.631368   -0.790320   -0.499658
     37          6           0        2.757100    3.016684    0.623578
     38          6           0       -2.409673   -2.167659   -0.951734
     39          6           0        2.114820    0.717058    0.123210
     40          6           0       -1.592256    0.206611   -0.092110
     41          6           0        0.631695    0.950176    0.154144
     42          6           0       -0.199676   -0.113118   -0.182905
     43          1           0       13.473727   -0.556937    1.638008
     44          1           0       13.093752   -2.241055    1.666065
     45          1           0      -14.174791   -0.492205    1.808159
     46          1           0      -14.196405   -0.357215   -0.095902
     47          1           0       13.111923   -2.655502   -0.726160
     48          1           0      -12.889212    1.881112    1.567157
     49          1           0       13.841769    0.082768   -1.082100
     50          1           0       13.300408   -1.260760   -2.251464
     51          1           0      -13.645492    1.877288   -1.340104
     52          1           0      -12.352467    2.862942   -0.302613
     53          1           0       11.430625   -1.410232    3.270454
     54          1           0        9.750044   -0.902837    2.588339
     55          1           0       11.182201    0.430153    2.714963
     56          1           0       10.810620   -3.038471   -0.256019
     57          1           0       11.107578   -3.506842    1.573687
     58          1           0        9.523923   -2.682136    1.111171
     59          1           0      -11.974161    0.113040    2.812638
     60          1           0      -10.557288   -1.232820    2.120944
     61          1           0      -12.180947   -1.491021    2.969026
     62          1           0      -13.223393   -2.872206    1.308256
     63          1           0      -11.779766   -3.034476    0.674249
     64          1           0      -12.796528   -2.654743   -0.595375
     65          1           0        8.939913   -0.397828    0.417887
     66          1           0      -10.159728   -2.246689   -0.510391
     67          1           0       10.249421    1.020071   -2.244280
     68          1           0       11.780800    1.894057   -2.393087
     69          1           0       11.401984    0.368761   -3.366709
     70          1           0      -11.445478    1.856021   -2.607486
     71          1           0       -9.880118    0.816735   -2.239235
     72          1           0      -10.192675    2.361961   -1.481190
     73          1           0       15.123542   -2.807708    0.122321
     74          1           0      -15.086120    1.714301    1.706908
     75          1           0       10.143525    2.118469   -0.203505
     76          1           0       -8.866763    0.478703    0.049541
     77          1           0        9.075679    4.169539    0.026738
     78          1           0        7.148015    4.279452    0.616630
     79          1           0        8.513156    3.644961    1.533822
     80          1           0       -8.129425   -3.361118   -0.381835
     81          1           0       -8.387037   -2.841594   -2.029649
     82          1           0       -6.659406   -2.997233   -1.314652
     83          1           0        6.940834    0.582190   -0.576015
     84          1           0       -6.540679    0.526784   -0.034121
     85          1           0        5.365556    3.124070    0.576019
     86          1           0       -5.088510   -2.274227   -0.723032
     87          1           0        4.614669    0.206530   -0.304139
     88          1           0       -3.978587    0.691310    0.146662
     89          1           0        3.063596    3.323282    1.668499
     90          1           0        1.635165    3.513028    0.565093
     91          1           0        3.414555    3.676777    0.015141
     92          1           0       -2.955494   -2.828750   -0.185248
     93          1           0       -2.832469   -2.117125   -2.041683
     94          1           0       -1.325901   -2.476049   -0.975294
     95          1           0        2.574021   -0.166720   -0.207912
     96          1           0       -2.010356    1.275341    0.088344
     97          1           0        0.322285    1.827304    0.418460
     98          1           0       -0.078950   -1.241351   -0.487677
 ---------------------------------------------------------------------

 SCF Done:  E(RCAM-B3LYP) =  -1706.98524337     A.U. after   15 cycles

 Excitation energies and oscillator strengths:

 Excited State   1:      Singlet-A      2.4664 eV  502.70 nm  f=3.6042  <S**2>=0.000
     155 ->158        -0.15437
     156 ->157         0.68842
 This state for optimization and/or second-order correction.
 Total Energy, E(TD-HF/TD-DFT) =  -1706.89460627
 Copying the excited state density for this state as the 1-particle RhoCI density.

 The electronic state is 1-A.
 Alpha  occ. eigenvalues --  -19.21924 -19.21153 -10.30264 -10.29365 -10.28633
 Alpha  occ. eigenvalues --  -10.28349 -10.28104 -10.27914 -10.27800 -10.27547
 Alpha  occ. eigenvalues --  -10.27528 -10.27472 -10.27448 -10.27346 -10.27177
 Alpha  occ. eigenvalues --  -10.27099 -10.27076 -10.26914 -10.26705 -10.26686
 Alpha  occ. eigenvalues --  -10.26652 -10.26629 -10.26562 -10.26452 -10.26241
 Alpha  occ. eigenvalues --  -10.26228 -10.26136 -10.25993 -10.25987 -10.25976
 Alpha  occ. eigenvalues --  -10.25697 -10.25688 -10.25528 -10.25386 -10.25252
 Alpha  occ. eigenvalues --  -10.25240 -10.25089 -10.24978 -10.24640 -10.24601
 Alpha  occ. eigenvalues --  -10.24427 -10.24219  -1.09963  -1.07845  -0.93343
 Alpha  occ. eigenvalues --   -0.92701  -0.92290  -0.91410  -0.90778  -0.89695
 Alpha  occ. eigenvalues --   -0.87027  -0.86672  -0.85607  -0.84967  -0.84512
 Alpha  occ. eigenvalues --   -0.82681  -0.81891  -0.79716  -0.79340  -0.77726
 Alpha  occ. eigenvalues --   -0.76436  -0.76191  -0.76143  -0.75699  -0.75422
 Alpha  occ. eigenvalues --   -0.75165  -0.74807  -0.74459  -0.73715  -0.70483
 Alpha  occ. eigenvalues --   -0.68478  -0.66335  -0.65072  -0.64348  -0.64155
 Alpha  occ. eigenvalues --   -0.63187  -0.62900  -0.60961  -0.59859  -0.59353
 Alpha  occ. eigenvalues --   -0.59219  -0.58408  -0.57487  -0.57122  -0.56121
 Alpha  occ. eigenvalues --   -0.55255  -0.54717  -0.54312  -0.53900  -0.53792
 Alpha  occ. eigenvalues --   -0.52947  -0.52082  -0.51938  -0.50977  -0.50746
 Alpha  occ. eigenvalues --   -0.49925  -0.49869  -0.49387  -0.49196  -0.48964
 Alpha  occ. eigenvalues --   -0.48887  -0.48546  -0.48267  -0.48110  -0.48026
 Alpha  occ. eigenvalues --   -0.47869  -0.47212  -0.46817  -0.46662  -0.46305
 Alpha  occ. eigenvalues --   -0.45490  -0.45369  -0.44917  -0.44762  -0.44620
 Alpha  occ. eigenvalues --   -0.44433  -0.44285  -0.43929  -0.43503  -0.43287
 Alpha  occ. eigenvalues --   -0.43115  -0.42668  -0.42272  -0.42141  -0.41916
 Alpha  occ. eigenvalues --   -0.41770  -0.41556  -0.41492  -0.40751  -0.40615
 Alpha  occ. eigenvalues --   -0.40364  -0.40342  -0.39624  -0.39290  -0.38765
 Alpha  occ. eigenvalues --   -0.38652  -0.38617  -0.38358  -0.38202  -0.37962
 Alpha  occ. eigenvalues --   -0.37717  -0.37137  -0.36661  -0.36403  -0.35909
 Alpha  occ. eigenvalues --   -0.34897  -0.33824  -0.33251  -0.32685  -0.31820
 Alpha  occ. eigenvalues --   -0.31122  -0.29780  -0.28334  -0.26402  -0.23695
 Alpha  occ. eigenvalues --   -0.19968
 Alpha virt. eigenvalues --   -0.04939  -0.00358   0.03164   0.05812   0.07508
 Alpha virt. eigenvalues --    0.09859   0.10131   0.10967   0.11512   0.11725
 Alpha virt. eigenvalues --    0.12297   0.12404   0.12610   0.13254   0.13293

 Mulliken charges:
               1
     1  O   -0.551381
     2  O   -0.566532
     3  C    0.003290
     4  C    0.019773
     5  C   -0.184987
     6  C   -0.173107
     7  C    0.163154
     8  C    0.163034
     9  C    0.065598
    10  C    0.072757
    11  C   -0.206950
    12  C   -0.221971
    13  C    0.010335
    14  C    0.040783
    15  C   -0.285810
    16  C   -0.304071
    17  C   -0.310180
    18  C   -0.307598
    19  C   -0.121017
    20  C   -0.161297
    21  C   -0.360017
    22  C   -0.359275
    23  C   -0.124039
    24  C   -0.106362
    25  C    0.115390
    26  C    0.108310
    27  C   -0.363623
    28  C   -0.372290
    29  C   -0.112885
    30  C   -0.094599
    31  C   -0.102736
    32  C   -0.125151
    33  C   -0.140614
    34  C   -0.103918
    35  C    0.180089
    36  C    0.068501
    37  C   -0.391846
    38  C   -0.363344
    39  C   -0.143478
    40  C   -0.132455
    41  C   -0.074931
    42  C   -0.057413
    43  H    0.093905
    44  H    0.076316
    45  H    0.055096
    46  H    0.106467
    47  H    0.082525
    48  H    0.055784
    49  H    0.120084
    50  H    0.076931
    51  H    0.122716
    52  H    0.099501
    53  H    0.081555
    54  H    0.115379
    55  H    0.090364
    56  H    0.106462
    57  H    0.094264
    58  H    0.104891
    59  H    0.099833
    60  H    0.097714
    61  H    0.102163
    62  H    0.094592
    63  H    0.109753
    64  H    0.099093
    65  H    0.074632
    66  H    0.068926
    67  H    0.125672
    68  H    0.124334
    69  H    0.113446
    70  H    0.110035
    71  H    0.119283
    72  H    0.117853
    73  H    0.308566
    74  H    0.305034
    75  H    0.070793
    76  H    0.068234
    77  H    0.094928
    78  H    0.104472
    79  H    0.145076
    80  H    0.139466
    81  H    0.102988
    82  H    0.099659
    83  H    0.069125
    84  H    0.097789
    85  H    0.082381
    86  H    0.105070
    87  H    0.081127
    88  H    0.089204
    89  H    0.118178
    90  H    0.091125
    91  H    0.113163
    92  H    0.125482
    93  H    0.130690
    94  H    0.102421
    95  H    0.065759
    96  H    0.085980
    97  H    0.080599
    98  H    0.095985
 Sum of Mulliken charges =  -0.00000

 Dipole moment (field-independent basis, Debye):
    X=              0.7192    Y=             -2.3548    Z=              2.1433  Tot=              3.2644
 Quadrupole moment (field-independent basis, Debye-Ang):
   XX=           -302.2793   YY=           -240.9638   ZZ=           -261.0760
   XY=             -3.2038   XZ=             -6.5877   YZ=              3.7732

 Normal termination of Gaussian 16 at Tue Jul  2 22:40:47 2019.
