 Gaussian 16, Revision A.03,
 Gaussian 16:  ES64L-G16RevA.03 25-Dec-2016

 -------------------------------------
 # td=(NStates=1) CAM-B3LYP/6-31G(d,p)
 -------------------------------------

 --
 TD
 --
 Symbolic Z-matrix:
 Charge =  0 Multiplicity = 1

                         Standard orientation:
 ---------------------------------------------------------------------
 Center     Atomic      Atomic             Coordinates (Angstroms)
 Number     Number       Type             X           Y           Z
 ---------------------------------------------------------------------
      1          8           0       14.725617   -2.297593   -0.483129
      2          8           0      -14.892450    1.910707    0.453066
      3          6           0       11.517088   -0.955778    1.227026
      4          6           0      -12.339300   -0.880819    0.768714
      5          6           0       13.030434   -1.351476    1.077941
      6          6           0      -13.714954   -0.275669    0.658280
      7          6           0       13.355084   -1.920400   -0.367693
      8          6           0      -13.613944    1.272543    0.600767
      9          6           0       11.090606   -0.199573    0.037463
     10          6           0      -11.373302   -0.329008   -0.234784
     11          6           0       13.056213   -0.928486   -1.473014
     12          6           0      -12.801447    1.709865   -0.531312
     13          6           0       11.593770   -0.303687   -1.267445
     14          6           0      -11.601943    0.901004   -0.800789
     15          6           0       11.462014   -0.160562    2.497984
     16          6           0       10.779899   -2.293004    1.533345
     17          6           0      -11.814240   -0.896355    2.211927
     18          6           0      -12.542391   -2.467135    0.453288
     19          6           0        9.661680    0.320207    0.133281
     20          6           0      -10.110607   -1.009634   -0.436436
     21          6           0       11.095146    0.215281   -2.518560
     22          6           0      -10.708199    1.704991   -1.816493
     23          6           0        9.308809    1.686120   -0.044218
     24          6           0       -8.846815   -0.509286   -0.236922
     25          6           0        8.144325    2.314893    0.076292
     26          6           0       -7.647732   -1.338703   -0.352809
     27          6           0        8.093455    3.751156    0.392231
     28          6           0       -7.656974   -2.755908   -0.856298
     29          6           0        6.962974    1.563111   -0.077072
     30          6           0       -6.462755   -0.609462   -0.105102
     31          6           0        5.545590    2.030190    0.133642
     32          6           0       -5.070947   -1.148544   -0.367562
     33          6           0        4.410315    1.290990    0.031439
     34          6           0       -3.971946   -0.388960   -0.157463
     35          6           0        3.006838    1.598833    0.191682
     36          6           0       -2.519984   -0.766722   -0.365547
     37          6           0        2.732972    3.070025    0.519148
     38          6           0       -2.297584   -2.147738   -0.905154
     39          6           0        2.080523    0.625361    0.049889
     40          6           0       -1.612717    0.162747   -0.173111
     41          6           0        0.707739    0.916479   -0.052364
     42          6           0       -0.193014   -0.085067   -0.195435
     43          1           0       13.660460   -0.369878    1.153582
     44          1           0       13.406247   -1.943135    1.870253
     45          1           0      -14.319295   -0.670197    1.400937
     46          1           0      -14.549037   -0.605392   -0.154647
     47          1           0       12.592186   -2.871670   -0.619708
     48          1           0      -13.248694    1.706355    1.544402
     49          1           0       13.811486   -0.047469   -1.545092
     50          1           0       12.967089   -1.662694   -2.416603
     51          1           0      -13.427195    1.503163   -1.340647
     52          1           0      -12.621093    2.717133   -0.568560
     53          1           0       11.655720   -0.990872    3.327774
     54          1           0       10.588822    0.248391    2.520869
     55          1           0       12.151377    0.685043    2.587658
     56          1           0       10.675854   -2.760402    0.683550
     57          1           0       11.301866   -2.800681    2.348656
     58          1           0        9.771158   -2.067817    1.833110
     59          1           0      -12.030265    0.105051    2.763521
     60          1           0      -10.844599   -1.487802    2.239428
     61          1           0      -12.374592   -1.592212    2.695519
     62          1           0      -13.523966   -2.828771    1.136817
     63          1           0      -11.601549   -2.905187    0.855521
     64          1           0      -12.784846   -2.475955   -0.663655
     65          1           0        8.774250   -0.337024    0.489302
     66          1           0      -10.237893   -2.134849   -0.635574
     67          1           0        9.942991    0.456433   -2.597957
     68          1           0       11.534923    1.190348   -2.824230
     69          1           0       11.141973   -0.577897   -3.250803
     70          1           0      -11.455035    1.921029   -2.679499
     71          1           0       -9.871691    0.918483   -2.158249
     72          1           0      -10.265978    2.452656   -1.221799
     73          1           0       14.925967   -3.129465   -0.020508
     74          1           0      -15.376828    1.619213    1.245646
     75          1           0       10.132913    2.351221   -0.308408
     76          1           0       -8.640428    0.573126    0.044625
     77          1           0        8.637039    4.303486   -0.316940
     78          1           0        7.025820    4.229573    0.577198
     79          1           0        8.367197    3.955677    1.573642
     80          1           0       -8.231220   -3.584656   -0.213065
     81          1           0       -8.091988   -2.875658   -1.818423
     82          1           0       -6.731888   -3.230307   -1.141153
     83          1           0        7.217000    0.599588   -0.460709
     84          1           0       -6.386672    0.395517    0.222209
     85          1           0        5.358591    3.074034    0.458606
     86          1           0       -4.991476   -2.170675   -0.537810
     87          1           0        4.660558    0.256691   -0.059016
     88          1           0       -3.978750    0.712747    0.188562
     89          1           0        3.234162    3.349300    1.404526
     90          1           0        1.791269    3.192715    0.870217
     91          1           0        2.932128    3.845891   -0.393699
     92          1           0       -2.607433   -2.868640   -0.013583
     93          1           0       -2.860039   -2.313871   -2.034561
     94          1           0       -1.245014   -2.296708   -1.128373
     95          1           0        2.235883   -0.254133   -0.135267
     96          1           0       -1.953664    1.108482    0.435542
     97          1           0        0.350466    1.908778    0.342040
     98          1           0        0.332319   -0.901940   -0.867211
 ---------------------------------------------------------------------

 SCF Done:  E(RCAM-B3LYP) =  -1706.94811352     A.U. after   14 cycles

 Excitation energies and oscillator strengths:

 Excited State   1:      Singlet-A      2.7315 eV  453.90 nm  f=3.4281  <S**2>=0.000
     155 ->158         0.19295
     156 ->157         0.66871
 This state for optimization and/or second-order correction.
 Total Energy, E(TD-HF/TD-DFT) =  -1706.84773130
 Copying the excited state density for this state as the 1-particle RhoCI density.

 The electronic state is 1-A.
 Alpha  occ. eigenvalues --  -19.21062 -19.20566 -10.31893 -10.29692 -10.28164
 Alpha  occ. eigenvalues --  -10.27962 -10.27795 -10.27572 -10.27550 -10.27178
 Alpha  occ. eigenvalues --  -10.27171 -10.26995 -10.26951 -10.26937 -10.26864
 Alpha  occ. eigenvalues --  -10.26823 -10.26786 -10.26770 -10.26755 -10.26737
 Alpha  occ. eigenvalues --  -10.26611 -10.26445 -10.26373 -10.26356 -10.26285
 Alpha  occ. eigenvalues --  -10.26076 -10.26008 -10.25963 -10.25959 -10.25916
 Alpha  occ. eigenvalues --  -10.25644 -10.25549 -10.25513 -10.25351 -10.25286
 Alpha  occ. eigenvalues --  -10.24947 -10.24916 -10.24752 -10.24207 -10.23458
 Alpha  occ. eigenvalues --  -10.23147 -10.22750  -1.08806  -1.08627  -0.93536
 Alpha  occ. eigenvalues --   -0.93350  -0.92490  -0.91524  -0.90836  -0.89661
 Alpha  occ. eigenvalues --   -0.87331  -0.87292  -0.86948  -0.84988  -0.83487
 Alpha  occ. eigenvalues --   -0.82777  -0.81643  -0.79883  -0.79346  -0.78464
 Alpha  occ. eigenvalues --   -0.77153  -0.76906  -0.76492  -0.76013  -0.75816
 Alpha  occ. eigenvalues --   -0.74936  -0.74677  -0.74142  -0.73793  -0.70027
 Alpha  occ. eigenvalues --   -0.68660  -0.67198  -0.65520  -0.64565  -0.63639
 Alpha  occ. eigenvalues --   -0.63363  -0.63210  -0.62441  -0.60790  -0.60104
 Alpha  occ. eigenvalues --   -0.58543  -0.58036  -0.57441  -0.57253  -0.55991
 Alpha  occ. eigenvalues --   -0.55824  -0.54902  -0.54764  -0.54385  -0.53153
 Alpha  occ. eigenvalues --   -0.53064  -0.52483  -0.52058  -0.51411  -0.51241
 Alpha  occ. eigenvalues --   -0.50778  -0.50198  -0.49613  -0.49585  -0.49322
 Alpha  occ. eigenvalues --   -0.48885  -0.48634  -0.48236  -0.48115  -0.48101
 Alpha  occ. eigenvalues --   -0.47784  -0.47374  -0.47088  -0.47056  -0.46311
 Alpha  occ. eigenvalues --   -0.45958  -0.45379  -0.45034  -0.44814  -0.44496
 Alpha  occ. eigenvalues --   -0.44337  -0.44256  -0.43956  -0.43832  -0.43335
 Alpha  occ. eigenvalues --   -0.43210  -0.42929  -0.42392  -0.42083  -0.41794
 Alpha  occ. eigenvalues --   -0.41354  -0.41170  -0.41009  -0.40862  -0.40771
 Alpha  occ. eigenvalues --   -0.40670  -0.40192  -0.39680  -0.39386  -0.39277
 Alpha  occ. eigenvalues --   -0.39015  -0.38918  -0.38301  -0.37953  -0.37648
 Alpha  occ. eigenvalues --   -0.37117  -0.36820  -0.36181  -0.35960  -0.35651
 Alpha  occ. eigenvalues --   -0.35311  -0.34952  -0.33815  -0.31935  -0.31328
 Alpha  occ. eigenvalues --   -0.31127  -0.29028  -0.28151  -0.26102  -0.23331
 Alpha  occ. eigenvalues --   -0.20861
 Alpha virt. eigenvalues --   -0.04185  -0.00764   0.02292   0.05378   0.06996
 Alpha virt. eigenvalues --    0.08844   0.10791   0.11649   0.11794   0.12169
 Alpha virt. eigenvalues --    0.12553   0.12886   0.12943   0.13119   0.13411

 Mulliken charges:
               1
     1  O   -0.562588
     2  O   -0.567329
     3  C   -0.038598
     4  C   -0.030133
     5  C   -0.175953
     6  C   -0.197802
     7  C    0.178866
     8  C    0.149202
     9  C    0.039586
    10  C    0.095016
    11  C   -0.194569
    12  C   -0.192991
    13  C    0.058119
    14  C    0.004446
    15  C   -0.264812
    16  C   -0.284181
    17  C   -0.297422
    18  C   -0.301588
    19  C   -0.151552
    20  C   -0.179809
    21  C   -0.360540
    22  C   -0.345319
    23  C   -0.108154
    24  C   -0.077231
    25  C    0.144361
    26  C    0.120156
    27  C   -0.367829
    28  C   -0.384881
    29  C   -0.137480
    30  C   -0.134121
    31  C   -0.097899
    32  C   -0.094922
    33  C   -0.106501
    34  C   -0.108596
    35  C    0.094754
    36  C    0.139071
    37  C   -0.364728
    38  C   -0.353095
    39  C   -0.050791
    40  C   -0.144811
    41  C   -0.079119
    42  C   -0.114661
    43  H    0.082334
    44  H    0.081209
    45  H    0.086067
    46  H    0.081751
    47  H    0.041637
    48  H    0.074456
    49  H    0.118631
    50  H    0.094199
    51  H    0.132184
    52  H    0.113187
    53  H    0.071538
    54  H    0.109476
    55  H    0.095709
    56  H    0.110437
    57  H    0.103432
    58  H    0.100464
    59  H    0.094234
    60  H    0.108013
    61  H    0.112109
    62  H    0.071155
    63  H    0.102794
    64  H    0.111064
    65  H    0.090150
    66  H    0.084757
    67  H    0.101862
    68  H    0.126395
    69  H    0.119341
    70  H    0.108514
    71  H    0.103152
    72  H    0.131082
    73  H    0.308254
    74  H    0.301108
    75  H    0.073690
    76  H    0.092262
    77  H    0.126798
    78  H    0.103923
    79  H    0.098136
    80  H    0.102189
    81  H    0.132799
    82  H    0.117471
    83  H    0.082212
    84  H    0.086417
    85  H    0.074580
    86  H    0.087078
    87  H    0.068937
    88  H    0.069551
    89  H    0.125837
    90  H    0.111462
    91  H    0.109472
    92  H    0.115479
    93  H    0.096334
    94  H    0.112122
    95  H    0.045787
    96  H    0.081641
    97  H    0.075941
    98  H    0.085611
 Sum of Mulliken charges =  -0.00000

 Dipole moment (field-independent basis, Debye):
    X=              0.1170    Y=             -1.6553    Z=              1.6473  Tot=              2.3382
 Quadrupole moment (field-independent basis, Debye-Ang):
   XX=           -283.2651   YY=           -243.2639   ZZ=           -260.1910
   XY=              6.6549   XZ=            -11.1221   YZ=              3.0526

 Normal termination of Gaussian 16 at Mon Jul  8 22:45:35 2019.
