 Gaussian 16, Revision A.03,
 Gaussian 16:  ES64L-G16RevA.03 25-Dec-2016

 -------------------------------------
 # td=(NStates=1) CAM-B3LYP/6-31G(d,p)
 -------------------------------------

 --
 TD
 --
 Symbolic Z-matrix:
 Charge =  0 Multiplicity = 1

                         Standard orientation:
 ---------------------------------------------------------------------
 Center     Atomic      Atomic             Coordinates (Angstroms)
 Number     Number       Type             X           Y           Z
 ---------------------------------------------------------------------
      1          8           0       14.524186   -2.459946   -0.271615
      2          8           0      -14.641161    2.170973    0.822048
      3          6           0       11.375534   -1.135917    1.212400
      4          6           0      -12.330185   -0.889560    0.870415
      5          6           0       12.839666   -1.467847    1.140179
      6          6           0      -13.642995   -0.149295    0.859991
      7          6           0       13.114066   -2.093839   -0.192956
      8          6           0      -13.436336    1.452569    0.826434
      9          6           0       10.985639   -0.293792   -0.058879
     10          6           0      -11.368477   -0.387215   -0.117017
     11          6           0       12.998757   -0.970831   -1.267023
     12          6           0      -12.704971    1.738945   -0.396179
     13          6           0       11.691495   -0.201133   -1.117949
     14          6           0      -11.445951    0.751867   -0.767213
     15          6           0       11.372770   -0.211197    2.607753
     16          6           0       10.517369   -2.354621    1.396399
     17          6           0      -11.696839   -0.931510    2.199609
     18          6           0      -12.710672   -2.401036    0.378432
     19          6           0        9.663106    0.352050    0.051329
     20          6           0      -10.105690   -1.109627   -0.367011
     21          6           0       11.258666    0.516356   -2.290867
     22          6           0      -10.633541    1.398008   -1.910588
     23          6           0        9.359426    1.626318   -0.102133
     24          6           0       -8.859053   -0.668233   -0.425525
     25          6           0        7.992107    2.315487    0.114360
     26          6           0       -7.606650   -1.377674   -0.579790
     27          6           0        8.137620    3.874058    0.373400
     28          6           0       -7.745759   -2.668251   -1.006770
     29          6           0        6.891269    1.575245   -0.162552
     30          6           0       -6.475926   -0.643550   -0.307180
     31          6           0        5.552970    2.076275   -0.020853
     32          6           0       -5.129049   -1.117413   -0.595226
     33          6           0        4.481246    1.354330   -0.210909
     34          6           0       -4.014308   -0.460457   -0.201243
     35          6           0        3.106146    1.731128   -0.007827
     36          6           0       -2.598055   -0.813223   -0.383612
     37          6           0        2.750062    3.062868    0.530422
     38          6           0       -2.216920   -2.103748   -0.991581
     39          6           0        2.172253    0.789251   -0.206537
     40          6           0       -1.703488    0.159474   -0.112202
     41          6           0        0.812171    0.856047   -0.133049
     42          6           0       -0.201066   -0.098325   -0.288206
     43          1           0       13.556863   -0.533997    1.306772
     44          1           0       13.038700   -2.173511    1.971654
     45          1           0      -14.107508   -0.534580    1.640787
     46          1           0      -14.248817   -0.378305   -0.153334
     47          1           0       12.222331   -2.831665   -0.319999
     48          1           0      -12.675963    1.716801    1.630442
     49          1           0       13.754878   -0.109398   -1.230302
     50          1           0       12.987650   -1.454982   -2.149422
     51          1           0      -13.190295    1.730326   -1.259218
     52          1           0      -12.288938    2.764532   -0.265172
     53          1           0       11.809246   -0.886625    3.517097
     54          1           0       10.303226    0.245475    2.691760
     55          1           0       11.844430    0.736592    2.621045
     56          1           0       10.508638   -2.752959    0.270488
     57          1           0       10.915110   -3.038572    2.078540
     58          1           0        9.442105   -2.006645    1.725574
     59          1           0      -11.454760   -0.036466    2.598798
     60          1           0      -10.775728   -1.439768    2.207501
     61          1           0      -12.287909   -1.523472    2.959127
     62          1           0      -13.504558   -2.678207    0.934781
     63          1           0      -11.897771   -2.846831    0.966989
     64          1           0      -12.805113   -2.707170   -0.600300
     65          1           0        9.029458   -0.190515    0.648170
     66          1           0      -10.237857   -2.183707   -0.612847
     67          1           0       10.390638    0.820213   -2.112591
     68          1           0       11.855362    1.461705   -2.298318
     69          1           0       11.346887   -0.110440   -3.229988
     70          1           0      -11.379091    2.040295   -2.409211
     71          1           0       -9.956181    0.726908   -2.535258
     72          1           0       -9.797443    2.213892   -1.401836
     73          1           0       14.571196   -3.145274    0.414507
     74          1           0      -15.276959    1.861071    1.613710
     75          1           0        9.996856    2.295790   -0.851148
     76          1           0       -8.822603    0.396899   -0.235900
     77          1           0        9.057878    4.261720   -0.222897
     78          1           0        7.222226    4.481614    0.363332
     79          1           0        8.462971    4.109919    1.356108
     80          1           0       -8.411303   -3.359728   -0.414516
     81          1           0       -8.033468   -2.856239   -1.962332
     82          1           0       -6.725004   -3.369526   -1.055296
     83          1           0        7.046690    0.705208   -0.482074
     84          1           0       -6.692861    0.317048    0.170892
     85          1           0        5.342289    3.136779    0.482856
     86          1           0       -5.020097   -2.121463   -1.115864
     87          1           0        4.694733    0.302474   -0.323772
     88          1           0       -4.257403    0.426232    0.336516
     89          1           0        3.321873    3.210060    1.520961
     90          1           0        1.683130    3.028336    0.822847
     91          1           0        2.859533    3.855516   -0.240764
     92          1           0       -2.315925   -2.912397   -0.103983
     93          1           0       -2.918845   -2.318031   -1.944515
     94          1           0       -0.974798   -2.231789   -1.276033
     95          1           0        2.652441   -0.140613   -0.352089
     96          1           0       -2.096719    1.079310    0.158849
     97          1           0        0.401642    1.871847    0.196842
     98          1           0        0.092313   -1.103786   -0.492899
 ---------------------------------------------------------------------

 SCF Done:  E(RCAM-B3LYP) =  -1706.93907782     A.U. after   14 cycles

 Excitation energies and oscillator strengths:

 Excited State   1:      Singlet-A      2.9157 eV  425.23 nm  f=3.5826  <S**2>=0.000
     155 ->158        -0.17017
     156 ->157         0.68126
 This state for optimization and/or second-order correction.
 Total Energy, E(TD-HF/TD-DFT) =  -1706.83192795
 Copying the excited state density for this state as the 1-particle RhoCI density.

 The electronic state is 1-A.
 Alpha  occ. eigenvalues --  -19.22121 -19.21521 -10.30781 -10.30405 -10.28955
 Alpha  occ. eigenvalues --  -10.28248 -10.27867 -10.27478 -10.27170 -10.27085
 Alpha  occ. eigenvalues --  -10.26943 -10.26919 -10.26630 -10.26577 -10.26531
 Alpha  occ. eigenvalues --  -10.26509 -10.26479 -10.26427 -10.26351 -10.26330
 Alpha  occ. eigenvalues --  -10.26131 -10.26128 -10.26110 -10.25980 -10.25888
 Alpha  occ. eigenvalues --  -10.25374 -10.25157 -10.24956 -10.24917 -10.24896
 Alpha  occ. eigenvalues --  -10.24795 -10.24676 -10.24644 -10.24621 -10.24602
 Alpha  occ. eigenvalues --  -10.24573 -10.24552 -10.24462 -10.23551 -10.23520
 Alpha  occ. eigenvalues --  -10.23354 -10.23178  -1.08675  -1.08326  -0.94477
 Alpha  occ. eigenvalues --   -0.94232  -0.92638  -0.92209  -0.90811  -0.90014
 Alpha  occ. eigenvalues --   -0.88338  -0.87004  -0.86576  -0.85461  -0.84495
 Alpha  occ. eigenvalues --   -0.83446  -0.81897  -0.80292  -0.79488  -0.77811
 Alpha  occ. eigenvalues --   -0.77743  -0.77191  -0.76799  -0.76636  -0.76085
 Alpha  occ. eigenvalues --   -0.75982  -0.75378  -0.74720  -0.74357  -0.70356
 Alpha  occ. eigenvalues --   -0.68249  -0.66953  -0.65645  -0.65210  -0.65054
 Alpha  occ. eigenvalues --   -0.63435  -0.62119  -0.61136  -0.60737  -0.60549
 Alpha  occ. eigenvalues --   -0.59297  -0.58548  -0.58222  -0.57463  -0.56255
 Alpha  occ. eigenvalues --   -0.56051  -0.55357  -0.55260  -0.54340  -0.54061
 Alpha  occ. eigenvalues --   -0.53691  -0.53037  -0.52540  -0.51787  -0.51440
 Alpha  occ. eigenvalues --   -0.51026  -0.50036  -0.49661  -0.49593  -0.49475
 Alpha  occ. eigenvalues --   -0.49240  -0.49083  -0.48766  -0.48311  -0.47861
 Alpha  occ. eigenvalues --   -0.47542  -0.47281  -0.47231  -0.46939  -0.46539
 Alpha  occ. eigenvalues --   -0.46062  -0.45931  -0.45503  -0.45363  -0.45271
 Alpha  occ. eigenvalues --   -0.44830  -0.44364  -0.44058  -0.43925  -0.43603
 Alpha  occ. eigenvalues --   -0.43483  -0.43052  -0.42986  -0.42229  -0.41965
 Alpha  occ. eigenvalues --   -0.41517  -0.41199  -0.41106  -0.40756  -0.40602
 Alpha  occ. eigenvalues --   -0.40453  -0.40172  -0.39798  -0.39448  -0.39411
 Alpha  occ. eigenvalues --   -0.39299  -0.39148  -0.38328  -0.38166  -0.37727
 Alpha  occ. eigenvalues --   -0.37259  -0.37150  -0.36514  -0.36208  -0.35438
 Alpha  occ. eigenvalues --   -0.35184  -0.34582  -0.34098  -0.32583  -0.31393
 Alpha  occ. eigenvalues --   -0.30928  -0.29766  -0.28414  -0.27043  -0.24389
 Alpha  occ. eigenvalues --   -0.21099
 Alpha virt. eigenvalues --   -0.03748   0.00236   0.03430   0.06703   0.08466
 Alpha virt. eigenvalues --    0.10000   0.10672   0.11312   0.11796   0.12147
 Alpha virt. eigenvalues --    0.12639   0.13023   0.13421   0.13646   0.13950

 Mulliken charges:
               1
     1  O   -0.553976
     2  O   -0.566782
     3  C   -0.032986
     4  C   -0.045100
     5  C   -0.157718
     6  C   -0.180225
     7  C    0.136637
     8  C    0.186433
     9  C    0.073349
    10  C    0.104522
    11  C   -0.180552
    12  C   -0.222299
    13  C    0.020512
    14  C    0.015751
    15  C   -0.306319
    16  C   -0.283721
    17  C   -0.315400
    18  C   -0.312952
    19  C   -0.122834
    20  C   -0.150660
    21  C   -0.334849
    22  C   -0.333966
    23  C   -0.111432
    24  C   -0.106553
    25  C    0.055011
    26  C    0.188117
    27  C   -0.371236
    28  C   -0.415289
    29  C   -0.066875
    30  C   -0.139051
    31  C   -0.087661
    32  C   -0.094112
    33  C   -0.106514
    34  C   -0.113055
    35  C    0.118712
    36  C    0.144811
    37  C   -0.374515
    38  C   -0.358494
    39  C   -0.096051
    40  C   -0.117516
    41  C   -0.096554
    42  C   -0.104484
    43  H    0.095342
    44  H    0.067043
    45  H    0.079152
    46  H    0.081096
    47  H    0.075195
    48  H    0.064997
    49  H    0.112066
    50  H    0.110981
    51  H    0.123025
    52  H    0.099665
    53  H    0.081665
    54  H    0.081165
    55  H    0.117302
    56  H    0.093017
    57  H    0.114146
    58  H    0.101944
    59  H    0.119097
    60  H    0.121414
    61  H    0.086943
    62  H    0.102988
    63  H    0.098562
    64  H    0.119377
    65  H    0.076429
    66  H    0.067415
    67  H    0.119102
    68  H    0.105639
    69  H    0.102328
    70  H    0.113935
    71  H    0.125444
    72  H    0.078488
    73  H    0.299709
    74  H    0.312774
    75  H    0.073429
    76  H    0.070943
    77  H    0.110272
    78  H    0.117104
    79  H    0.129654
    80  H    0.124302
    81  H    0.143555
    82  H    0.073266
    83  H    0.066232
    84  H    0.087895
    85  H    0.070823
    86  H    0.080497
    87  H    0.077427
    88  H    0.079681
    89  H    0.114966
    90  H    0.110142
    91  H    0.124984
    92  H    0.110987
    93  H    0.113075
    94  H    0.090401
    95  H    0.069225
    96  H    0.083687
    97  H    0.068429
    98  H    0.077449
 Sum of Mulliken charges =  -0.00000

 Dipole moment (field-independent basis, Debye):
    X=             -0.8438    Y=             -1.5637    Z=              2.2270  Tot=              2.8490
 Quadrupole moment (field-independent basis, Debye-Ang):
   XX=           -273.7250   YY=           -246.9463   ZZ=           -257.7915
   XY=             16.2070   XZ=             -2.0006   YZ=              2.1543

 Normal termination of Gaussian 16 at Sun Jul  7 17:31:47 2019.
