 Gaussian 16, Revision A.03,
 Gaussian 16:  ES64L-G16RevA.03 25-Dec-2016

 -------------------------------------
 # td=(NStates=1) CAM-B3LYP/6-31G(d,p)
 -------------------------------------

 --
 TD
 --
 Symbolic Z-matrix:
 Charge =  0 Multiplicity = 1

                         Standard orientation:
 ---------------------------------------------------------------------
 Center     Atomic      Atomic             Coordinates (Angstroms)
 Number     Number       Type             X           Y           Z
 ---------------------------------------------------------------------
      1          8           0       14.738888   -2.136454   -0.310995
      2          8           0      -14.658232    2.087685    0.565260
      3          6           0       11.365058   -1.071629    1.203864
      4          6           0      -12.375721   -0.727424    0.907069
      5          6           0       12.882853   -1.427636    1.030137
      6          6           0      -13.734832   -0.072115    0.845101
      7          6           0       13.287247   -1.925170   -0.278592
      8          6           0      -13.453591    1.379529    0.645632
      9          6           0       10.914089   -0.291381    0.067205
     10          6           0      -11.308980   -0.195468   -0.134678
     11          6           0       12.993582   -0.964950   -1.355405
     12          6           0      -12.739192    1.740030   -0.600343
     13          6           0       11.648788   -0.139583   -1.230332
     14          6           0      -11.541093    0.905933   -0.957769
     15          6           0       11.273675   -0.147697    2.461129
     16          6           0       10.627897   -2.462907    1.292845
     17          6           0      -11.718256   -0.788915    2.250521
     18          6           0      -12.638606   -2.361313    0.577792
     19          6           0        9.651006    0.395756    0.077769
     20          6           0      -10.160730   -1.071610   -0.465621
     21          6           0       11.152810    0.633414   -2.459781
     22          6           0      -10.697565    1.412483   -2.025866
     23          6           0        9.359191    1.687401   -0.267565
     24          6           0       -8.878021   -0.682586   -0.298036
     25          6           0        8.066935    2.299509    0.043505
     26          6           0       -7.589159   -1.367538   -0.550161
     27          6           0        8.149202    3.729897    0.349840
     28          6           0       -7.666590   -2.799306   -0.905826
     29          6           0        6.927775    1.598041   -0.068390
     30          6           0       -6.393385   -0.743364   -0.312624
     31          6           0        5.558353    2.069850    0.152845
     32          6           0       -5.128817   -1.210018   -0.536484
     33          6           0        4.437522    1.249030   -0.022830
     34          6           0       -3.984404   -0.496136   -0.246903
     35          6           0        3.038433    1.656241    0.161101
     36          6           0       -2.559787   -0.880368   -0.354380
     37          6           0        2.719881    3.111632    0.726986
     38          6           0       -2.307925   -2.325549   -0.918075
     39          6           0        2.072965    0.709276    0.045929
     40          6           0       -1.626870   -0.084475   -0.003810
     41          6           0        0.641929    0.760257    0.268259
     42          6           0       -0.115056   -0.207092   -0.119159
     43          1           0       13.611638   -0.659525    1.476957
     44          1           0       13.077111   -2.159548    1.657674
     45          1           0      -14.095875   -0.210875    1.866260
     46          1           0      -14.441239   -0.334983    0.157660
     47          1           0       12.894694   -2.903194   -0.373392
     48          1           0      -12.828092    1.724475    1.373861
     49          1           0       13.734780   -0.144270   -1.281906
     50          1           0       13.195900   -1.400303   -2.358279
     51          1           0      -13.501829    1.801512   -1.575412
     52          1           0      -12.398985    2.702706   -0.547769
     53          1           0       11.726759   -0.689150    3.377885
     54          1           0       10.216836    0.145851    2.747220
     55          1           0       11.554643    0.881890    2.328137
     56          1           0       11.051527   -3.265571    0.517859
     57          1           0       10.821129   -3.082896    2.370231
     58          1           0        9.646707   -2.316441    1.155353
     59          1           0      -11.516660    0.258361    2.496860
     60          1           0      -10.678154   -1.409035    2.290418
     61          1           0      -12.471870   -1.142473    3.035295
     62          1           0      -13.481184   -2.743617    1.008371
     63          1           0      -11.769780   -2.987875    0.878968
     64          1           0      -13.154361   -2.406022   -0.366297
     65          1           0        8.762341    0.139369    0.553408
     66          1           0      -10.351058   -2.074743   -0.719902
     67          1           0       10.141189    0.889910   -2.357078
     68          1           0       11.832336    1.369358   -2.343165
     69          1           0       11.546938   -0.134083   -3.245116
     70          1           0      -11.223982    1.701679   -2.946572
     71          1           0       -9.985148    0.697594   -2.257232
     72          1           0      -10.142119    2.372425   -1.768634
     73          1           0       14.798541   -3.214452   -0.114274
     74          1           0      -15.432074    1.850619    1.197261
     75          1           0       10.205228    2.444027   -0.644113
     76          1           0       -8.651776    0.376109    0.113643
     77          1           0        8.990560    4.327597   -0.294158
     78          1           0        7.150744    4.115101    0.378374
     79          1           0        8.876089    3.823670    1.328128
     80          1           0       -8.170794   -3.437963   -0.142096
     81          1           0       -8.011331   -2.877923   -1.987204
     82          1           0       -6.574401   -3.203210   -0.869291
     83          1           0        6.956398    0.399787   -0.573538
     84          1           0       -6.516387    0.233522   -0.021581
     85          1           0        5.417716    3.013762    0.537235
     86          1           0       -5.012494   -2.123285   -0.887696
     87          1           0        4.521188    0.260948   -0.383032
     88          1           0       -4.068673    0.548347    0.005836
     89          1           0        3.093909    3.298581    1.752290
     90          1           0        1.640763    3.260426    0.785129
     91          1           0        3.027458    4.016499    0.121003
     92          1           0       -2.657286   -3.186366   -0.197497
     93          1           0       -3.085690   -2.360187   -1.854099
     94          1           0       -1.168058   -2.618636   -1.106356
     95          1           0        2.466853   -0.150524   -0.347189
     96          1           0       -1.542468    1.018820    0.182305
     97          1           0        0.107643    1.714085    0.450235
     98          1           0        0.315237   -1.124043   -0.584485
 ---------------------------------------------------------------------

 SCF Done:  E(RCAM-B3LYP) =  -1706.93980374     A.U. after   14 cycles

 Excitation energies and oscillator strengths:

 Excited State   1:      Singlet-A      3.0050 eV  412.59 nm  f=3.6441  <S**2>=0.000
     155 ->158        -0.22476
     156 ->157         0.64288
     156 ->158        -0.12653
 This state for optimization and/or second-order correction.
 Total Energy, E(TD-HF/TD-DFT) =  -1706.82937042
 Copying the excited state density for this state as the 1-particle RhoCI density.

 The electronic state is 1-A.
 Alpha  occ. eigenvalues --  -19.21908 -19.20411 -10.29580 -10.28881 -10.28755
 Alpha  occ. eigenvalues --  -10.28653 -10.28056 -10.27992 -10.27714 -10.27573
 Alpha  occ. eigenvalues --  -10.27394 -10.27187 -10.26877 -10.26808 -10.26726
 Alpha  occ. eigenvalues --  -10.26442 -10.26414 -10.26289 -10.26275 -10.26267
 Alpha  occ. eigenvalues --  -10.26251 -10.26248 -10.26191 -10.26161 -10.26112
 Alpha  occ. eigenvalues --  -10.26059 -10.26046 -10.26035 -10.25801 -10.25743
 Alpha  occ. eigenvalues --  -10.25469 -10.25413 -10.25409 -10.25143 -10.25053
 Alpha  occ. eigenvalues --  -10.25037 -10.24686 -10.24378 -10.24202 -10.24063
 Alpha  occ. eigenvalues --  -10.23892 -10.23265  -1.08278  -1.06816  -0.93274
 Alpha  occ. eigenvalues --   -0.93065  -0.92287  -0.91459  -0.91009  -0.89603
 Alpha  occ. eigenvalues --   -0.87554  -0.87073  -0.86419  -0.85660  -0.85123
 Alpha  occ. eigenvalues --   -0.83236  -0.82103  -0.80525  -0.80091  -0.77148
 Alpha  occ. eigenvalues --   -0.77093  -0.76925  -0.76072  -0.76061  -0.75784
 Alpha  occ. eigenvalues --   -0.75323  -0.74874  -0.74574  -0.73733  -0.70395
 Alpha  occ. eigenvalues --   -0.68671  -0.67374  -0.66223  -0.64540  -0.63786
 Alpha  occ. eigenvalues --   -0.63476  -0.63140  -0.62593  -0.61697  -0.60103
 Alpha  occ. eigenvalues --   -0.59261  -0.59050  -0.58593  -0.56828  -0.56122
 Alpha  occ. eigenvalues --   -0.55962  -0.55421  -0.55137  -0.53900  -0.53675
 Alpha  occ. eigenvalues --   -0.52792  -0.52738  -0.52172  -0.51467  -0.50948
 Alpha  occ. eigenvalues --   -0.50379  -0.50017  -0.49617  -0.49352  -0.49217
 Alpha  occ. eigenvalues --   -0.49123  -0.48956  -0.48582  -0.47967  -0.47535
 Alpha  occ. eigenvalues --   -0.47230  -0.47155  -0.46869  -0.46766  -0.46322
 Alpha  occ. eigenvalues --   -0.46016  -0.45627  -0.45521  -0.44980  -0.44708
 Alpha  occ. eigenvalues --   -0.44549  -0.44217  -0.43856  -0.43387  -0.43050
 Alpha  occ. eigenvalues --   -0.42831  -0.42723  -0.42412  -0.42171  -0.41969
 Alpha  occ. eigenvalues --   -0.41554  -0.41365  -0.41306  -0.41187  -0.40664
 Alpha  occ. eigenvalues --   -0.40401  -0.40269  -0.39718  -0.39473  -0.39326
 Alpha  occ. eigenvalues --   -0.38965  -0.38804  -0.38637  -0.37609  -0.37371
 Alpha  occ. eigenvalues --   -0.37339  -0.37175  -0.36628  -0.36290  -0.36108
 Alpha  occ. eigenvalues --   -0.35121  -0.34603  -0.33907  -0.32435  -0.32171
 Alpha  occ. eigenvalues --   -0.31277  -0.29623  -0.27318  -0.25612  -0.23169
 Alpha  occ. eigenvalues --   -0.21252
 Alpha virt. eigenvalues --   -0.03378  -0.00569   0.02985   0.05843   0.07202
 Alpha virt. eigenvalues --    0.08644   0.09324   0.10710   0.11831   0.12013
 Alpha virt. eigenvalues --    0.12515   0.12717   0.12868   0.13010   0.13429

 Mulliken charges:
               1
     1  O   -0.563106
     2  O   -0.592499
     3  C   -0.003763
     4  C   -0.020460
     5  C   -0.156775
     6  C   -0.187279
     7  C    0.142473
     8  C    0.198643
     9  C    0.060781
    10  C    0.026628
    11  C   -0.208944
    12  C   -0.208463
    13  C   -0.010667
    14  C    0.089984
    15  C   -0.314604
    16  C   -0.291974
    17  C   -0.286124
    18  C   -0.324998
    19  C   -0.114995
    20  C   -0.164984
    21  C   -0.325030
    22  C   -0.366651
    23  C   -0.134047
    24  C   -0.081557
    25  C    0.112636
    26  C    0.101030
    27  C   -0.362307
    28  C   -0.375273
    29  C   -0.125672
    30  C   -0.094688
    31  C   -0.090425
    32  C   -0.058375
    33  C   -0.118003
    34  C   -0.118975
    35  C    0.107795
    36  C    0.123678
    37  C   -0.381964
    38  C   -0.355107
    39  C   -0.134082
    40  C   -0.135801
    41  C   -0.081259
    42  C   -0.069746
    43  H    0.096167
    44  H    0.085662
    45  H    0.087299
    46  H    0.108251
    47  H    0.079766
    48  H    0.083308
    49  H    0.128113
    50  H    0.099407
    51  H    0.079094
    52  H    0.118833
    53  H    0.092317
    54  H    0.094376
    55  H    0.121069
    56  H    0.088814
    57  H    0.071279
    58  H    0.122182
    59  H    0.098493
    60  H    0.103141
    61  H    0.090164
    62  H    0.101294
    63  H    0.101480
    64  H    0.098302
    65  H    0.089175
    66  H    0.098420
    67  H    0.140626
    68  H    0.139912
    69  H    0.102629
    70  H    0.110416
    71  H    0.126148
    72  H    0.106595
    73  H    0.300468
    74  H    0.305379
    75  H    0.068741
    76  H    0.070143
    77  H    0.109422
    78  H    0.116780
    79  H    0.103674
    80  H    0.122943
    81  H    0.120242
    82  H    0.091806
    83  H    0.066553
    84  H    0.069012
    85  H    0.083254
    86  H    0.066736
    87  H    0.077577
    88  H    0.079351
    89  H    0.122825
    90  H    0.107120
    91  H    0.110386
    92  H    0.112475
    93  H    0.106265
    94  H    0.103481
    95  H    0.075441
    96  H    0.074454
    97  H    0.089077
    98  H    0.078619
 Sum of Mulliken charges =  -0.00000

 Dipole moment (field-independent basis, Debye):
    X=             -0.4819    Y=             -1.8646    Z=              0.8266  Tot=              2.0957
 Quadrupole moment (field-independent basis, Debye-Ang):
   XX=           -253.2228   YY=           -242.0357   ZZ=           -262.3514
   XY=              1.3663   XZ=            -11.3347   YZ=              3.6049

 Normal termination of Gaussian 16 at Mon Jul  8 07:12:44 2019.
