 Gaussian 16, Revision A.03,
 Gaussian 16:  ES64L-G16RevA.03 25-Dec-2016

 -------------------------------------
 # td=(NStates=1) CAM-B3LYP/6-31G(d,p)
 -------------------------------------

 --
 TD
 --
 Symbolic Z-matrix:
 Charge =  0 Multiplicity = 1

                         Standard orientation:
 ---------------------------------------------------------------------
 Center     Atomic      Atomic             Coordinates (Angstroms)
 Number     Number       Type             X           Y           Z
 ---------------------------------------------------------------------
      1          8           0       14.807670   -2.096840   -0.539321
      2          8           0      -14.749424    2.068849    0.485053
      3          6           0       11.575012   -1.086241    1.199906
      4          6           0      -12.323954   -0.869013    0.732835
      5          6           0       13.056414   -1.270047    0.964233
      6          6           0      -13.732321   -0.084592    0.712523
      7          6           0       13.394709   -1.834963   -0.353804
      8          6           0      -13.553628    1.371589    0.651389
      9          6           0       10.973573   -0.244933   -0.080359
     10          6           0      -11.292197   -0.174868   -0.215400
     11          6           0       13.073715   -0.842805   -1.474086
     12          6           0      -12.715495    1.826376   -0.545348
     13          6           0       11.670522   -0.331236   -1.192033
     14          6           0      -11.578046    1.005193   -0.837003
     15          6           0       11.465110   -0.174878    2.468578
     16          6           0       10.818129   -2.349982    1.431111
     17          6           0      -11.774570   -0.726707    2.174992
     18          6           0      -12.577140   -2.328676    0.433866
     19          6           0        9.660929    0.363450    0.187852
     20          6           0      -10.109291   -1.042919   -0.437571
     21          6           0       11.123167    0.515965   -2.399062
     22          6           0      -10.578274    1.566890   -1.800875
     23          6           0        9.289554    1.669822    0.095751
     24          6           0       -8.877190   -0.556467   -0.246305
     25          6           0        8.019192    2.266698    0.221442
     26          6           0       -7.655710   -1.413540   -0.445499
     27          6           0        7.927941    3.657724    0.400406
     28          6           0       -7.798280   -2.886148   -0.894979
     29          6           0        6.922628    1.488944    0.087103
     30          6           0       -6.489998   -0.801031   -0.241608
     31          6           0        5.607634    2.000452    0.124323
     32          6           0       -5.085933   -1.273639   -0.288904
     33          6           0        4.364441    1.340292   -0.027648
     34          6           0       -4.002169   -0.426633   -0.179440
     35          6           0        3.065612    1.647649    0.159943
     36          6           0       -2.666597   -0.987661   -0.324098
     37          6           0        2.658996    3.043010    0.477233
     38          6           0       -2.431550   -2.460098   -0.751423
     39          6           0        2.121152    0.612987   -0.005777
     40          6           0       -1.621324   -0.070863   -0.160615
     41          6           0        0.633863    0.745678    0.010750
     42          6           0       -0.231926   -0.232050   -0.164801
     43          1           0       13.713176   -0.228933    1.003978
     44          1           0       13.574376   -2.019983    1.711922
     45          1           0      -14.247752   -0.370259    1.604763
     46          1           0      -14.364545   -0.306060   -0.092114
     47          1           0       12.682200   -2.835996   -0.556141
     48          1           0      -12.916991    1.773426    1.501708
     49          1           0       13.632902   -0.032506   -1.423300
     50          1           0       12.946577   -1.146927   -2.524252
     51          1           0      -13.428112    1.571354   -1.486191
     52          1           0      -12.318176    2.684085   -0.422977
     53          1           0       12.038500   -0.616259    3.322274
     54          1           0       10.390879    0.230839    2.740352
     55          1           0       11.953434    0.642304    2.203691
     56          1           0       11.009623   -3.134716    0.788290
     57          1           0       11.065449   -2.929225    2.339888
     58          1           0        9.583530   -2.074541    1.347663
     59          1           0      -11.689041    0.224971    2.442975
     60          1           0      -10.686167   -1.158893    2.335076
     61          1           0      -12.409099   -1.403751    2.955484
     62          1           0      -13.346189   -2.850690    1.169874
     63          1           0      -11.520343   -2.828234    0.748212
     64          1           0      -12.693661   -2.481970   -0.637582
     65          1           0        8.850936   -0.311112    0.321153
     66          1           0      -10.412416   -2.069681   -0.751673
     67          1           0       10.078594    0.930357   -2.224342
     68          1           0       11.650167    1.344425   -2.814884
     69          1           0       11.306151   -0.154327   -3.419410
     70          1           0      -10.885654    2.173242   -2.755192
     71          1           0       -9.810945    0.671973   -2.181832
     72          1           0       -9.864317    2.350593   -1.460626
     73          1           0       15.021463   -2.601233    0.294415
     74          1           0      -15.473337    1.922423    1.256127
     75          1           0       10.081128    2.379697   -0.229788
     76          1           0       -8.499586    0.448104    0.080879
     77          1           0        8.464307    4.176907   -0.577635
     78          1           0        6.982994    4.312913    0.440227
     79          1           0        8.614975    4.101229    1.351752
     80          1           0       -8.224813   -3.368949   -0.083674
     81          1           0       -8.620632   -2.688489   -1.718217
     82          1           0       -6.705939   -3.425837   -1.324455
     83          1           0        7.179244    0.597565    0.014209
     84          1           0       -6.563148    0.374748   -0.038702
     85          1           0        5.494325    2.993639    0.584974
     86          1           0       -5.035926   -2.280921   -0.483588
     87          1           0        4.406672    0.266274   -0.194422
     88          1           0       -4.188804    0.596338    0.078676
     89          1           0        2.969128    3.418176    1.411327
     90          1           0        1.458453    3.344720    0.113064
     91          1           0        3.085699    3.768974   -0.468969
     92          1           0       -2.804819   -3.304580   -0.003692
     93          1           0       -3.187171   -2.626035   -1.590405
     94          1           0       -1.270265   -2.552307   -0.826080
     95          1           0        2.283651   -0.589123   -0.182333
     96          1           0       -2.009920    0.901144    0.098048
     97          1           0        0.177493    1.750454    0.017362
     98          1           0        0.055574   -1.251786   -0.177330
 ---------------------------------------------------------------------

 SCF Done:  E(RCAM-B3LYP) =  -1706.88100767     A.U. after   14 cycles

 Excitation energies and oscillator strengths:

 Excited State   1:      Singlet-A      2.4905 eV  497.82 nm  f=3.5629  <S**2>=0.000
     155 ->158        -0.15186
     156 ->157         0.68866
 This state for optimization and/or second-order correction.
 Total Energy, E(TD-HF/TD-DFT) =  -1706.78948273
 Copying the excited state density for this state as the 1-particle RhoCI density.

 The electronic state is 1-A.
 Alpha  occ. eigenvalues --  -19.21869 -19.21756 -10.31698 -10.29927 -10.28904
 Alpha  occ. eigenvalues --  -10.28533 -10.28286 -10.28222 -10.28145 -10.28008
 Alpha  occ. eigenvalues --  -10.27985 -10.27863 -10.27641 -10.27568 -10.26936
 Alpha  occ. eigenvalues --  -10.26867 -10.26709 -10.26684 -10.26611 -10.26586
 Alpha  occ. eigenvalues --  -10.26570 -10.26553 -10.26509 -10.26452 -10.26348
 Alpha  occ. eigenvalues --  -10.26348 -10.26247 -10.26168 -10.26142 -10.26119
 Alpha  occ. eigenvalues --  -10.25882 -10.25766 -10.25682 -10.25674 -10.25526
 Alpha  occ. eigenvalues --  -10.25498 -10.25029 -10.24687 -10.24233 -10.24053
 Alpha  occ. eigenvalues --  -10.24038 -10.23934  -1.08783  -1.08602  -0.94038
 Alpha  occ. eigenvalues --   -0.93389  -0.93012  -0.91969  -0.91092  -0.90057
 Alpha  occ. eigenvalues --   -0.87635  -0.87343  -0.87090  -0.85789  -0.84875
 Alpha  occ. eigenvalues --   -0.82854  -0.81783  -0.80146  -0.79531  -0.77480
 Alpha  occ. eigenvalues --   -0.76763  -0.76552  -0.76191  -0.76079  -0.75999
 Alpha  occ. eigenvalues --   -0.75538  -0.74884  -0.74603  -0.73595  -0.71050
 Alpha  occ. eigenvalues --   -0.69016  -0.67577  -0.66100  -0.65446  -0.63667
 Alpha  occ. eigenvalues --   -0.63159  -0.62881  -0.62147  -0.60846  -0.60011
 Alpha  occ. eigenvalues --   -0.59142  -0.58439  -0.58076  -0.57409  -0.56149
 Alpha  occ. eigenvalues --   -0.55791  -0.55658  -0.55314  -0.54875  -0.54156
 Alpha  occ. eigenvalues --   -0.53200  -0.52853  -0.52453  -0.51999  -0.51366
 Alpha  occ. eigenvalues --   -0.50717  -0.50310  -0.50153  -0.49566  -0.49076
 Alpha  occ. eigenvalues --   -0.49001  -0.48943  -0.48410  -0.47945  -0.47548
 Alpha  occ. eigenvalues --   -0.47174  -0.46982  -0.46901  -0.46434  -0.46408
 Alpha  occ. eigenvalues --   -0.46098  -0.45998  -0.45023  -0.44535  -0.44448
 Alpha  occ. eigenvalues --   -0.44378  -0.44139  -0.43885  -0.43725  -0.43160
 Alpha  occ. eigenvalues --   -0.42568  -0.42491  -0.42115  -0.41760  -0.41386
 Alpha  occ. eigenvalues --   -0.41330  -0.41089  -0.40804  -0.40659  -0.40628
 Alpha  occ. eigenvalues --   -0.40244  -0.39946  -0.39637  -0.39541  -0.39458
 Alpha  occ. eigenvalues --   -0.38944  -0.38753  -0.38362  -0.38267  -0.38154
 Alpha  occ. eigenvalues --   -0.37911  -0.37458  -0.36978  -0.35953  -0.35550
 Alpha  occ. eigenvalues --   -0.35138  -0.34272  -0.33454  -0.32461  -0.31917
 Alpha  occ. eigenvalues --   -0.31448  -0.29846  -0.28765  -0.26855  -0.24095
 Alpha  occ. eigenvalues --   -0.20393
 Alpha virt. eigenvalues --   -0.05300  -0.00516   0.03213   0.05841   0.07834
 Alpha virt. eigenvalues --    0.08751   0.10315   0.10739   0.11134   0.11240
 Alpha virt. eigenvalues --    0.11328   0.12036   0.12779   0.12981   0.13174

 Mulliken charges:
               1
     1  O   -0.555113
     2  O   -0.569473
     3  C    0.008283
     4  C   -0.014318
     5  C   -0.189414
     6  C   -0.179162
     7  C    0.164283
     8  C    0.176756
     9  C    0.022661
    10  C    0.026918
    11  C   -0.167631
    12  C   -0.180864
    13  C    0.039806
    14  C    0.081634
    15  C   -0.292334
    16  C   -0.285591
    17  C   -0.284782
    18  C   -0.304564
    19  C   -0.131331
    20  C   -0.173634
    21  C   -0.365606
    22  C   -0.381440
    23  C   -0.106825
    24  C   -0.053881
    25  C    0.146626
    26  C    0.099540
    27  C   -0.389522
    28  C   -0.346438
    29  C   -0.021495
    30  C   -0.153511
    31  C   -0.120435
    32  C   -0.076912
    33  C   -0.106210
    34  C   -0.102586
    35  C    0.139460
    36  C    0.102225
    37  C   -0.367115
    38  C   -0.359264
    39  C   -0.145995
    40  C   -0.132897
    41  C   -0.079764
    42  C   -0.057369
    43  H    0.090009
    44  H    0.063963
    45  H    0.083958
    46  H    0.101319
    47  H    0.054881
    48  H    0.060067
    49  H    0.134798
    50  H    0.111642
    51  H    0.105547
    52  H    0.112690
    53  H    0.091168
    54  H    0.093349
    55  H    0.113837
    56  H    0.108369
    57  H    0.097153
    58  H    0.074579
    59  H    0.114878
    60  H    0.089870
    61  H    0.070162
    62  H    0.097594
    63  H    0.080054
    64  H    0.112549
    65  H    0.100805
    66  H    0.108946
    67  H    0.114750
    68  H    0.119052
    69  H    0.063222
    70  H    0.094065
    71  H    0.100426
    72  H    0.109781
    73  H    0.298463
    74  H    0.305370
    75  H    0.085283
    76  H    0.100821
    77  H    0.093234
    78  H    0.126662
    79  H    0.093158
    80  H    0.141164
    81  H    0.114142
    82  H    0.087147
    83  H    0.033820
    84  H    0.050354
    85  H    0.077042
    86  H    0.066974
    87  H    0.073929
    88  H    0.094590
    89  H    0.140927
    90  H    0.088584
    91  H    0.090394
    92  H    0.107825
    93  H    0.125929
    94  H    0.107353
    95  H    0.085709
    96  H    0.073873
    97  H    0.077264
    98  H    0.073791
 Sum of Mulliken charges =  -0.00000

 Dipole moment (field-independent basis, Debye):
    X=             -1.1691    Y=             -0.4669    Z=              2.3197  Tot=              2.6393
 Quadrupole moment (field-independent basis, Debye-Ang):
   XX=           -264.8609   YY=           -246.8601   ZZ=           -265.6691
   XY=             14.1737   XZ=              0.2899   YZ=             -0.3765

 Normal termination of Gaussian 16 at Wed Jun 26 20:51:38 2019.
