 Gaussian 16, Revision A.03,
 Gaussian 16:  ES64L-G16RevA.03 25-Dec-2016

 -------------------------------------
 # td=(NStates=1) CAM-B3LYP/6-31G(d,p)
 -------------------------------------

 --
 TD
 --
 Symbolic Z-matrix:
 Charge =  0 Multiplicity = 1

                         Standard orientation:
 ---------------------------------------------------------------------
 Center     Atomic      Atomic             Coordinates (Angstroms)
 Number     Number       Type             X           Y           Z
 ---------------------------------------------------------------------
      1          8           0       14.762609   -2.089328   -0.519951
      2          8           0      -14.913676    1.914263    0.340671
      3          6           0       11.465145   -1.093152    1.194253
      4          6           0      -12.417699   -0.843457    0.825804
      5          6           0       12.929292   -1.497358    0.934889
      6          6           0      -13.808773   -0.221990    0.763319
      7          6           0       13.360519   -1.933447   -0.460841
      8          6           0      -13.711977    1.328068    0.622060
      9          6           0       10.982734   -0.338446   -0.052098
     10          6           0      -11.396187   -0.312928   -0.141302
     11          6           0       13.000823   -0.906672   -1.410931
     12          6           0      -12.862962    1.664622   -0.667018
     13          6           0       11.741661   -0.202092   -1.165839
     14          6           0      -11.620512    0.768318   -0.876818
     15          6           0       11.457486   -0.294885    2.530659
     16          6           0       10.550521   -2.399028    1.222325
     17          6           0      -11.831269   -0.609953    2.213107
     18          6           0      -12.591663   -2.480861    0.644960
     19          6           0        9.597888    0.302391    0.190638
     20          6           0      -10.134457   -1.099950   -0.333391
     21          6           0       11.192939    0.464965   -2.401214
     22          6           0      -10.698715    1.336295   -2.051079
     23          6           0        9.390567    1.547138   -0.001096
     24          6           0       -8.842774   -0.522884   -0.245328
     25          6           0        8.088036    2.270219    0.149546
     26          6           0       -7.592632   -1.259896   -0.431718
     27          6           0        8.234930    3.616132    0.613274
     28          6           0       -7.595687   -2.836493   -0.686657
     29          6           0        6.931795    1.579096   -0.071857
     30          6           0       -6.418959   -0.636358   -0.269911
     31          6           0        5.537765    2.137100    0.149062
     32          6           0       -4.990606   -1.047896   -0.484122
     33          6           0        4.483003    1.271888    0.141044
     34          6           0       -3.987833   -0.216433   -0.335303
     35          6           0        3.097544    1.725426    0.158856
     36          6           0       -2.557339   -0.751067   -0.438784
     37          6           0        2.847221    3.073029    0.567781
     38          6           0       -2.332321   -2.260904   -0.693915
     39          6           0        2.130822    0.810351    0.045530
     40          6           0       -1.651049    0.169083   -0.172324
     41          6           0        0.675180    0.932730   -0.001142
     42          6           0       -0.177901   -0.042915   -0.211011
     43          1           0       13.606128   -0.564645    1.068721
     44          1           0       13.432281   -2.168093    1.672056
     45          1           0      -14.457383   -0.374416    1.633643
     46          1           0      -14.171188   -0.616769   -0.254242
     47          1           0       12.848641   -2.820440   -0.743170
     48          1           0      -13.097007    1.615493    1.474948
     49          1           0       13.775984   -0.180977   -1.231191
     50          1           0       12.877910   -1.431511   -2.402402
     51          1           0      -13.366151    1.359082   -1.509526
     52          1           0      -12.748254    2.690858   -0.795208
     53          1           0       11.981397   -0.830893    3.274311
     54          1           0       10.322399   -0.150435    2.877454
     55          1           0       12.041718    0.584095    2.476871
     56          1           0       10.828359   -3.169584    0.604543
     57          1           0       10.879568   -2.591219    2.107078
     58          1           0        9.468137   -2.176018    1.254233
     59          1           0      -11.828185    0.267769    2.385837
     60          1           0      -10.799005   -1.045339    2.557531
     61          1           0      -12.512517   -0.930150    3.001869
     62          1           0      -13.349966   -2.915811    1.466862
     63          1           0      -11.442515   -3.023181    0.769044
     64          1           0      -13.004626   -2.699104   -0.419742
     65          1           0        8.690211   -0.514632    0.319465
     66          1           0      -10.144242   -2.255384   -0.405525
     67          1           0       10.119206    0.759076   -2.199890
     68          1           0       11.761792    1.316101   -2.740878
     69          1           0       11.406374   -0.140971   -3.340124
     70          1           0      -11.310420    1.732163   -2.950552
     71          1           0      -10.015910    0.544538   -2.285016
     72          1           0      -10.251450    2.329993   -1.503649
     73          1           0       14.991914   -2.786626    0.181116
     74          1           0      -15.776944    1.997864    1.029646
     75          1           0       10.374721    2.219931   -0.180634
     76          1           0       -8.748836    0.622464   -0.100054
     77          1           0        8.520257    4.304553   -0.301791
     78          1           0        7.132125    4.126562    0.861324
     79          1           0        8.863049    3.797439    1.625198
     80          1           0       -8.028174   -3.377062    0.015589
     81          1           0       -7.711202   -3.210158   -1.905814
     82          1           0       -6.513280   -3.301353   -0.760617
     83          1           0        6.822199    0.555435   -0.441556
     84          1           0       -6.428506    0.448982    0.178486
     85          1           0        5.480678    3.263218    0.269790
     86          1           0       -4.782383   -2.119629   -0.668980
     87          1           0        4.588451    0.164366   -0.161837
     88          1           0       -4.168889    0.864625   -0.160389
     89          1           0        3.278187    3.206381    1.637532
     90          1           0        1.685958    3.303903    0.629028
     91          1           0        3.093329    3.864478   -0.189617
     92          1           0       -2.509036   -3.009270    0.056688
     93          1           0       -2.970074   -2.705493   -1.377245
     94          1           0       -1.373648   -2.495480   -1.103754
     95          1           0        2.472413   -0.237065   -0.079169
     96          1           0       -2.054128    1.148942    0.076365
     97          1           0        0.360597    1.968976    0.347111
     98          1           0        0.221134   -0.941754   -0.385983
 ---------------------------------------------------------------------

 SCF Done:  E(RCAM-B3LYP) =  -1706.93840467     A.U. after   13 cycles

 Excitation energies and oscillator strengths:

 Excited State   1:      Singlet-A      3.3628 eV  368.69 nm  f=3.6604  <S**2>=0.000
     155 ->158         0.22364
     156 ->157         0.65500
 This state for optimization and/or second-order correction.
 Total Energy, E(TD-HF/TD-DFT) =  -1706.81482384
 Copying the excited state density for this state as the 1-particle RhoCI density.

 The electronic state is 1-A.
 Alpha  occ. eigenvalues --  -19.22141 -19.21695 -10.30510 -10.28871 -10.28404
 Alpha  occ. eigenvalues --  -10.27827 -10.27659 -10.27646 -10.27635 -10.27388
 Alpha  occ. eigenvalues --  -10.27258 -10.27197 -10.27118 -10.27048 -10.26936
 Alpha  occ. eigenvalues --  -10.26719 -10.26682 -10.26584 -10.26449 -10.26387
 Alpha  occ. eigenvalues --  -10.26375 -10.26331 -10.26312 -10.26268 -10.26118
 Alpha  occ. eigenvalues --  -10.26025 -10.25888 -10.25839 -10.25651 -10.25550
 Alpha  occ. eigenvalues --  -10.25465 -10.25314 -10.25279 -10.25193 -10.25151
 Alpha  occ. eigenvalues --  -10.25119 -10.25051 -10.24357 -10.23942 -10.23542
 Alpha  occ. eigenvalues --  -10.22733 -10.22144  -1.09384  -1.08635  -0.93348
 Alpha  occ. eigenvalues --   -0.92677  -0.92186  -0.91187  -0.90430  -0.89083
 Alpha  occ. eigenvalues --   -0.87292  -0.86987  -0.85555  -0.85096  -0.83802
 Alpha  occ. eigenvalues --   -0.82572  -0.81724  -0.80379  -0.78863  -0.78208
 Alpha  occ. eigenvalues --   -0.77450  -0.76296  -0.76098  -0.75664  -0.75294
 Alpha  occ. eigenvalues --   -0.74847  -0.74543  -0.74156  -0.73426  -0.69408
 Alpha  occ. eigenvalues --   -0.67985  -0.66956  -0.65469  -0.64120  -0.63833
 Alpha  occ. eigenvalues --   -0.63386  -0.61932  -0.61527  -0.60631  -0.59591
 Alpha  occ. eigenvalues --   -0.59335  -0.58627  -0.58441  -0.57278  -0.55793
 Alpha  occ. eigenvalues --   -0.55146  -0.54325  -0.54035  -0.53764  -0.53428
 Alpha  occ. eigenvalues --   -0.52675  -0.52392  -0.52019  -0.51441  -0.50988
 Alpha  occ. eigenvalues --   -0.50496  -0.49741  -0.49431  -0.49106  -0.48756
 Alpha  occ. eigenvalues --   -0.48528  -0.48260  -0.48204  -0.47848  -0.47531
 Alpha  occ. eigenvalues --   -0.47405  -0.47070  -0.46905  -0.46770  -0.45895
 Alpha  occ. eigenvalues --   -0.45830  -0.45669  -0.45265  -0.44852  -0.44750
 Alpha  occ. eigenvalues --   -0.44154  -0.43951  -0.43476  -0.43128  -0.43036
 Alpha  occ. eigenvalues --   -0.42828  -0.41942  -0.41736  -0.41591  -0.41481
 Alpha  occ. eigenvalues --   -0.41286  -0.40983  -0.40839  -0.40648  -0.40475
 Alpha  occ. eigenvalues --   -0.40237  -0.39793  -0.39717  -0.39489  -0.38992
 Alpha  occ. eigenvalues --   -0.38765  -0.38290  -0.38105  -0.37922  -0.37722
 Alpha  occ. eigenvalues --   -0.37487  -0.36877  -0.36443  -0.36096  -0.35671
 Alpha  occ. eigenvalues --   -0.34865  -0.34011  -0.33326  -0.32251  -0.31740
 Alpha  occ. eigenvalues --   -0.30939  -0.29252  -0.27716  -0.26774  -0.24144
 Alpha  occ. eigenvalues --   -0.22092
 Alpha virt. eigenvalues --   -0.02473   0.00422   0.03803   0.07032   0.08567
 Alpha virt. eigenvalues --    0.08900   0.09815   0.11039   0.11756   0.11846
 Alpha virt. eigenvalues --    0.12143   0.12420   0.13184   0.13391   0.13513

 Mulliken charges:
               1
     1  O   -0.556818
     2  O   -0.577488
     3  C   -0.016316
     4  C   -0.031618
     5  C   -0.218188
     6  C   -0.188129
     7  C    0.170439
     8  C    0.198739
     9  C    0.024916
    10  C    0.084656
    11  C   -0.213879
    12  C   -0.219584
    13  C    0.068321
    14  C    0.013197
    15  C   -0.306728
    16  C   -0.300126
    17  C   -0.273785
    18  C   -0.281876
    19  C   -0.100101
    20  C   -0.161570
    21  C   -0.369077
    22  C   -0.335392
    23  C   -0.101712
    24  C   -0.105583
    25  C    0.108297
    26  C    0.117722
    27  C   -0.369871
    28  C   -0.358140
    29  C   -0.116571
    30  C   -0.144934
    31  C   -0.096395
    32  C   -0.072552
    33  C   -0.125804
    34  C   -0.103970
    35  C    0.155339
    36  C    0.118960
    37  C   -0.384966
    38  C   -0.392578
    39  C   -0.145275
    40  C   -0.134479
    41  C   -0.063114
    42  C   -0.074341
    43  H    0.086196
    44  H    0.063037
    45  H    0.084602
    46  H    0.092302
    47  H    0.076576
    48  H    0.076830
    49  H    0.128358
    50  H    0.104833
    51  H    0.129586
    52  H    0.108702
    53  H    0.108547
    54  H    0.093950
    55  H    0.117474
    56  H    0.110037
    57  H    0.113164
    58  H    0.099344
    59  H    0.103968
    60  H    0.093700
    61  H    0.078540
    62  H    0.088486
    63  H    0.070608
    64  H    0.095140
    65  H    0.082945
    66  H    0.091485
    67  H    0.117843
    68  H    0.110668
    69  H    0.092289
    70  H    0.101262
    71  H    0.132997
    72  H    0.093312
    73  H    0.305954
    74  H    0.312784
    75  H    0.087885
    76  H    0.092229
    77  H    0.120177
    78  H    0.079310
    79  H    0.120360
    80  H    0.137965
    81  H    0.085616
    82  H    0.090941
    83  H    0.087902
    84  H    0.068685
    85  H    0.095958
    86  H    0.075307
    87  H    0.082306
    88  H    0.090934
    89  H    0.124600
    90  H    0.088286
    91  H    0.119165
    92  H    0.129442
    93  H    0.125522
    94  H    0.116228
    95  H    0.064200
    96  H    0.084984
    97  H    0.070743
    98  H    0.076105
 Sum of Mulliken charges =  -0.00000

 Dipole moment (field-independent basis, Debye):
    X=             -0.7582    Y=             -0.6469    Z=              2.3796  Tot=              2.5799
 Quadrupole moment (field-independent basis, Debye-Ang):
   XX=           -251.5358   YY=           -241.4229   ZZ=           -262.1875
   XY=             -9.2043   XZ=             -1.8084   YZ=              3.0891

 Normal termination of Gaussian 16 at Tue Jul  2 04:00:42 2019.
