 Gaussian 16, Revision A.03,
 Gaussian 16:  ES64L-G16RevA.03 25-Dec-2016

 -------------------------------------
 # td=(NStates=1) CAM-B3LYP/6-31G(d,p)
 -------------------------------------

 --
 TD
 --
 Symbolic Z-matrix:
 Charge =  0 Multiplicity = 1

                         Standard orientation:
 ---------------------------------------------------------------------
 Center     Atomic      Atomic             Coordinates (Angstroms)
 Number     Number       Type             X           Y           Z
 ---------------------------------------------------------------------
      1          8           0       14.821041   -2.177553   -0.478471
      2          8           0      -14.840390    1.895740    0.590214
      3          6           0       11.487371   -1.100610    1.290152
      4          6           0      -12.088159   -0.764742    0.985033
      5          6           0       13.126325   -1.348993    1.127273
      6          6           0      -13.584065   -0.227087    0.951186
      7          6           0       13.381947   -1.842137   -0.245705
      8          6           0      -13.597065    1.296628    0.761525
      9          6           0       10.962908   -0.271314    0.021638
     10          6           0      -11.277197   -0.249978   -0.201680
     11          6           0       13.092748   -0.755363   -1.226686
     12          6           0      -12.860812    1.556532   -0.574194
     13          6           0       11.678919   -0.170612   -1.105034
     14          6           0      -11.645351    0.774387   -0.971432
     15          6           0       11.341020   -0.205742    2.531393
     16          6           0       10.710688   -2.334452    1.427019
     17          6           0      -11.443213   -0.576665    2.385852
     18          6           0      -12.567485   -2.394591    0.837989
     19          6           0        9.595275    0.277459    0.123012
     20          6           0       -9.977905   -1.044449   -0.288366
     21          6           0       11.182536    0.491009   -2.396462
     22          6           0      -10.864946    1.260236   -2.036174
     23          6           0        9.283196    1.594521   -0.005714
     24          6           0       -8.810800   -0.544067   -0.323681
     25          6           0        7.964747    2.110938    0.151800
     26          6           0       -7.570826   -1.259943   -0.557970
     27          6           0        8.023993    3.651179    0.329152
     28          6           0       -7.704377   -2.727553   -0.656526
     29          6           0        6.761308    1.466911   -0.035685
     30          6           0       -6.396404   -0.528623   -0.506088
     31          6           0        5.538856    2.011753    0.237014
     32          6           0       -5.092386   -1.096153   -0.709703
     33          6           0        4.442641    1.230981   -0.195662
     34          6           0       -4.017871   -0.368799   -0.521047
     35          6           0        3.057218    1.595460    0.159036
     36          6           0       -2.644804   -0.812977   -0.638917
     37          6           0        2.762961    3.045727    0.764723
     38          6           0       -2.432611   -2.243854   -1.110901
     39          6           0        2.068150    0.744032   -0.187318
     40          6           0       -1.702737    0.097501   -0.333720
     41          6           0        0.635686    0.929980   -0.012368
     42          6           0       -0.269463   -0.065404   -0.383472
     43          1           0       13.754726   -0.473373    1.352554
     44          1           0       13.330613   -2.102311    1.877548
     45          1           0      -14.159203   -0.495878    2.048652
     46          1           0      -14.173499   -0.589863    0.187968
     47          1           0       12.874205   -2.708192   -0.438635
     48          1           0      -13.165561    1.781371    1.641528
     49          1           0       13.881007    0.013381   -1.006594
     50          1           0       13.069971   -1.004196   -2.156936
     51          1           0      -13.536453    1.311921   -1.422143
     52          1           0      -12.651270    2.598237   -0.566201
     53          1           0       11.731371   -0.909185    3.360962
     54          1           0       10.276164    0.113762    2.844732
     55          1           0       11.710192    0.727022    2.239037
     56          1           0       10.574282   -2.918082    0.260918
     57          1           0       10.859931   -2.991019    2.263149
     58          1           0        9.634562   -1.942722    1.620729
     59          1           0      -11.076887    0.634309    2.675021
     60          1           0      -10.549994   -1.062004    2.457263
     61          1           0      -12.051330   -0.935290    3.100439
     62          1           0      -13.154392   -2.724470    1.708876
     63          1           0      -11.627690   -2.941777    0.996942
     64          1           0      -12.935799   -2.554181   -0.069348
     65          1           0        8.894541   -0.329769    0.888820
     66          1           0      -10.249818   -2.057822   -0.425943
     67          1           0       10.010513    0.632721   -2.547356
     68          1           0       11.864067    1.209881   -2.805563
     69          1           0       11.324537   -0.351040   -3.156264
     70          1           0      -11.387698    1.436179   -3.008295
     71          1           0       -9.875566    0.592498   -2.349240
     72          1           0      -10.378975    2.346157   -2.006184
     73          1           0       15.049201   -3.180041   -0.070785
     74          1           0      -15.475072    1.740552    1.334799
     75          1           0        9.983581    2.235045   -0.349418
     76          1           0       -8.753805    0.593249   -0.146352
     77          1           0        8.527552    4.119853   -0.591910
     78          1           0        6.991301    4.070192    0.288197
     79          1           0        8.548085    4.081784    1.211845
     80          1           0       -8.240955   -3.224067    0.078698
     81          1           0       -7.933994   -3.228110   -1.695119
     82          1           0       -6.791772   -3.391535   -0.671153
     83          1           0        6.812563    0.445967   -0.151355
     84          1           0       -6.539496    0.494731   -0.121234
     85          1           0        5.455401    3.007953    0.596225
     86          1           0       -5.007436   -2.250326   -1.121238
     87          1           0        4.638972    0.250213   -0.541407
     88          1           0       -4.232054    0.566691    0.039044
     89          1           0        3.268728    3.202410    1.792300
     90          1           0        1.637601    3.099260    1.113704
     91          1           0        3.097624    3.979058    0.073173
     92          1           0       -3.190145   -2.809355   -0.589954
     93          1           0       -2.808933   -2.052262   -2.227971
     94          1           0       -1.450079   -2.871015   -0.997521
     95          1           0        2.217896   -0.184653   -0.681561
     96          1           0       -2.170663    1.119334    0.146046
     97          1           0        0.288979    1.884144    0.517214
     98          1           0        0.115087   -0.957594   -0.850403
 ---------------------------------------------------------------------

 SCF Done:  E(RCAM-B3LYP) =  -1706.96839555     A.U. after   14 cycles

 Excitation energies and oscillator strengths:

 Excited State   1:      Singlet-A      2.6437 eV  468.98 nm  f=3.5287  <S**2>=0.000
     155 ->158        -0.17625
     156 ->157         0.68009
 This state for optimization and/or second-order correction.
 Total Energy, E(TD-HF/TD-DFT) =  -1706.87124194
 Copying the excited state density for this state as the 1-particle RhoCI density.

 The electronic state is 1-A.
 Alpha  occ. eigenvalues --  -19.21050 -19.20475 -10.29481 -10.29211 -10.28589
 Alpha  occ. eigenvalues --  -10.28246 -10.28129 -10.27888 -10.27501 -10.27248
 Alpha  occ. eigenvalues --  -10.27223 -10.27100 -10.26890 -10.26800 -10.26692
 Alpha  occ. eigenvalues --  -10.26666 -10.26651 -10.26641 -10.26598 -10.26392
 Alpha  occ. eigenvalues --  -10.26338 -10.26248 -10.26145 -10.25974 -10.25787
 Alpha  occ. eigenvalues --  -10.25755 -10.25689 -10.25681 -10.25663 -10.25630
 Alpha  occ. eigenvalues --  -10.25360 -10.25303 -10.25189 -10.25123 -10.25094
 Alpha  occ. eigenvalues --  -10.24930 -10.24835 -10.24461 -10.24423 -10.24358
 Alpha  occ. eigenvalues --  -10.24210 -10.23898  -1.09021  -1.04631  -0.93059
 Alpha  occ. eigenvalues --   -0.93001  -0.92091  -0.91497  -0.90398  -0.89508
 Alpha  occ. eigenvalues --   -0.87155  -0.86975  -0.86354  -0.85752  -0.84230
 Alpha  occ. eigenvalues --   -0.83051  -0.81877  -0.80058  -0.79628  -0.77442
 Alpha  occ. eigenvalues --   -0.76661  -0.76436  -0.75853  -0.75558  -0.75406
 Alpha  occ. eigenvalues --   -0.75348  -0.74902  -0.74405  -0.73731  -0.70036
 Alpha  occ. eigenvalues --   -0.68461  -0.67174  -0.65684  -0.64951  -0.64296
 Alpha  occ. eigenvalues --   -0.63158  -0.62603  -0.61038  -0.60916  -0.60265
 Alpha  occ. eigenvalues --   -0.59466  -0.58745  -0.58114  -0.57603  -0.55454
 Alpha  occ. eigenvalues --   -0.55199  -0.55054  -0.54653  -0.54075  -0.53516
 Alpha  occ. eigenvalues --   -0.52849  -0.52069  -0.51922  -0.51021  -0.50767
 Alpha  occ. eigenvalues --   -0.50619  -0.50291  -0.49462  -0.49305  -0.48567
 Alpha  occ. eigenvalues --   -0.48296  -0.48159  -0.48016  -0.47890  -0.47622
 Alpha  occ. eigenvalues --   -0.46965  -0.46759  -0.46627  -0.46397  -0.46224
 Alpha  occ. eigenvalues --   -0.45842  -0.45610  -0.45364  -0.44946  -0.44418
 Alpha  occ. eigenvalues --   -0.44231  -0.44093  -0.43432  -0.43235  -0.43022
 Alpha  occ. eigenvalues --   -0.42824  -0.42582  -0.42532  -0.42015  -0.41724
 Alpha  occ. eigenvalues --   -0.41457  -0.41137  -0.40805  -0.40797  -0.40699
 Alpha  occ. eigenvalues --   -0.40468  -0.40363  -0.40095  -0.39519  -0.39267
 Alpha  occ. eigenvalues --   -0.38828  -0.38706  -0.38662  -0.38199  -0.37573
 Alpha  occ. eigenvalues --   -0.37262  -0.36958  -0.36244  -0.36135  -0.35445
 Alpha  occ. eigenvalues --   -0.34760  -0.34436  -0.33987  -0.32681  -0.31595
 Alpha  occ. eigenvalues --   -0.30490  -0.29296  -0.27996  -0.26623  -0.23715
 Alpha  occ. eigenvalues --   -0.20365
 Alpha virt. eigenvalues --   -0.04255  -0.00467   0.03168   0.06416   0.07839
 Alpha virt. eigenvalues --    0.09699   0.10335   0.11500   0.11721   0.11918
 Alpha virt. eigenvalues --    0.12160   0.12680   0.13009   0.13280   0.13737

 Mulliken charges:
               1
     1  O   -0.588086
     2  O   -0.564998
     3  C   -0.023717
     4  C   -0.030567
     5  C   -0.173284
     6  C   -0.168928
     7  C    0.161919
     8  C    0.177078
     9  C    0.040353
    10  C    0.005123
    11  C   -0.171360
    12  C   -0.229909
    13  C    0.027920
    14  C    0.136120
    15  C   -0.288095
    16  C   -0.282147
    17  C   -0.279882
    18  C   -0.321627
    19  C   -0.144389
    20  C   -0.126261
    21  C   -0.373119
    22  C   -0.400432
    23  C   -0.067681
    24  C   -0.090027
    25  C    0.056374
    26  C    0.132953
    27  C   -0.377244
    28  C   -0.391919
    29  C   -0.088469
    30  C   -0.142035
    31  C   -0.065535
    32  C   -0.084274
    33  C   -0.126236
    34  C   -0.105354
    35  C    0.095968
    36  C    0.117531
    37  C   -0.359308
    38  C   -0.365657
    39  C   -0.113903
    40  C   -0.134403
    41  C   -0.074246
    42  C   -0.105223
    43  H    0.105359
    44  H    0.082126
    45  H    0.032313
    46  H    0.105508
    47  H    0.089262
    48  H    0.073342
    49  H    0.116486
    50  H    0.099901
    51  H    0.115755
    52  H    0.115748
    53  H    0.090757
    54  H    0.087715
    55  H    0.120743
    56  H    0.068669
    57  H    0.110254
    58  H    0.095346
    59  H    0.060205
    60  H    0.119036
    61  H    0.111549
    62  H    0.107112
    63  H    0.088881
    64  H    0.121952
    65  H    0.077496
    66  H    0.096531
    67  H    0.120760
    68  H    0.126731
    69  H    0.099005
    70  H    0.107307
    71  H    0.106870
    72  H    0.098378
    73  H    0.294744
    74  H    0.304261
    75  H    0.092060
    76  H    0.084683
    77  H    0.108727
    78  H    0.097442
    79  H    0.118683
    80  H    0.135330
    81  H    0.104118
    82  H    0.097043
    83  H    0.080692
    84  H    0.088893
    85  H    0.093187
    86  H    0.080767
    87  H    0.087744
    88  H    0.087016
    89  H    0.112906
    90  H    0.099121
    91  H    0.114152
    92  H    0.129768
    93  H    0.119419
    94  H    0.111914
    95  H    0.079207
    96  H    0.068280
    97  H    0.079464
    98  H    0.086263
 Sum of Mulliken charges =  -0.00000

 Dipole moment (field-independent basis, Debye):
    X=             -0.2449    Y=             -2.1859    Z=              1.8412  Tot=              2.8685
 Quadrupole moment (field-independent basis, Debye-Ang):
   XX=           -283.6514   YY=           -241.6842   ZZ=           -258.6334
   XY=              5.8907   XZ=             -7.1737   YZ=              2.3924

 Normal termination of Gaussian 16 at Fri Jun 28 16:28:29 2019.
