 Gaussian 16, Revision A.03,
 Gaussian 16:  ES64L-G16RevA.03 25-Dec-2016

 -------------------------------------
 # td=(NStates=1) CAM-B3LYP/6-31G(d,p)
 -------------------------------------

 --
 TD
 --
 Symbolic Z-matrix:
 Charge =  0 Multiplicity = 1

                         Standard orientation:
 ---------------------------------------------------------------------
 Center     Atomic      Atomic             Coordinates (Angstroms)
 Number     Number       Type             X           Y           Z
 ---------------------------------------------------------------------
      1          8           0       14.799073   -2.275613   -0.388055
      2          8           0      -14.773380    2.080003    0.830468
      3          6           0       11.525087   -1.052169    1.235757
      4          6           0      -12.332557   -0.889009    0.940407
      5          6           0       13.055476   -1.326030    1.149624
      6          6           0      -13.684564   -0.175062    0.814017
      7          6           0       13.443323   -1.823032   -0.237255
      8          6           0      -13.490875    1.324302    0.750447
      9          6           0       11.023404   -0.244887    0.003647
     10          6           0      -11.313120   -0.309225   -0.085305
     11          6           0       13.105116   -0.760734   -1.325562
     12          6           0      -12.902948    1.742336   -0.535073
     13          6           0       11.681449   -0.200894   -1.190575
     14          6           0      -11.590025    0.837173   -0.741407
     15          6           0       11.180847   -0.280688    2.556917
     16          6           0       10.845617   -2.430517    1.353225
     17          6           0      -11.813488   -0.910720    2.358205
     18          6           0      -12.623968   -2.365439    0.467409
     19          6           0        9.665937    0.330211    0.106973
     20          6           0      -10.071347   -1.106054   -0.447459
     21          6           0       11.232458    0.379078   -2.468640
     22          6           0      -10.913879    1.504994   -1.925093
     23          6           0        9.372257    1.624794   -0.046750
     24          6           0       -8.837603   -0.543048   -0.396567
     25          6           0        8.002999    2.308843    0.164988
     26          6           0       -7.631634   -1.186601   -0.559635
     27          6           0        8.168943    3.701085    0.591099
     28          6           0       -7.729204   -2.794097   -0.878154
     29          6           0        6.961918    1.546969   -0.078615
     30          6           0       -6.409715   -0.588416   -0.373438
     31          6           0        5.599966    2.045149    0.091632
     32          6           0       -5.101093   -1.145741   -0.681196
     33          6           0        4.462403    1.245315   -0.000332
     34          6           0       -4.074890   -0.304100   -0.390976
     35          6           0        3.065138    1.633963    0.120026
     36          6           0       -2.649270   -0.808747   -0.453451
     37          6           0        2.713704    3.089416    0.431085
     38          6           0       -2.474347   -2.189607   -0.874626
     39          6           0        2.113632    0.641305   -0.119051
     40          6           0       -1.630670    0.091882   -0.218024
     41          6           0        0.700826    0.753908   -0.082264
     42          6           0       -0.181449   -0.186265   -0.361594
     43          1           0       13.616881   -0.514271    1.237829
     44          1           0       13.294233   -2.136877    1.761941
     45          1           0      -14.544642   -0.802808    1.424639
     46          1           0      -13.937367   -0.514722   -0.060443
     47          1           0       12.716089   -2.758474   -0.331769
     48          1           0      -12.658243    1.780057    1.452469
     49          1           0       13.828958   -0.080598   -1.181267
     50          1           0       13.441687   -1.033144   -2.451308
     51          1           0      -13.621031    1.507037   -1.299697
     52          1           0      -12.724822    2.739526   -0.526346
     53          1           0       11.464060   -0.817813    3.615605
     54          1           0       10.139010   -0.052053    2.653530
     55          1           0       11.695593    0.745227    2.815025
     56          1           0       11.108141   -2.979568    0.393331
     57          1           0       11.311856   -3.022858    2.027942
     58          1           0        9.927913   -2.245804    1.513770
     59          1           0      -11.713150    0.091178    2.618142
     60          1           0      -10.736192   -1.471974    2.371551
     61          1           0      -12.334298   -1.330625    3.050842
     62          1           0      -13.565736   -2.847511    1.037406
     63          1           0      -11.734295   -3.085852    0.846139
     64          1           0      -12.936904   -2.608594   -0.522774
     65          1           0        8.707480   -0.168601    0.327092
     66          1           0      -10.355639   -2.292670   -0.581732
     67          1           0       10.076666    0.600539   -2.503516
     68          1           0       11.686554    1.404272   -2.607327
     69          1           0       11.450429   -0.412874   -3.304157
     70          1           0      -11.682767    1.461727   -2.870109
     71          1           0       -9.812543    0.838287   -2.117739
     72          1           0      -10.366427    2.423582   -1.640425
     73          1           0       14.909673   -2.830771    0.538948
     74          1           0      -15.185227    1.791086    1.697619
     75          1           0       10.048492    2.268912   -0.160248
     76          1           0       -9.048247    0.631305   -0.113209
     77          1           0        8.721245    4.306413   -0.154678
     78          1           0        7.211523    4.296355    0.224808
     79          1           0        8.523475    3.846991    1.670040
     80          1           0       -8.049568   -3.348874    0.093739
     81          1           0       -8.427302   -2.650635   -1.700596
     82          1           0       -6.858543   -3.083454   -1.164409
     83          1           0        7.085942    0.529673   -0.323612
     84          1           0       -6.398755    0.586609   -0.335359
     85          1           0        5.301187    3.020646    0.366683
     86          1           0       -4.850385   -2.164487   -1.024372
     87          1           0        4.598231    0.151809   -0.036372
     88          1           0       -4.406829    0.504631    0.004362
     89          1           0        2.917483    3.490909    1.386758
     90          1           0        1.632773    3.376995    0.301278
     91          1           0        3.540229    3.889535   -0.171008
     92          1           0       -2.973666   -2.925437   -0.305138
     93          1           0       -2.759857   -2.421810   -1.898674
     94          1           0       -1.359284   -2.381351   -0.896766
     95          1           0        2.639257   -0.282786   -0.304937
     96          1           0       -2.116134    1.016576   -0.138876
     97          1           0        0.368090    1.695235    0.318428
     98          1           0        0.206033   -1.240781   -0.548864
 ---------------------------------------------------------------------

 SCF Done:  E(RCAM-B3LYP) =  -1706.87598018     A.U. after   14 cycles

 Excitation energies and oscillator strengths:

 Excited State   1:      Singlet-A      2.8899 eV  429.02 nm  f=3.6855  <S**2>=0.000
     155 ->158         0.18461
     156 ->157         0.67685
 This state for optimization and/or second-order correction.
 Total Energy, E(TD-HF/TD-DFT) =  -1706.76977756
 Copying the excited state density for this state as the 1-particle RhoCI density.

 The electronic state is 1-A.
 Alpha  occ. eigenvalues --  -19.22565 -19.20935 -10.30845 -10.30845 -10.28437
 Alpha  occ. eigenvalues --  -10.28173 -10.28155 -10.27585 -10.27503 -10.27493
 Alpha  occ. eigenvalues --  -10.27451 -10.27376 -10.27242 -10.27165 -10.27140
 Alpha  occ. eigenvalues --  -10.27037 -10.26932 -10.26899 -10.26888 -10.26765
 Alpha  occ. eigenvalues --  -10.26715 -10.26583 -10.26468 -10.26345 -10.26308
 Alpha  occ. eigenvalues --  -10.26197 -10.26172 -10.26162 -10.26119 -10.25856
 Alpha  occ. eigenvalues --  -10.25751 -10.25617 -10.25488 -10.25355 -10.25214
 Alpha  occ. eigenvalues --  -10.25102 -10.24976 -10.24059 -10.24025 -10.23910
 Alpha  occ. eigenvalues --  -10.23532 -10.22881  -1.07615  -1.06510  -0.93629
 Alpha  occ. eigenvalues --   -0.93420  -0.92082  -0.91599  -0.90746  -0.89855
 Alpha  occ. eigenvalues --   -0.87608  -0.87188  -0.86617  -0.85540  -0.84803
 Alpha  occ. eigenvalues --   -0.83319  -0.82137  -0.80688  -0.79324  -0.78436
 Alpha  occ. eigenvalues --   -0.77468  -0.77035  -0.76503  -0.76315  -0.75936
 Alpha  occ. eigenvalues --   -0.75514  -0.75159  -0.74951  -0.74267  -0.70002
 Alpha  occ. eigenvalues --   -0.67911  -0.66767  -0.65110  -0.64778  -0.63919
 Alpha  occ. eigenvalues --   -0.63835  -0.62929  -0.62521  -0.61357  -0.60694
 Alpha  occ. eigenvalues --   -0.59178  -0.59027  -0.58115  -0.57131  -0.56388
 Alpha  occ. eigenvalues --   -0.55831  -0.55189  -0.54369  -0.54196  -0.53786
 Alpha  occ. eigenvalues --   -0.53181  -0.52776  -0.52210  -0.51857  -0.51091
 Alpha  occ. eigenvalues --   -0.50654  -0.50491  -0.50343  -0.49700  -0.49360
 Alpha  occ. eigenvalues --   -0.49027  -0.48859  -0.48636  -0.48479  -0.48090
 Alpha  occ. eigenvalues --   -0.47599  -0.47110  -0.47075  -0.46613  -0.46433
 Alpha  occ. eigenvalues --   -0.46148  -0.45805  -0.45747  -0.45052  -0.44920
 Alpha  occ. eigenvalues --   -0.44302  -0.44128  -0.43938  -0.43473  -0.43404
 Alpha  occ. eigenvalues --   -0.42907  -0.42820  -0.42718  -0.42531  -0.42120
 Alpha  occ. eigenvalues --   -0.41772  -0.41660  -0.41608  -0.41138  -0.40687
 Alpha  occ. eigenvalues --   -0.40490  -0.40299  -0.39567  -0.39230  -0.39050
 Alpha  occ. eigenvalues --   -0.38851  -0.38684  -0.38503  -0.38353  -0.38045
 Alpha  occ. eigenvalues --   -0.37727  -0.36838  -0.36755  -0.35962  -0.35866
 Alpha  occ. eigenvalues --   -0.35249  -0.34208  -0.33307  -0.32210  -0.31934
 Alpha  occ. eigenvalues --   -0.31076  -0.30088  -0.28672  -0.27159  -0.24121
 Alpha  occ. eigenvalues --   -0.21199
 Alpha virt. eigenvalues --   -0.03932  -0.00343   0.03212   0.05952   0.07493
 Alpha virt. eigenvalues --    0.08678   0.09812   0.10413   0.11397   0.11984
 Alpha virt. eigenvalues --    0.12520   0.12724   0.12987   0.13406   0.13653

 Mulliken charges:
               1
     1  O   -0.560930
     2  O   -0.578570
     3  C   -0.022668
     4  C   -0.021819
     5  C   -0.171360
     6  C   -0.183150
     7  C    0.160985
     8  C    0.150311
     9  C    0.040234
    10  C    0.047895
    11  C   -0.224376
    12  C   -0.192208
    13  C    0.088193
    14  C    0.012297
    15  C   -0.310415
    16  C   -0.279125
    17  C   -0.271960
    18  C   -0.324436
    19  C   -0.127235
    20  C   -0.120489
    21  C   -0.360611
    22  C   -0.341384
    23  C   -0.059790
    24  C   -0.085689
    25  C    0.102918
    26  C    0.038859
    27  C   -0.384408
    28  C   -0.329599
    29  C   -0.110880
    30  C   -0.150138
    31  C   -0.090021
    32  C   -0.071036
    33  C   -0.136861
    34  C   -0.086846
    35  C    0.138496
    36  C    0.092447
    37  C   -0.381043
    38  C   -0.394484
    39  C   -0.132346
    40  C   -0.112720
    41  C   -0.059821
    42  C   -0.097552
    43  H    0.107163
    44  H    0.078015
    45  H    0.074416
    46  H    0.121187
    47  H    0.046224
    48  H    0.072375
    49  H    0.131290
    50  H    0.089653
    51  H    0.118552
    52  H    0.122649
    53  H    0.070990
    54  H    0.116514
    55  H    0.089433
    56  H    0.097671
    57  H    0.110662
    58  H    0.107138
    59  H    0.105724
    60  H    0.078855
    61  H    0.112056
    62  H    0.072200
    63  H    0.086092
    64  H    0.121052
    65  H    0.077798
    66  H    0.093730
    67  H    0.105757
    68  H    0.120261
    69  H    0.107986
    70  H    0.109713
    71  H    0.065394
    72  H    0.126470
    73  H    0.303130
    74  H    0.302881
    75  H    0.047485
    76  H    0.090710
    77  H    0.127356
    78  H    0.096709
    79  H    0.136657
    80  H    0.115052
    81  H    0.129703
    82  H    0.110745
    83  H    0.090363
    84  H    0.082523
    85  H    0.076124
    86  H    0.089790
    87  H    0.073972
    88  H    0.069266
    89  H    0.138085
    90  H    0.112721
    91  H    0.075404
    92  H    0.127941
    93  H    0.129420
    94  H    0.098066
    95  H    0.074922
    96  H    0.085700
    97  H    0.083824
    98  H    0.095766
 Sum of Mulliken charges =  -0.00000

 Dipole moment (field-independent basis, Debye):
    X=              0.2046    Y=             -0.8394    Z=              2.3304  Tot=              2.4854
 Quadrupole moment (field-independent basis, Debye-Ang):
   XX=           -287.6822   YY=           -246.2137   ZZ=           -260.8969
   XY=             26.9682   XZ=              8.2450   YZ=             -0.0371

 Normal termination of Gaussian 16 at Sun Jul  7 09:55:07 2019.
