 Gaussian 16, Revision A.03,
 Gaussian 16:  ES64L-G16RevA.03 25-Dec-2016

 -------------------------------------
 # td=(NStates=1) CAM-B3LYP/6-31G(d,p)
 -------------------------------------

 --
 TD
 --
 Symbolic Z-matrix:
 Charge =  0 Multiplicity = 1

                         Standard orientation:
 ---------------------------------------------------------------------
 Center     Atomic      Atomic             Coordinates (Angstroms)
 Number     Number       Type             X           Y           Z
 ---------------------------------------------------------------------
      1          8           0       14.873358   -2.055515   -0.462783
      2          8           0      -14.890943    1.900100    0.631790
      3          6           0       11.466897   -1.041624    1.244555
      4          6           0      -12.401594   -0.941536    0.745654
      5          6           0       13.044678   -1.380225    1.131525
      6          6           0      -13.745968   -0.304043    0.571222
      7          6           0       13.477507   -1.879465   -0.345770
      8          6           0      -13.570668    1.200403    0.750402
      9          6           0       11.058247   -0.383710   -0.041144
     10          6           0      -11.397676   -0.281251   -0.260973
     11          6           0       13.118089   -0.782494   -1.326815
     12          6           0      -12.802463    1.757389   -0.527158
     13          6           0       11.718018   -0.281986   -1.213783
     14          6           0      -11.592530    0.888200   -0.828366
     15          6           0       11.298445   -0.176231    2.452853
     16          6           0       10.643498   -2.388554    1.209859
     17          6           0      -11.853771   -0.809928    2.170841
     18          6           0      -12.652402   -2.454314    0.480556
     19          6           0        9.732652    0.386519    0.155449
     20          6           0      -10.072665   -0.990004   -0.372371
     21          6           0       11.260261    0.562192   -2.447808
     22          6           0      -10.741922    1.628640   -1.836099
     23          6           0        9.336202    1.599100   -0.050657
     24          6           0       -8.778512   -0.456964   -0.258225
     25          6           0        8.036254    2.183228    0.189274
     26          6           0       -7.588838   -1.248326   -0.486850
     27          6           0        8.022606    3.673691    0.521995
     28          6           0       -7.659385   -2.702179   -0.734879
     29          6           0        6.885786    1.415136    0.013236
     30          6           0       -6.485079   -0.621030   -0.278734
     31          6           0        5.571007    1.991406    0.218556
     32          6           0       -5.131804   -1.055055   -0.445410
     33          6           0        4.465032    1.179876   -0.143223
     34          6           0       -3.995577   -0.283211   -0.360906
     35          6           0        3.148479    1.538921    0.147597
     36          6           0       -2.634373   -0.719149   -0.374547
     37          6           0        2.782963    2.887302    0.678913
     38          6           0       -2.257474   -2.164080   -0.849657
     39          6           0        2.148870    0.616244   -0.143063
     40          6           0       -1.695157    0.137679   -0.033821
     41          6           0        0.703157    0.817587   -0.001904
     42          6           0       -0.262244   -0.136110   -0.227006
     43          1           0       13.630231   -0.566825    1.331252
     44          1           0       13.233934   -2.163382    1.837230
     45          1           0      -14.539967   -0.653793    1.376110
     46          1           0      -14.076692   -0.413451   -0.542315
     47          1           0       12.964103   -2.677642   -0.571389
     48          1           0      -13.311142    1.546128    1.704526
     49          1           0       13.744351   -0.064066   -1.221916
     50          1           0       13.216747   -1.141870   -2.239975
     51          1           0      -13.532409    1.651790   -1.326211
     52          1           0      -12.469549    2.723244   -0.185747
     53          1           0       11.813877   -0.740952    3.272378
     54          1           0       10.234150    0.077826    3.055859
     55          1           0       11.861162    0.684407    2.539751
     56          1           0       10.733371   -2.946213    0.199075
     57          1           0       11.084022   -3.064510    1.924723
     58          1           0        9.610790   -2.306372    1.383333
     59          1           0      -11.729977    0.313958    2.229842
     60          1           0      -10.954872   -1.323985    2.084901
     61          1           0      -12.507901   -1.296745    2.949931
     62          1           0      -13.562771   -2.979103    1.034220
     63          1           0      -11.678428   -2.976448    0.511789
     64          1           0      -13.086030   -2.868031   -0.455919
     65          1           0        9.039242   -0.150850    0.775824
     66          1           0      -10.211244   -2.011338   -0.512784
     67          1           0       10.162693    0.418591   -2.504481
     68          1           0       11.606595    1.639567   -2.529194
     69          1           0       11.354268   -0.260294   -3.225460
     70          1           0      -11.305920    2.369977   -2.429934
     71          1           0      -10.284551    1.010344   -2.448507
     72          1           0      -10.002060    2.198021   -1.282363
     73          1           0       15.213123   -2.751321    0.211391
     74          1           0      -15.350610    1.696938    1.621532
     75          1           0       10.125028    2.562294   -0.473950
     76          1           0       -8.580452    0.588925   -0.211238
     77          1           0        8.180531    4.311732   -0.417738
     78          1           0        6.905000    3.945585    0.693269
     79          1           0        8.666410    3.839556    1.420322
     80          1           0       -8.136793   -3.117679    0.091147
     81          1           0       -8.283546   -2.863266   -1.623697
     82          1           0       -6.704797   -3.217208   -0.675166
     83          1           0        6.923617    0.394663   -0.458328
     84          1           0       -6.467631    0.591122   -0.126687
     85          1           0        5.450460    2.918036    0.571777
     86          1           0       -5.052681   -2.184792   -0.645961
     87          1           0        4.711996    0.455143   -0.695789
     88          1           0       -4.160561    0.805551   -0.319293
     89          1           0        3.411633    2.904891    1.502848
     90          1           0        1.746898    3.184071    0.827207
     91          1           0        3.259243    3.616651    0.009192
     92          1           0       -2.604396   -2.838490   -0.091721
     93          1           0       -3.099199   -2.334025   -1.856610
     94          1           0       -1.162253   -2.579622   -1.297972
     95          1           0        2.330520   -0.485810   -0.460084
     96          1           0       -2.139520    1.136944   -0.047411
     97          1           0        0.283861    1.878073    0.203305
     98          1           0        0.047506   -1.134879   -0.396864
 ---------------------------------------------------------------------

 SCF Done:  E(RCAM-B3LYP) =  -1706.94266623     A.U. after   14 cycles

 Excitation energies and oscillator strengths:

 Excited State   1:      Singlet-A      2.6918 eV  460.60 nm  f=3.6405  <S**2>=0.000
     155 ->158         0.17174
     156 ->157         0.68110
 This state for optimization and/or second-order correction.
 Total Energy, E(TD-HF/TD-DFT) =  -1706.84374498
 Copying the excited state density for this state as the 1-particle RhoCI density.

 The electronic state is 1-A.
 Alpha  occ. eigenvalues --  -19.21700 -19.20679 -10.29276 -10.29143 -10.28804
 Alpha  occ. eigenvalues --  -10.28360 -10.27368 -10.27190 -10.27120 -10.27074
 Alpha  occ. eigenvalues --  -10.26985 -10.26772 -10.26705 -10.26702 -10.26632
 Alpha  occ. eigenvalues --  -10.26565 -10.26473 -10.26378 -10.26185 -10.26111
 Alpha  occ. eigenvalues --  -10.26039 -10.26034 -10.25992 -10.25775 -10.25732
 Alpha  occ. eigenvalues --  -10.25729 -10.25725 -10.25701 -10.25682 -10.25546
 Alpha  occ. eigenvalues --  -10.25481 -10.25378 -10.25168 -10.25116 -10.25045
 Alpha  occ. eigenvalues --  -10.24941 -10.24869 -10.24682 -10.24599 -10.24467
 Alpha  occ. eigenvalues --  -10.23845 -10.21586  -1.08573  -1.04390  -0.93584
 Alpha  occ. eigenvalues --   -0.92999  -0.92508  -0.91928  -0.91083  -0.89777
 Alpha  occ. eigenvalues --   -0.87290  -0.87003  -0.86347  -0.84865  -0.83904
 Alpha  occ. eigenvalues --   -0.82507  -0.81591  -0.79771  -0.79689  -0.78074
 Alpha  occ. eigenvalues --   -0.77235  -0.77188  -0.76069  -0.75881  -0.75794
 Alpha  occ. eigenvalues --   -0.75509  -0.75284  -0.74848  -0.73718  -0.70593
 Alpha  occ. eigenvalues --   -0.68991  -0.67788  -0.65992  -0.65187  -0.64754
 Alpha  occ. eigenvalues --   -0.63725  -0.63096  -0.61620  -0.60513  -0.59547
 Alpha  occ. eigenvalues --   -0.59166  -0.58604  -0.57931  -0.57030  -0.55404
 Alpha  occ. eigenvalues --   -0.55289  -0.54654  -0.54007  -0.53702  -0.53459
 Alpha  occ. eigenvalues --   -0.52988  -0.52132  -0.51823  -0.51515  -0.50854
 Alpha  occ. eigenvalues --   -0.50488  -0.50266  -0.50013  -0.49769  -0.49489
 Alpha  occ. eigenvalues --   -0.49409  -0.49256  -0.48995  -0.48722  -0.48159
 Alpha  occ. eigenvalues --   -0.47913  -0.47442  -0.47345  -0.47024  -0.46906
 Alpha  occ. eigenvalues --   -0.46508  -0.46075  -0.45554  -0.45343  -0.44700
 Alpha  occ. eigenvalues --   -0.44368  -0.44227  -0.44102  -0.43517  -0.43100
 Alpha  occ. eigenvalues --   -0.42731  -0.42683  -0.42426  -0.42375  -0.41883
 Alpha  occ. eigenvalues --   -0.41813  -0.41516  -0.41015  -0.40929  -0.40566
 Alpha  occ. eigenvalues --   -0.40124  -0.40076  -0.39650  -0.39467  -0.38945
 Alpha  occ. eigenvalues --   -0.38836  -0.38621  -0.38449  -0.37617  -0.37423
 Alpha  occ. eigenvalues --   -0.37140  -0.37011  -0.36386  -0.35967  -0.35592
 Alpha  occ. eigenvalues --   -0.34937  -0.34492  -0.33623  -0.32251  -0.31953
 Alpha  occ. eigenvalues --   -0.30791  -0.29953  -0.28237  -0.26753  -0.23884
 Alpha  occ. eigenvalues --   -0.20381
 Alpha virt. eigenvalues --   -0.04119  -0.00505   0.03600   0.06131   0.08283
 Alpha virt. eigenvalues --    0.09775   0.10137   0.11518   0.11717   0.12076
 Alpha virt. eigenvalues --    0.12523   0.12903   0.12962   0.13443   0.13691

 Mulliken charges:
               1
     1  O   -0.569019
     2  O   -0.582091
     3  C   -0.003867
     4  C   -0.013380
     5  C   -0.216605
     6  C   -0.155665
     7  C    0.168896
     8  C    0.124702
     9  C    0.084340
    10  C    0.053762
    11  C   -0.173797
    12  C   -0.219289
    13  C   -0.026252
    14  C    0.030943
    15  C   -0.310873
    16  C   -0.312259
    17  C   -0.274541
    18  C   -0.316667
    19  C   -0.137560
    20  C   -0.169667
    21  C   -0.351742
    22  C   -0.352569
    23  C   -0.058333
    24  C   -0.077005
    25  C    0.055888
    26  C    0.138886
    27  C   -0.357609
    28  C   -0.373931
    29  C   -0.112944
    30  C   -0.130995
    31  C   -0.088073
    32  C   -0.092565
    33  C   -0.074743
    34  C   -0.134526
    35  C    0.098123
    36  C    0.144262
    37  C   -0.368031
    38  C   -0.351875
    39  C   -0.145357
    40  C   -0.136729
    41  C   -0.077345
    42  C   -0.092076
    43  H    0.111021
    44  H    0.078383
    45  H    0.064396
    46  H    0.098283
    47  H    0.083425
    48  H    0.093566
    49  H    0.124713
    50  H    0.101049
    51  H    0.136671
    52  H    0.119220
    53  H    0.092011
    54  H    0.084437
    55  H    0.125340
    56  H    0.099894
    57  H    0.098959
    58  H    0.119762
    59  H    0.095738
    60  H    0.115807
    61  H    0.097681
    62  H    0.088423
    63  H    0.090461
    64  H    0.100615
    65  H    0.080079
    66  H    0.082963
    67  H    0.118728
    68  H    0.129309
    69  H    0.102369
    70  H    0.107883
    71  H    0.128093
    72  H    0.119513
    73  H    0.306574
    74  H    0.283818
    75  H    0.039914
    76  H    0.084782
    77  H    0.125435
    78  H    0.094152
    79  H    0.128291
    80  H    0.133495
    81  H    0.124960
    82  H    0.111855
    83  H    0.092898
    84  H    0.055095
    85  H    0.074981
    86  H    0.071260
    87  H    0.066739
    88  H    0.085768
    89  H    0.133521
    90  H    0.120025
    91  H    0.118178
    92  H    0.134333
    93  H    0.071051
    94  H    0.107066
    95  H    0.074561
    96  H    0.079051
    97  H    0.070902
    98  H    0.080683
 Sum of Mulliken charges =  -0.00000

 Dipole moment (field-independent basis, Debye):
    X=              1.4743    Y=             -1.4576    Z=              1.8161  Tot=              2.7562
 Quadrupole moment (field-independent basis, Debye-Ang):
   XX=           -280.0550   YY=           -241.9194   ZZ=           -259.7994
   XY=              6.0736   XZ=              3.4504   YZ=              1.4585

 Normal termination of Gaussian 16 at Sat Jul  6 08:16:34 2019.
