 Gaussian 16, Revision A.03,
 Gaussian 16:  ES64L-G16RevA.03 25-Dec-2016

 -------------------------------------
 # td=(NStates=1) CAM-B3LYP/6-31G(d,p)
 -------------------------------------

 --
 TD
 --
 Symbolic Z-matrix:
 Charge =  0 Multiplicity = 1

                         Standard orientation:
 ---------------------------------------------------------------------
 Center     Atomic      Atomic             Coordinates (Angstroms)
 Number     Number       Type             X           Y           Z
 ---------------------------------------------------------------------
      1          8           0       14.557227   -2.383920   -0.448727
      2          8           0      -14.819124    1.922206    0.790288
      3          6           0       11.391031   -1.166975    1.182842
      4          6           0      -12.297905   -0.899965    0.872195
      5          6           0       12.959301   -1.549734    1.021036
      6          6           0      -13.654286   -0.227323    0.798048
      7          6           0       13.267271   -1.922674   -0.324572
      8          6           0      -13.566624    1.278277    0.632036
      9          6           0       10.913377   -0.298931   -0.041424
     10          6           0      -11.323567   -0.346486   -0.151029
     11          6           0       13.184456   -0.742884   -1.234139
     12          6           0      -12.847959    1.762476   -0.567715
     13          6           0       11.770696   -0.121186   -1.065872
     14          6           0      -11.555520    0.829164   -0.815824
     15          6           0       11.200508   -0.425911    2.524223
     16          6           0       10.631508   -2.502415    1.236825
     17          6           0      -11.591287   -0.834593    2.273342
     18          6           0      -12.528140   -2.453335    0.453976
     19          6           0        9.610504    0.369555    0.148203
     20          6           0      -10.048600   -1.051875   -0.395577
     21          6           0       11.254586    0.659131   -2.308068
     22          6           0      -10.681142    1.353087   -1.922589
     23          6           0        9.377392    1.616669   -0.078184
     24          6           0       -8.849581   -0.488625   -0.281886
     25          6           0        8.051715    2.233822    0.157786
     26          6           0       -7.635943   -1.242689   -0.424724
     27          6           0        8.078004    3.681140    0.630854
     28          6           0       -7.762448   -2.674013   -0.886450
     29          6           0        6.823680    1.525429   -0.005134
     30          6           0       -6.340005   -0.646839   -0.314957
     31          6           0        5.513172    2.103846    0.209646
     32          6           0       -5.011345   -1.142814   -0.501317
     33          6           0        4.368944    1.352659   -0.056768
     34          6           0       -4.052892   -0.422620   -0.241247
     35          6           0        3.051376    1.704894    0.218208
     36          6           0       -2.583748   -0.834117   -0.425999
     37          6           0        2.750437    3.207224    0.539967
     38          6           0       -2.255369   -2.204326   -0.889484
     39          6           0        2.039527    0.856954   -0.264422
     40          6           0       -1.677231    0.146176   -0.243166
     41          6           0        0.705180    0.887755   -0.063191
     42          6           0       -0.193205    0.003998   -0.389126
     43          1           0       13.411701   -0.700967    1.503597
     44          1           0       13.037179   -2.318200    1.789865
     45          1           0      -14.301596   -0.540441    1.627257
     46          1           0      -14.298568   -0.385567   -0.073057
     47          1           0       12.650489   -2.550145   -0.585457
     48          1           0      -12.913417    1.441465    1.573722
     49          1           0       13.883802    0.091654   -1.197482
     50          1           0       13.264550   -0.921475   -2.241387
     51          1           0      -13.509850    1.594975   -1.266968
     52          1           0      -12.498753    2.776416   -0.383802
     53          1           0       11.662710   -0.895979    3.552861
     54          1           0       10.170203   -0.016606    2.500145
     55          1           0       11.741262    0.526199    2.471375
     56          1           0       10.772952   -3.036710    0.245424
     57          1           0       11.247973   -3.264111    1.952413
     58          1           0        9.635728   -2.297997    1.460168
     59          1           0      -11.438544    0.183966    2.546506
     60          1           0      -10.315982   -1.105628    2.132171
     61          1           0      -12.088303   -1.546870    3.006023
     62          1           0      -13.333415   -2.795309    0.983879
     63          1           0      -11.605883   -3.132715    0.658053
     64          1           0      -12.803204   -2.527361   -0.754377
     65          1           0        8.627293   -0.325655    0.239388
     66          1           0      -10.280646   -2.133576   -0.292683
     67          1           0       10.110826    0.717064   -2.426562
     68          1           0       11.766080    1.592820   -2.546138
     69          1           0       11.499065    0.331824   -3.293846
     70          1           0      -11.294258    1.871272   -2.724730
     71          1           0      -10.036339    0.671642   -2.442346
     72          1           0      -10.098416    2.225914   -1.792943
     73          1           0       14.652435   -3.364670   -0.113480
     74          1           0      -15.400390    1.738739    1.591305
     75          1           0       10.182639    2.252303   -0.186259
     76          1           0       -8.750018    0.587064   -0.297546
     77          1           0        8.548494    4.381534   -0.329367
     78          1           0        7.136016    4.285241    1.014306
     79          1           0        9.096570    3.631212    1.473553
     80          1           0       -8.296514   -3.155883   -0.200791
     81          1           0       -8.118931   -2.632913   -2.029855
     82          1           0       -6.850303   -3.379402   -0.956819
     83          1           0        6.844852    0.583001   -0.252983
     84          1           0       -6.602209    0.417544   -0.013591
     85          1           0        5.392256    2.889249    0.723440
     86          1           0       -4.682660   -2.148652   -0.983268
     87          1           0        4.694789    0.359621   -0.374135
     88          1           0       -4.084208    0.599722    0.163225
     89          1           0        3.334383    3.527800    1.451477
     90          1           0        1.701377    3.254396    0.782482
     91          1           0        3.081151    3.888759   -0.231862
     92          1           0       -2.597257   -2.997742   -0.266501
     93          1           0       -2.918619   -2.461002   -1.910329
     94          1           0       -1.169264   -2.312677   -0.916716
     95          1           0        2.582253   -0.033037   -0.658047
     96          1           0       -1.938043    1.052259    0.217315
     97          1           0        0.282683    2.079373    0.018323
     98          1           0        0.393863   -1.109577   -0.705360
 ---------------------------------------------------------------------

 SCF Done:  E(RCAM-B3LYP) =  -1706.86288307     A.U. after   14 cycles

 Excitation energies and oscillator strengths:

 Excited State   1:      Singlet-A      2.7657 eV  448.29 nm  f=3.4322  <S**2>=0.000
     155 ->158         0.15744
     156 ->157         0.68322
 This state for optimization and/or second-order correction.
 Total Energy, E(TD-HF/TD-DFT) =  -1706.76124605
 Copying the excited state density for this state as the 1-particle RhoCI density.

 The electronic state is 1-A.
 Alpha  occ. eigenvalues --  -19.20891 -19.20866 -10.30367 -10.30038 -10.28421
 Alpha  occ. eigenvalues --  -10.28281 -10.28125 -10.27902 -10.27617 -10.27370
 Alpha  occ. eigenvalues --  -10.27359 -10.27178 -10.27136 -10.26895 -10.26878
 Alpha  occ. eigenvalues --  -10.26783 -10.26706 -10.26691 -10.26610 -10.26422
 Alpha  occ. eigenvalues --  -10.26389 -10.26151 -10.25906 -10.25851 -10.25719
 Alpha  occ. eigenvalues --  -10.25701 -10.25667 -10.25631 -10.25515 -10.25362
 Alpha  occ. eigenvalues --  -10.25320 -10.25320 -10.25302 -10.25256 -10.25189
 Alpha  occ. eigenvalues --  -10.24867 -10.24803 -10.24711 -10.24699 -10.24536
 Alpha  occ. eigenvalues --  -10.24282 -10.23431  -1.09614  -1.07968  -0.93281
 Alpha  occ. eigenvalues --   -0.93266  -0.92442  -0.91729  -0.90419  -0.89838
 Alpha  occ. eigenvalues --   -0.88271  -0.86409  -0.86110  -0.85864  -0.85041
 Alpha  occ. eigenvalues --   -0.84044  -0.82496  -0.79938  -0.79697  -0.78194
 Alpha  occ. eigenvalues --   -0.76571  -0.76148  -0.76083  -0.75814  -0.75401
 Alpha  occ. eigenvalues --   -0.75373  -0.75216  -0.75062  -0.73974  -0.70116
 Alpha  occ. eigenvalues --   -0.69072  -0.68178  -0.66124  -0.65248  -0.64403
 Alpha  occ. eigenvalues --   -0.63276  -0.62730  -0.61726  -0.60715  -0.60092
 Alpha  occ. eigenvalues --   -0.59794  -0.59459  -0.58660  -0.57834  -0.56348
 Alpha  occ. eigenvalues --   -0.55950  -0.55853  -0.55442  -0.54689  -0.53394
 Alpha  occ. eigenvalues --   -0.53237  -0.52805  -0.52166  -0.51603  -0.50817
 Alpha  occ. eigenvalues --   -0.50246  -0.50209  -0.49597  -0.49244  -0.49215
 Alpha  occ. eigenvalues --   -0.48848  -0.48548  -0.48092  -0.47851  -0.47482
 Alpha  occ. eigenvalues --   -0.47140  -0.46982  -0.46672  -0.46418  -0.46308
 Alpha  occ. eigenvalues --   -0.46055  -0.45725  -0.45604  -0.45549  -0.44759
 Alpha  occ. eigenvalues --   -0.44580  -0.44199  -0.43800  -0.43606  -0.43362
 Alpha  occ. eigenvalues --   -0.42912  -0.42757  -0.42338  -0.42197  -0.42135
 Alpha  occ. eigenvalues --   -0.41445  -0.40951  -0.40856  -0.40803  -0.40349
 Alpha  occ. eigenvalues --   -0.39976  -0.39845  -0.39800  -0.39485  -0.38592
 Alpha  occ. eigenvalues --   -0.38471  -0.38364  -0.38232  -0.38056  -0.37350
 Alpha  occ. eigenvalues --   -0.37154  -0.36677  -0.36353  -0.36288  -0.36227
 Alpha  occ. eigenvalues --   -0.35611  -0.35043  -0.34017  -0.32325  -0.31716
 Alpha  occ. eigenvalues --   -0.30236  -0.29396  -0.28416  -0.27119  -0.23717
 Alpha  occ. eigenvalues --   -0.20739
 Alpha virt. eigenvalues --   -0.04232  -0.00345   0.02940   0.06193   0.08253
 Alpha virt. eigenvalues --    0.09109   0.10102   0.10532   0.11218   0.11334
 Alpha virt. eigenvalues --    0.11971   0.12141   0.12589   0.12715   0.12861

 Mulliken charges:
               1
     1  O   -0.579011
     2  O   -0.591839
     3  C   -0.038063
     4  C   -0.003057
     5  C   -0.190287
     6  C   -0.189250
     7  C    0.254109
     8  C    0.174058
     9  C    0.052586
    10  C    0.057850
    11  C   -0.210708
    12  C   -0.186563
    13  C    0.032609
    14  C    0.022944
    15  C   -0.315840
    16  C   -0.280294
    17  C   -0.297462
    18  C   -0.306280
    19  C   -0.118031
    20  C   -0.132591
    21  C   -0.387236
    22  C   -0.384712
    23  C   -0.067708
    24  C   -0.077286
    25  C    0.080556
    26  C    0.071401
    27  C   -0.338570
    28  C   -0.347876
    29  C   -0.108207
    30  C   -0.148300
    31  C   -0.042238
    32  C   -0.079712
    33  C   -0.117871
    34  C   -0.043000
    35  C    0.079595
    36  C    0.118908
    37  C   -0.366741
    38  C   -0.376282
    39  C   -0.108740
    40  C   -0.145361
    41  C   -0.062420
    42  C   -0.088093
    43  H    0.097927
    44  H    0.076393
    45  H    0.081556
    46  H    0.096690
    47  H    0.069992
    48  H    0.044777
    49  H    0.122645
    50  H    0.114794
    51  H    0.125906
    52  H    0.122780
    53  H    0.088143
    54  H    0.109520
    55  H    0.101866
    56  H    0.091647
    57  H    0.076405
    58  H    0.110652
    59  H    0.124963
    60  H    0.075027
    61  H    0.100538
    62  H    0.108551
    63  H    0.095127
    64  H    0.087047
    65  H    0.082477
    66  H    0.086174
    67  H    0.118918
    68  H    0.105965
    69  H    0.103396
    70  H    0.092102
    71  H    0.126227
    72  H    0.116632
    73  H    0.298870
    74  H    0.315370
    75  H    0.093416
    76  H    0.099781
    77  H    0.088862
    78  H    0.122351
    79  H    0.079654
    80  H    0.127563
    81  H    0.106964
    82  H    0.090181
    83  H    0.061988
    84  H    0.070227
    85  H    0.052066
    86  H    0.083394
    87  H    0.074185
    88  H    0.079037
    89  H    0.104317
    90  H    0.112235
    91  H    0.134593
    92  H    0.134116
    93  H    0.095844
    94  H    0.116549
    95  H    0.075442
    96  H    0.091122
    97  H    0.060635
    98  H    0.061413
 Sum of Mulliken charges =  -0.00000

 Dipole moment (field-independent basis, Debye):
    X=             -0.1968    Y=             -1.4212    Z=              0.9694  Tot=              1.7316
 Quadrupole moment (field-independent basis, Debye-Ang):
   XX=           -262.0352   YY=           -243.6715   ZZ=           -260.6845
   XY=              4.8344   XZ=            -15.6444   YZ=              1.2152

 Normal termination of Gaussian 16 at Thu Jul  4 23:58:00 2019.
