 Gaussian 16, Revision A.03,
 Gaussian 16:  ES64L-G16RevA.03 25-Dec-2016

 -------------------------------------
 # td=(NStates=1) CAM-B3LYP/6-31G(d,p)
 -------------------------------------

 --
 TD
 --
 Symbolic Z-matrix:
 Charge =  0 Multiplicity = 1

                         Standard orientation:
 ---------------------------------------------------------------------
 Center     Atomic      Atomic             Coordinates (Angstroms)
 Number     Number       Type             X           Y           Z
 ---------------------------------------------------------------------
      1          8           0       14.738694   -2.136822   -0.199558
      2          8           0      -14.787815    2.001022    0.630151
      3          6           0       11.462982   -1.043687    1.331047
      4          6           0      -12.420109   -0.956065    0.880853
      5          6           0       12.990093   -1.374022    1.222590
      6          6           0      -13.792637   -0.114750    0.821840
      7          6           0       13.275113   -1.959001   -0.101585
      8          6           0      -13.461325    1.328870    0.729065
      9          6           0       10.964207   -0.386930   -0.045527
     10          6           0      -11.412524   -0.396176   -0.148160
     11          6           0       13.012991   -0.943476   -1.191057
     12          6           0      -12.703592    1.694140   -0.481557
     13          6           0       11.670355   -0.311422   -1.172586
     14          6           0      -11.491771    0.797330   -0.790807
     15          6           0       11.232395    0.001809    2.432742
     16          6           0       10.649553   -2.309535    1.453021
     17          6           0      -11.791442   -0.765754    2.255066
     18          6           0      -12.609969   -2.333601    0.536478
     19          6           0        9.634049    0.310174    0.144460
     20          6           0      -10.106145   -1.073568   -0.263236
     21          6           0       11.037863    0.221963   -2.450624
     22          6           0      -10.558781    1.615707   -1.749004
     23          6           0        9.370599    1.630214   -0.230419
     24          6           0       -8.905899   -0.531361   -0.339543
     25          6           0        8.066310    2.278127   -0.066752
     26          6           0       -7.645009   -1.424565   -0.469692
     27          6           0        8.118236    3.657835    0.261268
     28          6           0       -7.705433   -2.803362   -0.871032
     29          6           0        6.919248    1.545530   -0.097494
     30          6           0       -6.398833   -0.664576   -0.403017
     31          6           0        5.541991    1.977278    0.230555
     32          6           0       -5.055556   -1.217147   -0.640069
     33          6           0        4.377515    1.409890   -0.218103
     34          6           0       -4.040605   -0.419982   -0.309876
     35          6           0        3.115991    1.731263    0.080346
     36          6           0       -2.629304   -0.781582   -0.595483
     37          6           0        2.801547    2.962636    0.782853
     38          6           0       -2.293477   -2.179568   -0.962502
     39          6           0        2.116660    0.694626   -0.177685
     40          6           0       -1.580850    0.150732   -0.343927
     41          6           0        0.723914    0.965669   -0.108486
     42          6           0       -0.200432   -0.027324   -0.377009
     43          1           0       13.486688   -0.469994    1.458057
     44          1           0       13.397934   -1.996234    2.109753
     45          1           0      -14.318141   -0.548143    1.682064
     46          1           0      -14.236825   -0.486318   -0.159151
     47          1           0       12.934220   -3.041077   -0.318748
     48          1           0      -13.183644    1.759700    1.621087
     49          1           0       13.806652   -0.212951   -1.244995
     50          1           0       13.097046   -1.365499   -2.194963
     51          1           0      -13.393203    1.620765   -1.273748
     52          1           0      -12.575011    2.700787   -0.598138
     53          1           0       11.472953   -0.574326    3.326642
     54          1           0       10.158182    0.297967    2.702348
     55          1           0       11.690326    0.949893    2.338045
     56          1           0       10.627640   -2.744926    0.460023
     57          1           0       11.225286   -2.907422    2.124708
     58          1           0        9.648195   -2.056392    1.762371
     59          1           0      -11.660709    0.220481    2.548094
     60          1           0      -10.715002   -1.129116    2.352488
     61          1           0      -12.465870   -1.166161    2.907110
     62          1           0      -13.572436   -2.775869    1.118075
     63          1           0      -11.634487   -3.065055    0.943475
     64          1           0      -12.794772   -2.648697   -0.490384
     65          1           0        8.803831   -0.320226    0.512645
     66          1           0      -10.121103   -2.134597   -0.348076
     67          1           0        9.917057    0.317235   -2.545371
     68          1           0       11.689114    1.425264   -2.692431
     69          1           0       11.409922   -0.428666   -3.487756
     70          1           0      -11.097261    1.878052   -2.584102
     71          1           0       -9.819957    0.783162   -1.951687
     72          1           0      -10.064187    2.468983   -1.126623
     73          1           0       14.898805   -2.880274    0.346065
     74          1           0      -15.280356    1.905312    1.487187
     75          1           0       10.215804    2.270376   -0.828145
     76          1           0       -8.647436    0.542205   -0.468130
     77          1           0        8.609772    4.188098   -0.536678
     78          1           0        7.133249    4.210285    0.603263
     79          1           0        8.827879    3.854287    1.074805
     80          1           0       -8.146709   -3.472851    0.003147
     81          1           0       -8.153452   -3.053933   -1.821566
     82          1           0       -6.609843   -3.184587   -0.876522
     83          1           0        6.943005    0.516050   -0.341064
     84          1           0       -6.515002    0.468069   -0.296572
     85          1           0        5.479108    2.969131    0.759225
     86          1           0       -4.843291   -2.277194   -0.881320
     87          1           0        4.556540    0.331335   -0.706352
     88          1           0       -4.073729    0.525657    0.198025
     89          1           0        3.137865    3.198087    1.898098
     90          1           0        1.650059    2.936527    0.804259
     91          1           0        3.198837    3.878555    0.351285
     92          1           0       -2.551037   -2.963903   -0.352054
     93          1           0       -2.825029   -2.391405   -1.833474
     94          1           0       -1.178722   -2.299482   -1.118127
     95          1           0        2.535061   -0.294747   -0.568230
     96          1           0       -2.033754    1.080377   -0.143079
     97          1           0        0.486989    1.977233    0.252914
     98          1           0        0.198393   -1.035444   -0.744229
 ---------------------------------------------------------------------

 SCF Done:  E(RCAM-B3LYP) =  -1707.00131104     A.U. after   15 cycles

 Excitation energies and oscillator strengths:

 Excited State   1:      Singlet-A      2.3301 eV  532.10 nm  f=3.4810  <S**2>=0.000
     155 ->158         0.13805
     156 ->157         0.69380
 This state for optimization and/or second-order correction.
 Total Energy, E(TD-HF/TD-DFT) =  -1706.91568157
 Copying the excited state density for this state as the 1-particle RhoCI density.

 The electronic state is 1-A.
 Alpha  occ. eigenvalues --  -19.19951 -19.19377 -10.31349 -10.29501 -10.29344
 Alpha  occ. eigenvalues --  -10.28049 -10.27541 -10.27534 -10.27493 -10.27475
 Alpha  occ. eigenvalues --  -10.27394 -10.27181 -10.27041 -10.26931 -10.26928
 Alpha  occ. eigenvalues --  -10.26878 -10.26790 -10.26771 -10.26725 -10.26688
 Alpha  occ. eigenvalues --  -10.26612 -10.26442 -10.26382 -10.26250 -10.26120
 Alpha  occ. eigenvalues --  -10.26078 -10.25808 -10.25801 -10.25762 -10.25668
 Alpha  occ. eigenvalues --  -10.25615 -10.25565 -10.25461 -10.25416 -10.25316
 Alpha  occ. eigenvalues --  -10.24932 -10.24773 -10.24428 -10.24233 -10.24109
 Alpha  occ. eigenvalues --  -10.23530 -10.23309  -1.08566  -1.06288  -0.93767
 Alpha  occ. eigenvalues --   -0.93473  -0.92225  -0.91323  -0.90642  -0.89447
 Alpha  occ. eigenvalues --   -0.87585  -0.87165  -0.87091  -0.85256  -0.84594
 Alpha  occ. eigenvalues --   -0.83312  -0.81864  -0.80188  -0.79709  -0.78607
 Alpha  occ. eigenvalues --   -0.77173  -0.77135  -0.76497  -0.76320  -0.75750
 Alpha  occ. eigenvalues --   -0.75623  -0.75343  -0.73995  -0.72836  -0.70199
 Alpha  occ. eigenvalues --   -0.68113  -0.67303  -0.65863  -0.64895  -0.63846
 Alpha  occ. eigenvalues --   -0.62884  -0.62264  -0.61655  -0.60400  -0.59295
 Alpha  occ. eigenvalues --   -0.59144  -0.58416  -0.58219  -0.57761  -0.56541
 Alpha  occ. eigenvalues --   -0.55718  -0.54943  -0.54857  -0.54052  -0.53795
 Alpha  occ. eigenvalues --   -0.53218  -0.52596  -0.51936  -0.51547  -0.51047
 Alpha  occ. eigenvalues --   -0.50541  -0.50381  -0.50050  -0.49776  -0.49462
 Alpha  occ. eigenvalues --   -0.49440  -0.48745  -0.48502  -0.48477  -0.48169
 Alpha  occ. eigenvalues --   -0.47961  -0.47545  -0.47331  -0.46776  -0.46367
 Alpha  occ. eigenvalues --   -0.46160  -0.45945  -0.45918  -0.45453  -0.44629
 Alpha  occ. eigenvalues --   -0.44460  -0.44043  -0.44002  -0.43590  -0.43418
 Alpha  occ. eigenvalues --   -0.43267  -0.42676  -0.42474  -0.42228  -0.42181
 Alpha  occ. eigenvalues --   -0.42015  -0.41263  -0.41125  -0.40981  -0.40544
 Alpha  occ. eigenvalues --   -0.40446  -0.40366  -0.39871  -0.39618  -0.39420
 Alpha  occ. eigenvalues --   -0.39372  -0.38855  -0.38680  -0.38319  -0.38147
 Alpha  occ. eigenvalues --   -0.37190  -0.36671  -0.36623  -0.35689  -0.34904
 Alpha  occ. eigenvalues --   -0.34587  -0.33712  -0.33217  -0.32220  -0.31339
 Alpha  occ. eigenvalues --   -0.31033  -0.29238  -0.28006  -0.26294  -0.23884
 Alpha  occ. eigenvalues --   -0.19417
 Alpha virt. eigenvalues --   -0.05346  -0.00060   0.02808   0.05697   0.07755
 Alpha virt. eigenvalues --    0.08955   0.10551   0.11640   0.11812   0.12004
 Alpha virt. eigenvalues --    0.12155   0.12405   0.12613   0.12871   0.13289

 Mulliken charges:
               1
     1  O   -0.564683
     2  O   -0.598593
     3  C   -0.018699
     4  C   -0.010292
     5  C   -0.175973
     6  C   -0.180155
     7  C    0.138383
     8  C    0.175172
     9  C    0.019815
    10  C    0.051284
    11  C   -0.214085
    12  C   -0.224279
    13  C    0.082982
    14  C    0.020890
    15  C   -0.312720
    16  C   -0.296406
    17  C   -0.295587
    18  C   -0.294258
    19  C   -0.122898
    20  C   -0.140026
    21  C   -0.320369
    22  C   -0.347520
    23  C   -0.121090
    24  C   -0.087714
    25  C    0.124462
    26  C    0.090786
    27  C   -0.381161
    28  C   -0.375914
    29  C   -0.120925
    30  C   -0.139000
    31  C   -0.106847
    32  C   -0.101545
    33  C   -0.114335
    34  C   -0.081158
    35  C    0.139741
    36  C    0.078058
    37  C   -0.368822
    38  C   -0.381377
    39  C   -0.125563
    40  C   -0.117987
    41  C   -0.078498
    42  C   -0.093861
    43  H    0.120769
    44  H    0.069168
    45  H    0.088827
    46  H    0.105090
    47  H    0.090684
    48  H    0.092089
    49  H    0.133304
    50  H    0.104253
    51  H    0.126604
    52  H    0.109758
    53  H    0.092797
    54  H    0.099053
    55  H    0.119042
    56  H    0.113371
    57  H    0.101795
    58  H    0.109694
    59  H    0.109965
    60  H    0.106447
    61  H    0.101499
    62  H    0.070277
    63  H    0.070335
    64  H    0.120481
    65  H    0.095597
    66  H    0.082208
    67  H    0.138430
    68  H    0.043996
    69  H    0.070850
    70  H    0.124320
    71  H    0.115222
    72  H    0.114623
    73  H    0.293084
    74  H    0.296406
    75  H    0.088652
    76  H    0.090996
    77  H    0.123197
    78  H    0.101776
    79  H    0.122639
    80  H    0.105338
    81  H    0.137431
    82  H    0.097317
    83  H    0.074162
    84  H    0.087263
    85  H    0.067207
    86  H    0.099699
    87  H    0.059306
    88  H    0.088230
    89  H    0.111342
    90  H    0.089475
    91  H    0.124631
    92  H    0.129506
    93  H    0.123907
    94  H    0.097360
    95  H    0.088767
    96  H    0.070095
    97  H    0.096131
    98  H    0.086302
 Sum of Mulliken charges =  -0.00000

 Dipole moment (field-independent basis, Debye):
    X=             -0.5201    Y=             -1.5075    Z=              2.1421  Tot=              2.6705
 Quadrupole moment (field-independent basis, Debye-Ang):
   XX=           -284.5575   YY=           -242.8797   ZZ=           -259.7547
   XY=              3.7678   XZ=             -0.4257   YZ=              4.7927

 Normal termination of Gaussian 16 at Wed Jul 10 06:58:44 2019.
