 Gaussian 16, Revision A.03,
 Gaussian 16:  ES64L-G16RevA.03 25-Dec-2016

 -------------------------------------
 # td=(NStates=1) CAM-B3LYP/6-31G(d,p)
 -------------------------------------

 --
 TD
 --
 Symbolic Z-matrix:
 Charge =  0 Multiplicity = 1

                         Standard orientation:
 ---------------------------------------------------------------------
 Center     Atomic      Atomic             Coordinates (Angstroms)
 Number     Number       Type             X           Y           Z
 ---------------------------------------------------------------------
      1          8           0       14.743944   -2.150639   -0.391596
      2          8           0      -14.726925    2.018165    0.732229
      3          6           0       11.413456   -1.262860    1.141700
      4          6           0      -12.353808   -0.997179    0.729548
      5          6           0       12.883230   -1.487470    1.011566
      6          6           0      -13.699972   -0.161580    0.800688
      7          6           0       13.328304   -1.915556   -0.371978
      8          6           0      -13.481305    1.315220    0.799888
      9          6           0       10.968114   -0.356615   -0.000465
     10          6           0      -11.332639   -0.289936   -0.122216
     11          6           0       13.021705   -0.869909   -1.386558
     12          6           0      -12.774542    1.671840   -0.549550
     13          6           0       11.613012   -0.138582   -1.090299
     14          6           0      -11.577725    0.887778   -0.803604
     15          6           0       11.158164   -0.593613    2.558165
     16          6           0       10.569713   -2.566141    1.075053
     17          6           0      -11.837130   -0.976275    2.167905
     18          6           0      -12.598866   -2.394705    0.309964
     19          6           0        9.674838    0.432497    0.106469
     20          6           0      -10.062518   -0.997150   -0.497757
     21          6           0       11.253609    0.734237   -2.299302
     22          6           0      -10.797280    1.565325   -1.840858
     23          6           0        9.385047    1.658023   -0.146694
     24          6           0       -8.794264   -0.540410   -0.366452
     25          6           0        8.077036    2.299406    0.159537
     26          6           0       -7.586005   -1.343197   -0.556103
     27          6           0        8.162693    3.767197    0.505436
     28          6           0       -7.662584   -2.725150   -0.979687
     29          6           0        6.896874    1.601715   -0.035583
     30          6           0       -6.448792   -0.716040   -0.297763
     31          6           0        5.593800    2.190725    0.254248
     32          6           0       -5.057302   -1.094087   -0.545076
     33          6           0        4.448396    1.353877   -0.033835
     34          6           0       -4.000950   -0.357693   -0.349055
     35          6           0        3.131160    1.716648    0.154075
     36          6           0       -2.597776   -0.821925   -0.381851
     37          6           0        2.779380    3.110352    0.713381
     38          6           0       -2.344955   -2.285047   -0.572603
     39          6           0        2.141491    0.799957   -0.101482
     40          6           0       -1.623656    0.106573   -0.186984
     41          6           0        0.652641    0.881554    0.063693
     42          6           0       -0.179780   -0.004168   -0.304926
     43          1           0       13.544186   -0.689137    1.484713
     44          1           0       13.163251   -2.360027    1.675019
     45          1           0      -14.225485   -0.430006    1.796456
     46          1           0      -14.353442   -0.407355   -0.099648
     47          1           0       12.819093   -2.867559   -0.840852
     48          1           0      -12.866018    1.490696    1.646677
     49          1           0       13.890976   -0.288828   -1.071206
     50          1           0       13.125977   -1.480000   -2.313693
     51          1           0      -13.526470    1.537086   -1.459373
     52          1           0      -12.601202    2.842580   -0.548675
     53          1           0       11.769219   -1.182136    3.297210
     54          1           0       10.031192   -0.595630    2.777446
     55          1           0       11.293712    0.506197    2.519642
     56          1           0       10.760804   -2.838222   -0.023529
     57          1           0       11.209999   -3.261660    1.822791
     58          1           0        9.388629   -2.356733    1.279045
     59          1           0      -11.506969    0.067704    2.560691
     60          1           0      -10.942257   -1.799919    2.157590
     61          1           0      -12.708450   -1.479242    2.904980
     62          1           0      -13.484551   -2.797347    0.647051
     63          1           0      -11.657417   -3.022684    0.761349
     64          1           0      -12.697276   -2.485031   -0.848250
     65          1           0        8.952624    0.014073    0.652321
     66          1           0      -10.272133   -2.056417   -0.754277
     67          1           0       10.104110    0.841702   -2.520118
     68          1           0       11.730768    1.834055   -2.239035
     69          1           0       11.765385    0.344586   -3.331378
     70          1           0      -11.390118    1.711111   -2.808380
     71          1           0      -10.030621    0.920378   -2.282239
     72          1           0      -10.303068    2.461538   -1.662658
     73          1           0       15.095778   -2.815839    0.193777
     74          1           0      -15.306853    2.100451    1.515520
     75          1           0       10.144809    2.242550   -0.573198
     76          1           0       -8.620118    0.523181    0.087452
     77          1           0        8.644344    4.263098   -0.343489
     78          1           0        7.250859    4.285746    0.684438
     79          1           0        8.757879    3.889928    1.303835
     80          1           0       -8.257359   -3.293997   -0.375271
     81          1           0       -8.314577   -2.596577   -2.082692
     82          1           0       -6.646872   -3.234150   -0.811816
     83          1           0        6.992664    0.497178   -0.328367
     84          1           0       -6.592840    0.374317   -0.084343
     85          1           0        5.607444    3.108460    0.806344
     86          1           0       -5.201037   -2.141121   -0.617111
     87          1           0        4.737085    0.273433   -0.196733
     88          1           0       -4.046426    0.574626   -0.128309
     89          1           0        3.211659    3.143174    1.815111
     90          1           0        1.729324    3.108963    0.960098
     91          1           0        3.065114    3.915767    0.181644
     92          1           0       -2.766891   -3.082677    0.341851
     93          1           0       -2.567396   -2.701642   -1.388018
     94          1           0       -1.182100   -2.524305   -0.437315
     95          1           0        2.468922   -0.164533   -0.700726
     96          1           0       -1.976123    1.224416    0.170380
     97          1           0        0.411330    1.711124    0.713679
     98          1           0        0.195884   -0.981368   -0.995286
 ---------------------------------------------------------------------

 SCF Done:  E(RCAM-B3LYP) =  -1706.94838539     A.U. after   14 cycles

 Excitation energies and oscillator strengths:

 Excited State   1:      Singlet-A      2.9258 eV  423.76 nm  f=3.4374  <S**2>=0.000
     155 ->158        -0.17230
     156 ->157         0.67870
 This state for optimization and/or second-order correction.
 Total Energy, E(TD-HF/TD-DFT) =  -1706.84086470
 Copying the excited state density for this state as the 1-particle RhoCI density.

 The electronic state is 1-A.
 Alpha  occ. eigenvalues --  -19.20627 -19.20573 -10.30653 -10.29960 -10.27733
 Alpha  occ. eigenvalues --  -10.27682 -10.27637 -10.27620 -10.27591 -10.27507
 Alpha  occ. eigenvalues --  -10.27370 -10.27240 -10.27146 -10.27115 -10.27037
 Alpha  occ. eigenvalues --  -10.26956 -10.26809 -10.26777 -10.26596 -10.26469
 Alpha  occ. eigenvalues --  -10.26387 -10.26264 -10.26250 -10.26162 -10.26018
 Alpha  occ. eigenvalues --  -10.25973 -10.25946 -10.25938 -10.25768 -10.25752
 Alpha  occ. eigenvalues --  -10.25738 -10.25661 -10.25609 -10.25320 -10.25133
 Alpha  occ. eigenvalues --  -10.24944 -10.24754 -10.24659 -10.24578 -10.24493
 Alpha  occ. eigenvalues --  -10.24039 -10.23879  -1.08816  -1.07846  -0.94063
 Alpha  occ. eigenvalues --   -0.93809  -0.92233  -0.91465  -0.90772  -0.90039
 Alpha  occ. eigenvalues --   -0.87738  -0.87536  -0.86534  -0.85357  -0.84755
 Alpha  occ. eigenvalues --   -0.83105  -0.82176  -0.80727  -0.80372  -0.77529
 Alpha  occ. eigenvalues --   -0.76998  -0.76590  -0.75925  -0.75621  -0.75313
 Alpha  occ. eigenvalues --   -0.75300  -0.74824  -0.74099  -0.73381  -0.70635
 Alpha  occ. eigenvalues --   -0.68769  -0.67054  -0.65810  -0.64549  -0.63611
 Alpha  occ. eigenvalues --   -0.63400  -0.62665  -0.61521  -0.60139  -0.59936
 Alpha  occ. eigenvalues --   -0.58999  -0.58728  -0.58548  -0.57521  -0.56128
 Alpha  occ. eigenvalues --   -0.55744  -0.55284  -0.54978  -0.54518  -0.53940
 Alpha  occ. eigenvalues --   -0.53099  -0.52398  -0.52051  -0.51343  -0.50708
 Alpha  occ. eigenvalues --   -0.50311  -0.50110  -0.49999  -0.49417  -0.49262
 Alpha  occ. eigenvalues --   -0.49098  -0.48819  -0.48306  -0.48069  -0.47852
 Alpha  occ. eigenvalues --   -0.47434  -0.47127  -0.46635  -0.46370  -0.46098
 Alpha  occ. eigenvalues --   -0.46042  -0.45749  -0.45042  -0.44717  -0.44596
 Alpha  occ. eigenvalues --   -0.44207  -0.44057  -0.43649  -0.42985  -0.42939
 Alpha  occ. eigenvalues --   -0.42740  -0.42195  -0.41746  -0.41604  -0.41506
 Alpha  occ. eigenvalues --   -0.41108  -0.41074  -0.40885  -0.40809  -0.40605
 Alpha  occ. eigenvalues --   -0.39872  -0.39772  -0.39710  -0.39572  -0.39074
 Alpha  occ. eigenvalues --   -0.38773  -0.38608  -0.38462  -0.37847  -0.37633
 Alpha  occ. eigenvalues --   -0.37306  -0.36756  -0.35922  -0.35786  -0.35380
 Alpha  occ. eigenvalues --   -0.35034  -0.34391  -0.34198  -0.32460  -0.32241
 Alpha  occ. eigenvalues --   -0.31766  -0.30193  -0.28454  -0.26955  -0.23827
 Alpha  occ. eigenvalues --   -0.21079
 Alpha virt. eigenvalues --   -0.03666   0.00089   0.03822   0.05837   0.07472
 Alpha virt. eigenvalues --    0.09969   0.10950   0.10961   0.11488   0.11782
 Alpha virt. eigenvalues --    0.12061   0.12467   0.12980   0.13022   0.13212

 Mulliken charges:
               1
     1  O   -0.579664
     2  O   -0.579671
     3  C   -0.015551
     4  C   -0.013523
     5  C   -0.189949
     6  C   -0.178126
     7  C    0.156822
     8  C    0.185233
     9  C    0.083150
    10  C    0.048782
    11  C   -0.209375
    12  C   -0.220227
    13  C    0.044369
    14  C    0.095969
    15  C   -0.304886
    16  C   -0.268515
    17  C   -0.270909
    18  C   -0.295888
    19  C   -0.110961
    20  C   -0.169344
    21  C   -0.357440
    22  C   -0.373997
    23  C   -0.085379
    24  C   -0.081093
    25  C    0.038100
    26  C    0.153919
    27  C   -0.366081
    28  C   -0.363132
    29  C   -0.105553
    30  C   -0.167702
    31  C   -0.099937
    32  C   -0.056806
    33  C   -0.131591
    34  C   -0.064893
    35  C    0.123076
    36  C    0.121658
    37  C   -0.359665
    38  C   -0.353136
    39  C   -0.154588
    40  C   -0.150367
    41  C   -0.065660
    42  C   -0.068799
    43  H    0.110870
    44  H    0.067090
    45  H    0.068176
    46  H    0.090386
    47  H    0.065479
    48  H    0.082975
    49  H    0.125528
    50  H    0.108985
    51  H    0.105519
    52  H    0.094708
    53  H    0.100831
    54  H    0.091505
    55  H    0.111828
    56  H    0.104091
    57  H    0.087250
    58  H    0.099977
    59  H    0.106634
    60  H    0.082113
    61  H    0.070912
    62  H    0.118474
    63  H    0.079129
    64  H    0.099089
    65  H    0.059489
    66  H    0.086576
    67  H    0.117558
    68  H    0.103952
    69  H    0.090142
    70  H    0.099497
    71  H    0.109391
    72  H    0.127210
    73  H    0.305412
    74  H    0.304207
    75  H    0.080534
    76  H    0.086961
    77  H    0.121293
    78  H    0.109759
    79  H    0.132739
    80  H    0.134036
    81  H    0.098865
    82  H    0.104726
    83  H    0.083886
    84  H    0.060021
    85  H    0.097837
    86  H    0.062451
    87  H    0.091499
    88  H    0.060708
    89  H    0.100100
    90  H    0.108010
    91  H    0.136290
    92  H    0.084186
    93  H    0.138584
    94  H    0.090059
    95  H    0.069281
    96  H    0.072963
    97  H    0.085192
    98  H    0.076363
 Sum of Mulliken charges =  -0.00000

 Dipole moment (field-independent basis, Debye):
    X=             -0.1740    Y=             -0.7587    Z=              2.5912  Tot=              2.7056
 Quadrupole moment (field-independent basis, Debye-Ang):
   XX=           -254.4721   YY=           -243.8479   ZZ=           -260.5111
   XY=              5.1983   XZ=              0.9631   YZ=              4.1694

 Normal termination of Gaussian 16 at Tue Jul  2 21:10:58 2019.
