 Gaussian 16, Revision A.03,
 Gaussian 16:  ES64L-G16RevA.03 25-Dec-2016

 -------------------------------------
 # td=(NStates=1) CAM-B3LYP/6-31G(d,p)
 -------------------------------------

 --
 TD
 --
 Symbolic Z-matrix:
 Charge =  0 Multiplicity = 1

                         Standard orientation:
 ---------------------------------------------------------------------
 Center     Atomic      Atomic             Coordinates (Angstroms)
 Number     Number       Type             X           Y           Z
 ---------------------------------------------------------------------
      1          8           0       14.719832   -2.291809   -0.472492
      2          8           0      -14.742761    1.972230    0.593171
      3          6           0       11.502072   -1.170762    1.118147
      4          6           0      -12.342268   -0.947817    0.749415
      5          6           0       12.957626   -1.423293    1.024234
      6          6           0      -13.668436   -0.167520    0.814443
      7          6           0       13.350339   -1.931854   -0.295562
      8          6           0      -13.494912    1.322478    0.629502
      9          6           0       10.987086   -0.330560   -0.000516
     10          6           0      -11.396732   -0.283950   -0.286807
     11          6           0       13.053566   -0.878020   -1.429723
     12          6           0      -12.831523    1.621553   -0.663578
     13          6           0       11.706453   -0.243890   -1.092951
     14          6           0      -11.487881    0.826925   -0.766456
     15          6           0       11.266991   -0.326785    2.437428
     16          6           0       10.622559   -2.492886    1.311364
     17          6           0      -11.777824   -1.018810    2.226173
     18          6           0      -12.619673   -2.374119    0.361592
     19          6           0        9.630512    0.349508    0.138059
     20          6           0      -10.054071   -1.185919   -0.411897
     21          6           0       11.270721    0.461398   -2.361974
     22          6           0      -10.688476    1.574937   -1.801061
     23          6           0        9.366734    1.658558   -0.065072
     24          6           0       -8.855319   -0.560949   -0.190661
     25          6           0        8.056219    2.293432    0.126744
     26          6           0       -7.571238   -1.229472   -0.374093
     27          6           0        8.064041    3.752015    0.509581
     28          6           0       -7.655895   -2.729632   -0.823082
     29          6           0        6.881420    1.661026    0.017020
     30          6           0       -6.431289   -0.497405   -0.211445
     31          6           0        5.510074    2.169050    0.197030
     32          6           0       -5.122331   -1.068021   -0.339096
     33          6           0        4.391404    1.408639   -0.009292
     34          6           0       -3.923632   -0.330744   -0.296528
     35          6           0        3.014859    1.759075    0.154445
     36          6           0       -2.591852   -0.719935   -0.309204
     37          6           0        2.792092    3.122526    0.598882
     38          6           0       -2.394391   -2.152928   -1.036797
     39          6           0        2.184217    0.752115   -0.193928
     40          6           0       -1.582927    0.054327   -0.103161
     41          6           0        0.738634    0.873593    0.002659
     42          6           0       -0.134382   -0.163278   -0.130127
     43          1           0       13.702674   -0.551350    1.052252
     44          1           0       13.107311   -2.134408    1.919218
     45          1           0      -14.134733   -0.468518    1.797340
     46          1           0      -14.041454   -0.639573   -0.030586
     47          1           0       12.595842   -2.883313   -0.444479
     48          1           0      -13.112558    1.750876    1.633950
     49          1           0       13.922960   -0.403382   -1.386322
     50          1           0       12.985837   -1.465405   -2.381748
     51          1           0      -13.550877    1.291162   -1.307142
     52          1           0      -12.696404    2.798619   -0.964540
     53          1           0       11.690280   -0.825382    3.350632
     54          1           0       10.224209   -0.147786    2.711353
     55          1           0       11.668782    0.622425    2.480751
     56          1           0       10.541244   -3.125653    0.454826
     57          1           0       10.970270   -3.108556    2.142857
     58          1           0        9.515783   -2.313597    1.387075
     59          1           0      -11.756656   -0.016921    2.592992
     60          1           0      -10.658674   -1.193077    2.117813
     61          1           0      -12.480157   -1.497701    2.921072
     62          1           0      -13.349521   -2.794948    1.114226
     63          1           0      -11.684050   -3.167417    0.482380
     64          1           0      -12.958282   -2.532939   -0.722499
     65          1           0        8.799555   -0.308907    0.675791
     66          1           0      -10.187471   -2.294180   -0.805709
     67          1           0       10.365307    0.644140   -2.469981
     68          1           0       11.862715    1.346813   -2.586355
     69          1           0       11.298457   -0.148430   -3.204589
     70          1           0      -11.269310    2.234966   -2.461129
     71          1           0      -10.261162    0.849815   -2.635014
     72          1           0      -10.095157    2.095180   -1.090251
     73          1           0       14.992376   -2.916031    0.264033
     74          1           0      -15.592970    1.516513    1.054318
     75          1           0       10.183911    2.384099   -0.318190
     76          1           0       -8.830979    0.381015    0.156056
     77          1           0        8.820483    4.459493   -0.106416
     78          1           0        7.008005    4.172317    0.292711
     79          1           0        8.541287    3.842266    1.546487
     80          1           0       -8.390798   -3.281403   -0.215352
     81          1           0       -8.327956   -2.777257   -1.754624
     82          1           0       -6.770730   -3.256522   -0.894058
     83          1           0        7.116202    0.655305   -0.247833
     84          1           0       -6.575540    0.479620    0.144663
     85          1           0        5.378776    3.411278    0.356267
     86          1           0       -5.086581   -1.990105   -0.652438
     87          1           0        4.733804    0.353723   -0.603263
     88          1           0       -4.016138    0.715597   -0.048669
     89          1           0        2.950695    3.329956    1.517698
     90          1           0        1.756009    3.380627    0.473430
     91          1           0        3.169223    3.891774    0.121011
     92          1           0       -2.994752   -2.860025   -0.262862
     93          1           0       -2.746988   -2.391128   -2.005549
     94          1           0       -1.395311   -2.597890   -1.311562
     95          1           0        2.379052   -0.340415   -0.531041
     96          1           0       -1.984999    1.114518    0.254203
     97          1           0        0.208499    1.819023    0.174562
     98          1           0        0.308679   -1.147896   -0.055448
 ---------------------------------------------------------------------

 SCF Done:  E(RCAM-B3LYP) =  -1706.89765025     A.U. after   13 cycles

 Excitation energies and oscillator strengths:

 Excited State   1:      Singlet-A      2.8606 eV  433.42 nm  f=3.6932  <S**2>=0.000
     155 ->158        -0.18867
     156 ->157         0.67547
 This state for optimization and/or second-order correction.
 Total Energy, E(TD-HF/TD-DFT) =  -1706.79252419
 Copying the excited state density for this state as the 1-particle RhoCI density.

 The electronic state is 1-A.
 Alpha  occ. eigenvalues --  -19.21756 -19.19928 -10.30542 -10.30049 -10.28080
 Alpha  occ. eigenvalues --  -10.27996 -10.27868 -10.27643 -10.27633 -10.27542
 Alpha  occ. eigenvalues --  -10.27462 -10.27275 -10.27066 -10.26916 -10.26731
 Alpha  occ. eigenvalues --  -10.26666 -10.26602 -10.26569 -10.26547 -10.26434
 Alpha  occ. eigenvalues --  -10.26364 -10.26199 -10.26106 -10.25901 -10.25844
 Alpha  occ. eigenvalues --  -10.25832 -10.25637 -10.25630 -10.25511 -10.25497
 Alpha  occ. eigenvalues --  -10.25483 -10.25334 -10.25312 -10.25290 -10.25184
 Alpha  occ. eigenvalues --  -10.24952 -10.24586 -10.24416 -10.24300 -10.23745
 Alpha  occ. eigenvalues --  -10.23367 -10.21649  -1.08663  -1.07037  -0.94198
 Alpha  occ. eigenvalues --   -0.94003  -0.92675  -0.91753  -0.90560  -0.90178
 Alpha  occ. eigenvalues --   -0.87739  -0.87013  -0.86801  -0.85033  -0.84464
 Alpha  occ. eigenvalues --   -0.82661  -0.82262  -0.80315  -0.79802  -0.78782
 Alpha  occ. eigenvalues --   -0.77143  -0.77011  -0.76506  -0.76293  -0.76065
 Alpha  occ. eigenvalues --   -0.75849  -0.75492  -0.75019  -0.74531  -0.70908
 Alpha  occ. eigenvalues --   -0.68524  -0.66956  -0.65879  -0.65543  -0.64510
 Alpha  occ. eigenvalues --   -0.63767  -0.62599  -0.62022  -0.61034  -0.59953
 Alpha  occ. eigenvalues --   -0.58836  -0.58500  -0.57480  -0.57067  -0.56646
 Alpha  occ. eigenvalues --   -0.55859  -0.55614  -0.55081  -0.54473  -0.53886
 Alpha  occ. eigenvalues --   -0.53047  -0.52428  -0.52172  -0.51624  -0.51463
 Alpha  occ. eigenvalues --   -0.51023  -0.50549  -0.50419  -0.50101  -0.49560
 Alpha  occ. eigenvalues --   -0.49151  -0.48779  -0.48534  -0.47593  -0.47499
 Alpha  occ. eigenvalues --   -0.47100  -0.46966  -0.46564  -0.46547  -0.46295
 Alpha  occ. eigenvalues --   -0.46138  -0.45921  -0.45471  -0.45395  -0.44814
 Alpha  occ. eigenvalues --   -0.44384  -0.44188  -0.43876  -0.43595  -0.43215
 Alpha  occ. eigenvalues --   -0.42841  -0.42735  -0.42379  -0.42043  -0.41711
 Alpha  occ. eigenvalues --   -0.41272  -0.41265  -0.41203  -0.41165  -0.40852
 Alpha  occ. eigenvalues --   -0.40437  -0.40002  -0.39841  -0.39611  -0.39401
 Alpha  occ. eigenvalues --   -0.39160  -0.39059  -0.38857  -0.38132  -0.37523
 Alpha  occ. eigenvalues --   -0.37321  -0.36963  -0.36697  -0.35540  -0.34798
 Alpha  occ. eigenvalues --   -0.34269  -0.34179  -0.33089  -0.32185  -0.31299
 Alpha  occ. eigenvalues --   -0.30838  -0.30400  -0.29464  -0.27626  -0.24151
 Alpha  occ. eigenvalues --   -0.21214
 Alpha virt. eigenvalues --   -0.04071  -0.00418   0.03278   0.06632   0.08865
 Alpha virt. eigenvalues --    0.10120   0.10643   0.11218   0.11670   0.12051
 Alpha virt. eigenvalues --    0.12103   0.12867   0.13141   0.13189   0.13551

 Mulliken charges:
               1
     1  O   -0.569601
     2  O   -0.600938
     3  C   -0.025550
     4  C   -0.005947
     5  C   -0.166582
     6  C   -0.205145
     7  C    0.153675
     8  C    0.220530
     9  C    0.098559
    10  C    0.048076
    11  C   -0.204831
    12  C   -0.217030
    13  C    0.008124
    14  C    0.026337
    15  C   -0.308601
    16  C   -0.319280
    17  C   -0.315597
    18  C   -0.293522
    19  C   -0.139633
    20  C   -0.156935
    21  C   -0.342839
    22  C   -0.340207
    23  C   -0.083708
    24  C   -0.068674
    25  C    0.090593
    26  C    0.117192
    27  C   -0.359481
    28  C   -0.380885
    29  C   -0.106558
    30  C   -0.121861
    31  C   -0.101782
    32  C   -0.070633
    33  C   -0.110055
    34  C   -0.122472
    35  C    0.121794
    36  C    0.154266
    37  C   -0.373133
    38  C   -0.370475
    39  C   -0.133830
    40  C   -0.157076
    41  C   -0.074741
    42  C   -0.096035
    43  H    0.094741
    44  H    0.076282
    45  H    0.079107
    46  H    0.101402
    47  H    0.037465
    48  H    0.067610
    49  H    0.133487
    50  H    0.119300
    51  H    0.131063
    52  H    0.088090
    53  H    0.081069
    54  H    0.101865
    55  H    0.112986
    56  H    0.113168
    57  H    0.106504
    58  H    0.101595
    59  H    0.101342
    60  H    0.108638
    61  H    0.103855
    62  H    0.094673
    63  H    0.077990
    64  H    0.094373
    65  H    0.091595
    66  H    0.090744
    67  H    0.109303
    68  H    0.108163
    69  H    0.102539
    70  H    0.114942
    71  H    0.104254
    72  H    0.132105
    73  H    0.307561
    74  H    0.304855
    75  H    0.095316
    76  H    0.080413
    77  H    0.086755
    78  H    0.102840
    79  H    0.120344
    80  H    0.121954
    81  H    0.115005
    82  H    0.117522
    83  H    0.072758
    84  H    0.079658
    85  H    0.069468
    86  H    0.068421
    87  H    0.071407
    88  H    0.067524
    89  H    0.144158
    90  H    0.106634
    91  H    0.134926
    92  H    0.088730
    93  H    0.127003
    94  H    0.096064
    95  H    0.102149
    96  H    0.065337
    97  H    0.084047
    98  H    0.093395
 Sum of Mulliken charges =  -0.00000

 Dipole moment (field-independent basis, Debye):
    X=             -0.6543    Y=             -1.1411    Z=              1.1225  Tot=              1.7292
 Quadrupole moment (field-independent basis, Debye-Ang):
   XX=           -260.0353   YY=           -246.8829   ZZ=           -260.6402
   XY=             15.8844   XZ=             11.2662   YZ=              0.6112

 Normal termination of Gaussian 16 at Mon Jul  8 20:04:40 2019.
