 Gaussian 16, Revision A.03,
 Gaussian 16:  ES64L-G16RevA.03 25-Dec-2016

 -------------------------------------
 # td=(NStates=1) CAM-B3LYP/6-31G(d,p)
 -------------------------------------

 --
 TD
 --
 Symbolic Z-matrix:
 Charge =  0 Multiplicity = 1

                         Standard orientation:
 ---------------------------------------------------------------------
 Center     Atomic      Atomic             Coordinates (Angstroms)
 Number     Number       Type             X           Y           Z
 ---------------------------------------------------------------------
      1          8           0       14.653320   -2.366435   -0.391307
      2          8           0      -14.820872    1.894042    0.715537
      3          6           0       11.426248   -1.167120    1.177441
      4          6           0      -12.290106   -0.973051    0.830767
      5          6           0       12.845779   -1.559187    1.088515
      6          6           0      -13.701370   -0.259786    0.689363
      7          6           0       13.210438   -1.987020   -0.366996
      8          6           0      -13.539497    1.276480    0.678915
      9          6           0       10.925261   -0.371937   -0.045728
     10          6           0      -11.285720   -0.373168   -0.123028
     11          6           0       13.046799   -0.867104   -1.322275
     12          6           0      -12.883800    1.641134   -0.566164
     13          6           0       11.660214   -0.343335   -1.223248
     14          6           0      -11.470919    0.859775   -0.786188
     15          6           0       11.184584   -0.397482    2.512199
     16          6           0       10.601553   -2.440223    1.285253
     17          6           0      -11.661436   -0.910756    2.306738
     18          6           0      -12.566168   -2.268374    0.423475
     19          6           0        9.602479    0.287237    0.150079
     20          6           0      -10.027442   -1.163271   -0.532558
     21          6           0       11.111164    0.356229   -2.430594
     22          6           0      -10.688688    1.326449   -1.927222
     23          6           0        9.376594    1.669679    0.025187
     24          6           0       -8.813346   -0.623575   -0.286616
     25          6           0        8.070319    2.355027    0.102614
     26          6           0       -7.523549   -1.347142   -0.475763
     27          6           0        8.175684    3.737220    0.615955
     28          6           0       -7.565317   -2.780881   -1.033772
     29          6           0        6.940363    1.672514   -0.055406
     30          6           0       -6.430946   -0.613369   -0.291308
     31          6           0        5.578571    2.159595    0.237900
     32          6           0       -5.068661   -1.066807   -0.343959
     33          6           0        4.502445    1.396309   -0.126797
     34          6           0       -3.999400   -0.282565   -0.247469
     35          6           0        3.108616    1.898257    0.053400
     36          6           0       -2.655850   -0.669131   -0.322101
     37          6           0        2.818351    3.310743    0.457321
     38          6           0       -2.301032   -2.115450   -0.575276
     39          6           0        2.146266    0.905446   -0.181010
     40          6           0       -1.605792    0.294422   -0.156740
     41          6           0        0.703632    1.080369   -0.002680
     42          6           0       -0.207155    0.065922   -0.314670
     43          1           0       13.558368   -0.887693    1.400713
     44          1           0       12.990355   -2.444001    1.675849
     45          1           0      -14.263361   -0.730752    1.363795
     46          1           0      -14.197332   -0.586107   -0.105324
     47          1           0       12.525472   -2.828624   -0.581610
     48          1           0      -12.789438    1.659073    1.584401
     49          1           0       13.675992    0.019034   -1.274592
     50          1           0       13.089293   -1.261766   -2.375585
     51          1           0      -13.524325    1.584711   -1.493249
     52          1           0      -12.374607    2.671341   -0.351775
     53          1           0       11.643420   -0.996021    3.382909
     54          1           0       10.150099   -0.378885    2.888902
     55          1           0       11.605555    0.613153    2.198338
     56          1           0       10.911521   -3.123898    0.275697
     57          1           0       10.943230   -2.999859    2.260168
     58          1           0        9.493799   -2.292071    1.176597
     59          1           0      -11.163491    0.025401    2.656366
     60          1           0      -10.900282   -1.688086    2.372319
     61          1           0      -12.327365   -1.422224    2.984525
     62          1           0      -13.144810   -2.943380    1.062568
     63          1           0      -11.698610   -3.084103    0.353092
     64          1           0      -12.902626   -2.499953   -0.723393
     65          1           0        8.715801   -0.237040    0.455196
     66          1           0      -10.151530   -2.245088   -0.552474
     67          1           0        9.900952    0.463454   -2.637771
     68          1           0       11.682225    1.062083   -2.667485
     69          1           0       11.258198   -0.250098   -3.245004
     70          1           0      -11.388703    1.681212   -2.755293
     71          1           0       -9.925257    0.715228   -2.135747
     72          1           0      -10.197390    2.361359   -1.784457
     73          1           0       14.609622   -3.118398    0.249910
     74          1           0      -15.364077    1.691515    1.508276
     75          1           0       10.324844    2.397125   -0.277226
     76          1           0       -8.653017    0.421389    0.113473
     77          1           0        8.994476    4.347846    0.147993
     78          1           0        7.198741    4.140032    0.415141
     79          1           0        8.320836    3.879865    1.799305
     80          1           0       -8.378723   -3.416254   -0.503021
     81          1           0       -8.147895   -2.508712   -2.099665
     82          1           0       -6.628353   -3.386442   -0.995504
     83          1           0        7.180392    0.597786   -0.496190
     84          1           0       -6.517693    0.396338    0.121446
     85          1           0        5.421376    3.038184    0.540496
     86          1           0       -4.938100   -2.027702   -0.759787
     87          1           0        4.562153    0.455681   -0.391005
     88          1           0       -4.207125    0.858283   -0.061252
     89          1           0        3.206615    3.471131    1.515265
     90          1           0        1.721546    3.502950    0.362127
     91          1           0        3.110390    3.936256   -0.198018
     92          1           0       -2.498953   -2.697307    0.178242
     93          1           0       -3.037075   -2.455859   -1.509910
     94          1           0       -1.206551   -2.291686   -0.567536
     95          1           0        2.316122   -0.110994   -0.259088
     96          1           0       -2.022427    1.212646    0.084124
     97          1           0        0.224359    2.014495    0.372205
     98          1           0        0.058770   -0.797857   -0.676662
 ---------------------------------------------------------------------

 SCF Done:  E(RCAM-B3LYP) =  -1706.92544115     A.U. after   14 cycles

 Excitation energies and oscillator strengths:

 Excited State   1:      Singlet-A      2.6080 eV  475.41 nm  f=3.5639  <S**2>=0.000
     155 ->158        -0.15688
     156 ->157         0.68533
 This state for optimization and/or second-order correction.
 Total Energy, E(TD-HF/TD-DFT) =  -1706.82960058
 Copying the excited state density for this state as the 1-particle RhoCI density.

 The electronic state is 1-A.
 Alpha  occ. eigenvalues --  -19.21158 -19.20744 -10.31257 -10.30641 -10.28277
 Alpha  occ. eigenvalues --  -10.28113 -10.27357 -10.27304 -10.27278 -10.27150
 Alpha  occ. eigenvalues --  -10.27056 -10.26887 -10.26767 -10.26725 -10.26554
 Alpha  occ. eigenvalues --  -10.26526 -10.26444 -10.26329 -10.26272 -10.26270
 Alpha  occ. eigenvalues --  -10.26182 -10.26157 -10.26042 -10.25968 -10.25954
 Alpha  occ. eigenvalues --  -10.25940 -10.25884 -10.25800 -10.25719 -10.25696
 Alpha  occ. eigenvalues --  -10.25614 -10.25580 -10.25472 -10.25384 -10.25375
 Alpha  occ. eigenvalues --  -10.25194 -10.25180 -10.25107 -10.24269 -10.23784
 Alpha  occ. eigenvalues --  -10.23537 -10.22835  -1.08356  -1.07322  -0.93861
 Alpha  occ. eigenvalues --   -0.93448  -0.92094  -0.91645  -0.90411  -0.89740
 Alpha  occ. eigenvalues --   -0.88008  -0.87348  -0.86751  -0.85098  -0.84473
 Alpha  occ. eigenvalues --   -0.83216  -0.82257  -0.80251  -0.79906  -0.79007
 Alpha  occ. eigenvalues --   -0.77002  -0.76893  -0.76665  -0.76103  -0.75768
 Alpha  occ. eigenvalues --   -0.75283  -0.74685  -0.74394  -0.73615  -0.70790
 Alpha  occ. eigenvalues --   -0.68307  -0.67091  -0.65920  -0.65029  -0.64226
 Alpha  occ. eigenvalues --   -0.63775  -0.63378  -0.62835  -0.61629  -0.60578
 Alpha  occ. eigenvalues --   -0.58664  -0.58385  -0.58001  -0.57752  -0.55908
 Alpha  occ. eigenvalues --   -0.55496  -0.55043  -0.54847  -0.54148  -0.53467
 Alpha  occ. eigenvalues --   -0.53257  -0.52382  -0.52077  -0.51516  -0.51206
 Alpha  occ. eigenvalues --   -0.50989  -0.50821  -0.50648  -0.50128  -0.49490
 Alpha  occ. eigenvalues --   -0.49370  -0.48790  -0.48427  -0.47875  -0.47819
 Alpha  occ. eigenvalues --   -0.47650  -0.47409  -0.47357  -0.46743  -0.46212
 Alpha  occ. eigenvalues --   -0.46055  -0.45553  -0.45336  -0.45103  -0.44860
 Alpha  occ. eigenvalues --   -0.44802  -0.44185  -0.43888  -0.43742  -0.43489
 Alpha  occ. eigenvalues --   -0.43130  -0.43025  -0.42666  -0.42437  -0.42076
 Alpha  occ. eigenvalues --   -0.41915  -0.41646  -0.41137  -0.40919  -0.40792
 Alpha  occ. eigenvalues --   -0.40414  -0.40103  -0.39914  -0.39782  -0.39096
 Alpha  occ. eigenvalues --   -0.38933  -0.38784  -0.38529  -0.38243  -0.37968
 Alpha  occ. eigenvalues --   -0.37537  -0.37348  -0.36664  -0.36255  -0.36131
 Alpha  occ. eigenvalues --   -0.35053  -0.34487  -0.33378  -0.31583  -0.31370
 Alpha  occ. eigenvalues --   -0.30850  -0.29247  -0.27642  -0.25897  -0.24097
 Alpha  occ. eigenvalues --   -0.20367
 Alpha virt. eigenvalues --   -0.04629  -0.00138   0.02988   0.05820   0.07686
 Alpha virt. eigenvalues --    0.08894   0.10697   0.11324   0.12044   0.12273
 Alpha virt. eigenvalues --    0.12452   0.12921   0.13025   0.13246   0.13755

 Mulliken charges:
               1
     1  O   -0.565743
     2  O   -0.575526
     3  C   -0.009314
     4  C    0.017133
     5  C   -0.176779
     6  C   -0.168116
     7  C    0.135194
     8  C    0.190521
     9  C    0.042002
    10  C    0.048826
    11  C   -0.198756
    12  C   -0.200678
    13  C    0.016231
    14  C    0.027949
    15  C   -0.291025
    16  C   -0.277067
    17  C   -0.318985
    18  C   -0.333639
    19  C   -0.136804
    20  C   -0.168189
    21  C   -0.338460
    22  C   -0.346000
    23  C   -0.091627
    24  C   -0.074423
    25  C    0.097639
    26  C    0.114741
    27  C   -0.356286
    28  C   -0.363622
    29  C   -0.124040
    30  C   -0.124927
    31  C   -0.077585
    32  C   -0.086809
    33  C   -0.059889
    34  C   -0.105625
    35  C    0.072354
    36  C    0.095303
    37  C   -0.361592
    38  C   -0.360027
    39  C   -0.128419
    40  C   -0.119570
    41  C   -0.098346
    42  C   -0.061170
    43  H    0.112829
    44  H    0.075544
    45  H    0.081341
    46  H    0.107297
    47  H    0.092473
    48  H    0.052423
    49  H    0.131556
    50  H    0.106045
    51  H    0.117680
    52  H    0.098589
    53  H    0.083330
    54  H    0.104407
    55  H    0.106585
    56  H    0.055985
    57  H    0.088000
    58  H    0.105847
    59  H    0.116626
    60  H    0.109698
    61  H    0.099234
    62  H    0.103693
    63  H    0.068110
    64  H    0.098201
    65  H    0.090719
    66  H    0.087907
    67  H    0.104794
    68  H    0.119188
    69  H    0.108342
    70  H    0.106339
    71  H    0.125017
    72  H    0.091230
    73  H    0.302137
    74  H    0.308449
    75  H    0.065046
    76  H    0.094744
    77  H    0.111461
    78  H    0.107929
    79  H    0.105651
    80  H    0.109981
    81  H    0.113337
    82  H    0.118401
    83  H    0.079143
    84  H    0.075691
    85  H    0.066500
    86  H    0.067720
    87  H    0.071312
    88  H    0.071302
    89  H    0.124483
    90  H    0.106456
    91  H    0.139975
    92  H    0.140931
    93  H    0.094153
    94  H    0.100149
    95  H    0.089259
    96  H    0.071256
    97  H    0.084917
    98  H    0.071732
 Sum of Mulliken charges =  -0.00000

 Dipole moment (field-independent basis, Debye):
    X=             -1.2221    Y=             -1.5779    Z=              1.8409  Tot=              2.7152
 Quadrupole moment (field-independent basis, Debye-Ang):
   XX=           -294.8754   YY=           -244.5746   ZZ=           -259.5738
   XY=             19.5933   XZ=             -8.1512   YZ=             -0.6572

 Normal termination of Gaussian 16 at Tue Jul  9 16:29:38 2019.
