 Gaussian 16, Revision A.03,
 Gaussian 16:  ES64L-G16RevA.03 25-Dec-2016

 -------------------------------------
 # td=(NStates=1) CAM-B3LYP/6-31G(d,p)
 -------------------------------------

 --
 TD
 --
 Symbolic Z-matrix:
 Charge =  0 Multiplicity = 1

                         Standard orientation:
 ---------------------------------------------------------------------
 Center     Atomic      Atomic             Coordinates (Angstroms)
 Number     Number       Type             X           Y           Z
 ---------------------------------------------------------------------
      1          8           0       14.753048   -2.144368   -0.453813
      2          8           0      -14.785511    2.126753    0.514575
      3          6           0       11.534116   -0.902469    1.266956
      4          6           0      -12.343135   -0.844270    0.856146
      5          6           0       13.068806   -1.220618    1.040437
      6          6           0      -13.718837   -0.067483    0.682253
      7          6           0       13.393996   -1.833930   -0.387462
      8          6           0      -13.517647    1.426833    0.667410
      9          6           0       10.984333   -0.240075   -0.021669
     10          6           0      -11.327194   -0.337859   -0.225557
     11          6           0       12.963968   -0.877179   -1.381085
     12          6           0      -12.739132    1.813013   -0.512866
     13          6           0       11.515723   -0.288196   -1.272180
     14          6           0      -11.571627    0.840259   -0.912343
     15          6           0       11.419550   -0.045251    2.479282
     16          6           0       10.791097   -2.280174    1.607328
     17          6           0      -11.663949   -0.775553    2.186847
     18          6           0      -12.690656   -2.268419    0.489418
     19          6           0        9.703375    0.381753    0.152110
     20          6           0      -10.144180   -1.096458   -0.318645
     21          6           0       11.122111    0.280233   -2.533427
     22          6           0      -10.657150    1.490711   -1.913229
     23          6           0        9.305356    1.634591   -0.193245
     24          6           0       -8.860857   -0.635885   -0.306888
     25          6           0        8.072018    2.242117   -0.008788
     26          6           0       -7.631079   -1.350402   -0.483693
     27          6           0        7.996575    3.801537    0.326957
     28          6           0       -7.728877   -2.799420   -0.724688
     29          6           0        6.972093    1.541359   -0.004942
     30          6           0       -6.437029   -0.818643   -0.294544
     31          6           0        5.533367    1.969510    0.207486
     32          6           0       -5.089118   -1.342709   -0.419195
     33          6           0        4.475289    1.129124    0.059307
     34          6           0       -3.997171   -0.556442   -0.156161
     35          6           0        3.081017    1.513882    0.161905
     36          6           0       -2.627511   -0.860525   -0.382667
     37          6           0        2.730323    3.006259    0.578573
     38          6           0       -2.307538   -2.312624   -0.740405
     39          6           0        2.083310    0.615720   -0.035425
     40          6           0       -1.665622    0.075759   -0.112101
     41          6           0        0.696694    0.875513   -0.072239
     42          6           0       -0.237609   -0.108497   -0.218768
     43          1           0       13.436530   -0.417298    1.315277
     44          1           0       13.476832   -2.065703    1.880880
     45          1           0      -14.382760   -0.364071    1.526386
     46          1           0      -14.402786   -0.392946   -0.289933
     47          1           0       12.981012   -2.783180   -0.377159
     48          1           0      -12.851400    1.862957    1.349195
     49          1           0       13.807376   -0.059762   -1.378064
     50          1           0       13.027492   -1.530131   -2.384983
     51          1           0      -13.476640    1.896123   -1.332204
     52          1           0      -12.355992    2.874115   -0.450759
     53          1           0       11.720293   -0.388763    3.438824
     54          1           0       10.431853    0.105673    2.654920
     55          1           0       11.738551    0.946197    2.220826
     56          1           0       10.662006   -2.815390    0.474841
     57          1           0       11.174413   -3.019423    2.417907
     58          1           0        9.803044   -1.958884    1.702387
     59          1           0      -11.195459    0.366985    2.121029
     60          1           0      -10.702926   -1.509639    2.393512
     61          1           0      -12.507879   -0.775389    3.027966
     62          1           0      -13.478382   -2.764246    1.123836
     63          1           0      -12.077659   -3.000576    0.697689
     64          1           0      -13.228614   -2.204216   -0.566649
     65          1           0        9.028841   -0.188525    0.621110
     66          1           0      -10.273278   -2.294269   -0.317971
     67          1           0       10.042704    0.437074   -2.427486
     68          1           0       11.465155    1.228493   -2.615282
     69          1           0       11.159594   -0.425428   -3.416622
     70          1           0      -11.189060    2.031456   -2.676563
     71          1           0       -9.908136    0.702294   -2.158735
     72          1           0       -9.919927    2.204344   -1.436511
     73          1           0       14.927783   -2.708192    0.299198
     74          1           0      -15.398885    2.105687    1.188872
     75          1           0       10.106870    2.250045   -0.702532
     76          1           0       -8.675352    0.283386   -0.068153
     77          1           0        8.494109    4.363812   -0.273576
     78          1           0        7.056904    4.388148    0.451665
     79          1           0        8.303114    3.723444    1.399268
     80          1           0       -8.376773   -3.350875   -0.066366
     81          1           0       -7.976489   -2.914558   -1.821060
     82          1           0       -6.725203   -3.258629   -0.728590
     83          1           0        6.887513    0.512501   -0.297630
     84          1           0       -6.271523    0.212630   -0.082548
     85          1           0        5.396058    2.823707    0.595118
     86          1           0       -4.656846   -2.495636   -0.573995
     87          1           0        4.621199    0.202524   -0.394178
     88          1           0       -4.252014    0.508864    0.206257
     89          1           0        3.510580    3.341705    1.324006
     90          1           0        1.735392    3.215793    0.970063
     91          1           0        2.948342    3.503723   -0.556579
     92          1           0       -2.571838   -3.110643   -0.107266
     93          1           0       -2.908947   -2.587521   -1.621816
     94          1           0       -1.279289   -2.571161   -0.884551
     95          1           0        2.415421   -0.270474   -0.281023
     96          1           0       -2.150857    1.023498    0.108507
     97          1           0        0.064461    1.630491    0.138686
     98          1           0        0.107986   -1.029781   -0.626750
 ---------------------------------------------------------------------

 SCF Done:  E(RCAM-B3LYP) =  -1706.90403458     A.U. after   14 cycles

 Excitation energies and oscillator strengths:

 Excited State   1:      Singlet-A      2.7092 eV  457.64 nm  f=3.7622  <S**2>=0.000
     155 ->158        -0.17592
     156 ->157         0.67850
 This state for optimization and/or second-order correction.
 Total Energy, E(TD-HF/TD-DFT) =  -1706.80447400
 Copying the excited state density for this state as the 1-particle RhoCI density.

 The electronic state is 1-A.
 Alpha  occ. eigenvalues --  -19.20038 -19.20034 -10.29502 -10.28887 -10.28017
 Alpha  occ. eigenvalues --  -10.27892 -10.27676 -10.27670 -10.27663 -10.27654
 Alpha  occ. eigenvalues --  -10.27593 -10.27420 -10.27163 -10.27116 -10.26798
 Alpha  occ. eigenvalues --  -10.26735 -10.26673 -10.26542 -10.26510 -10.26417
 Alpha  occ. eigenvalues --  -10.26375 -10.26172 -10.26150 -10.26045 -10.25972
 Alpha  occ. eigenvalues --  -10.25748 -10.25718 -10.25456 -10.25434 -10.25417
 Alpha  occ. eigenvalues --  -10.25343 -10.25186 -10.25018 -10.25006 -10.24807
 Alpha  occ. eigenvalues --  -10.24776 -10.24700 -10.24587 -10.24530 -10.24115
 Alpha  occ. eigenvalues --  -10.23935 -10.22867  -1.09975  -1.08636  -0.93998
 Alpha  occ. eigenvalues --   -0.93572  -0.92431  -0.91914  -0.91292  -0.90424
 Alpha  occ. eigenvalues --   -0.87904  -0.87705  -0.86718  -0.86099  -0.85179
 Alpha  occ. eigenvalues --   -0.83680  -0.82314  -0.81244  -0.80269  -0.78364
 Alpha  occ. eigenvalues --   -0.77794  -0.76641  -0.76364  -0.76194  -0.75799
 Alpha  occ. eigenvalues --   -0.75651  -0.75247  -0.74911  -0.74572  -0.71276
 Alpha  occ. eigenvalues --   -0.69861  -0.68131  -0.66331  -0.65370  -0.64377
 Alpha  occ. eigenvalues --   -0.64023  -0.63385  -0.62499  -0.61701  -0.60195
 Alpha  occ. eigenvalues --   -0.59597  -0.59404  -0.59331  -0.58644  -0.56828
 Alpha  occ. eigenvalues --   -0.55883  -0.55634  -0.55186  -0.54576  -0.54251
 Alpha  occ. eigenvalues --   -0.53481  -0.52912  -0.52431  -0.52327  -0.51609
 Alpha  occ. eigenvalues --   -0.51529  -0.50959  -0.50584  -0.50443  -0.49640
 Alpha  occ. eigenvalues --   -0.49224  -0.49190  -0.48614  -0.48403  -0.48138
 Alpha  occ. eigenvalues --   -0.48032  -0.47540  -0.47202  -0.46998  -0.46627
 Alpha  occ. eigenvalues --   -0.46524  -0.46116  -0.45244  -0.45208  -0.45144
 Alpha  occ. eigenvalues --   -0.44882  -0.44415  -0.44287  -0.44181  -0.43849
 Alpha  occ. eigenvalues --   -0.43160  -0.42715  -0.42151  -0.42045  -0.41528
 Alpha  occ. eigenvalues --   -0.41377  -0.41290  -0.41064  -0.40526  -0.40071
 Alpha  occ. eigenvalues --   -0.40056  -0.39951  -0.39614  -0.39381  -0.38868
 Alpha  occ. eigenvalues --   -0.38666  -0.38510  -0.38386  -0.38051  -0.37759
 Alpha  occ. eigenvalues --   -0.37129  -0.36921  -0.36519  -0.36213  -0.35754
 Alpha  occ. eigenvalues --   -0.35365  -0.34979  -0.34036  -0.32626  -0.32304
 Alpha  occ. eigenvalues --   -0.30730  -0.30159  -0.28651  -0.26570  -0.24272
 Alpha  occ. eigenvalues --   -0.20933
 Alpha virt. eigenvalues --   -0.04583  -0.00715   0.02229   0.05307   0.07833
 Alpha virt. eigenvalues --    0.09501   0.11337   0.11701   0.11804   0.12571
 Alpha virt. eigenvalues --    0.13353   0.13768   0.14019   0.14099   0.14375

 Mulliken charges:
               1
     1  O   -0.561376
     2  O   -0.577534
     3  C   -0.027169
     4  C   -0.005115
     5  C   -0.158434
     6  C   -0.182576
     7  C    0.193141
     8  C    0.181522
     9  C    0.040836
    10  C    0.068182
    11  C   -0.208311
    12  C   -0.231455
    13  C    0.058248
    14  C    0.049816
    15  C   -0.307588
    16  C   -0.296310
    17  C   -0.282398
    18  C   -0.285153
    19  C   -0.103534
    20  C   -0.145939
    21  C   -0.366258
    22  C   -0.368303
    23  C   -0.114390
    24  C   -0.072119
    25  C    0.079949
    26  C    0.134393
    27  C   -0.359753
    28  C   -0.378273
    29  C   -0.123943
    30  C   -0.150494
    31  C   -0.051096
    32  C   -0.079523
    33  C   -0.110604
    34  C   -0.128376
    35  C    0.089104
    36  C    0.138795
    37  C   -0.346198
    38  C   -0.400692
    39  C   -0.110602
    40  C   -0.140647
    41  C   -0.042864
    42  C   -0.103990
    43  H    0.094805
    44  H    0.019448
    45  H    0.082245
    46  H    0.092641
    47  H    0.085435
    48  H    0.096656
    49  H    0.112086
    50  H    0.077282
    51  H    0.118087
    52  H    0.101642
    53  H    0.110567
    54  H    0.107541
    55  H    0.104954
    56  H    0.067192
    57  H    0.109146
    58  H    0.108349
    59  H    0.080337
    60  H    0.107788
    61  H    0.090493
    62  H    0.077916
    63  H    0.100653
    64  H    0.095152
    65  H    0.082844
    66  H    0.080805
    67  H    0.115973
    68  H    0.140715
    69  H    0.117215
    70  H    0.116229
    71  H    0.117617
    72  H    0.109856
    73  H    0.302495
    74  H    0.295172
    75  H    0.072852
    76  H    0.063783
    77  H    0.124449
    78  H    0.111594
    79  H    0.126800
    80  H    0.119160
    81  H    0.115440
    82  H    0.105171
    83  H    0.073997
    84  H    0.076434
    85  H    0.052680
    86  H    0.075104
    87  H    0.079654
    88  H    0.072424
    89  H    0.112798
    90  H    0.122234
    91  H    0.100010
    92  H    0.131751
    93  H    0.120036
    94  H    0.112316
    95  H    0.067831
    96  H    0.081385
    97  H    0.072777
    98  H    0.077017
 Sum of Mulliken charges =  -0.00000

 Dipole moment (field-independent basis, Debye):
    X=             -0.3462    Y=             -0.2493    Z=              2.3673  Tot=              2.4054
 Quadrupole moment (field-independent basis, Debye-Ang):
   XX=           -290.1023   YY=           -244.7463   ZZ=           -260.0456
   XY=             11.6342   XZ=             -5.3587   YZ=             -0.0878

 Normal termination of Gaussian 16 at Mon Jul  8 14:28:35 2019.
