 Gaussian 16, Revision A.03,
 Gaussian 16:  ES64L-G16RevA.03 25-Dec-2016

 -------------------------------------
 # td=(NStates=1) CAM-B3LYP/6-31G(d,p)
 -------------------------------------

 --
 TD
 --
 Symbolic Z-matrix:
 Charge =  0 Multiplicity = 1

                         Standard orientation:
 ---------------------------------------------------------------------
 Center     Atomic      Atomic             Coordinates (Angstroms)
 Number     Number       Type             X           Y           Z
 ---------------------------------------------------------------------
      1          8           0       14.591620   -2.379684   -0.416545
      2          8           0      -14.879475    2.013356    0.505580
      3          6           0       11.450455   -0.997329    1.235495
      4          6           0      -12.295250   -0.941366    0.917294
      5          6           0       13.004009   -1.400687    1.071605
      6          6           0      -13.725934   -0.146788    0.771482
      7          6           0       13.254280   -2.029107   -0.360562
      8          6           0      -13.605531    1.286609    0.628544
      9          6           0       10.890109   -0.309596   -0.040644
     10          6           0      -11.357112   -0.309013   -0.141596
     11          6           0       12.936172   -0.987754   -1.441985
     12          6           0      -12.891147    1.524581   -0.714108
     13          6           0       11.559164   -0.337441   -1.207268
     14          6           0      -11.657955    0.752279   -0.872432
     15          6           0       11.325299   -0.074214    2.393125
     16          6           0       10.661651   -2.328118    1.528962
     17          6           0      -11.722318   -0.881493    2.342096
     18          6           0      -12.518845   -2.471283    0.565998
     19          6           0        9.573637    0.297987    0.206118
     20          6           0      -10.016420   -0.978063   -0.292512
     21          6           0       11.041259    0.407172   -2.429439
     22          6           0      -10.817734    1.275374   -1.974689
     23          6           0        9.371841    1.595459    0.008251
     24          6           0       -8.794930   -0.462484   -0.270512
     25          6           0        8.039037    2.315024    0.161187
     26          6           0       -7.514698   -1.267588   -0.437150
     27          6           0        8.128838    3.797185    0.430762
     28          6           0       -7.540252   -2.682271   -0.701031
     29          6           0        6.950848    1.639653    0.038383
     30          6           0       -6.362690   -0.583668   -0.357127
     31          6           0        5.558692    2.055171    0.181887
     32          6           0       -4.987900   -1.118927   -0.465407
     33          6           0        4.506272    1.251553   -0.068110
     34          6           0       -3.925783   -0.303736   -0.212779
     35          6           0        3.167797    1.668612    0.186374
     36          6           0       -2.555297   -0.731605   -0.447690
     37          6           0        2.799294    2.992910    0.631111
     38          6           0       -2.241452   -2.125521   -0.938730
     39          6           0        2.183452    0.802232   -0.131502
     40          6           0       -1.614179    0.145761   -0.178428
     41          6           0        0.696682    0.888031   -0.051541
     42          6           0       -0.160685   -0.076754   -0.318152
     43          1           0       13.632270   -0.516804    0.970710
     44          1           0       13.194169   -2.120200    1.832579
     45          1           0      -14.407137   -0.619379    1.650256
     46          1           0      -14.272568   -0.587526   -0.291897
     47          1           0       12.688559   -2.867293   -0.351457
     48          1           0      -12.954894    1.635764    1.482502
     49          1           0       13.825933   -0.251234   -1.564954
     50          1           0       12.845577   -1.469450   -2.427208
     51          1           0      -13.556528    1.324059   -1.524094
     52          1           0      -12.753803    2.619006   -0.701989
     53          1           0       11.759341   -0.326152    3.414861
     54          1           0       10.213153    0.142892    2.763042
     55          1           0       11.800424    0.892508    2.116480
     56          1           0       10.641526   -3.165217    0.741182
     57          1           0       10.945502   -2.585265    2.391257
     58          1           0        9.620739   -2.002526    1.679670
     59          1           0      -11.719698    0.257884    2.762461
     60          1           0      -10.639009   -1.233540    2.249983
     61          1           0      -12.208079   -1.648502    2.892042
     62          1           0      -13.495700   -2.873376    1.061010
     63          1           0      -11.821685   -3.053671    1.005654
     64          1           0      -12.728305   -2.509458   -0.518723
     65          1           0        8.763320   -0.431853    0.608453
     66          1           0      -10.152192   -1.988957   -0.447166
     67          1           0        9.872166    0.421249   -2.645600
     68          1           0       11.445237    1.466926   -2.556735
     69          1           0       11.394050   -0.305043   -3.412733
     70          1           0      -11.353985    1.818263   -2.765100
     71          1           0      -10.188179    0.641625   -2.578480
     72          1           0      -10.085581    2.057025   -1.595619
     73          1           0       14.816036   -3.350672   -0.022881
     74          1           0      -15.127470    2.144179    1.588905
     75          1           0       10.332029    2.193008   -0.522092
     76          1           0       -8.650259    0.630479    0.126310
     77          1           0        8.931178    4.194205   -0.229314
     78          1           0        7.295398    4.416490    0.370689
     79          1           0        8.489813    4.001450    1.479830
     80          1           0       -7.909659   -3.140435    0.251669
     81          1           0       -8.437486   -2.912273   -1.501947
     82          1           0       -6.635218   -3.164153   -0.992886
     83          1           0        7.025174    0.589761   -0.416982
     84          1           0       -6.480262    0.619025   -0.131097
     85          1           0        5.435192    3.103892    0.411543
     86          1           0       -4.847980   -2.059971   -0.833877
     87          1           0        4.633637    0.222522   -0.286208
     88          1           0       -4.184739    0.791651    0.015346
     89          1           0        3.287381    3.301611    1.554600
     90          1           0        1.792499    3.315700    0.643219
     91          1           0        3.016960    3.893417    0.057960
     92          1           0       -2.662659   -2.778181   -0.139752
     93          1           0       -3.069813   -2.163731   -1.786773
     94          1           0       -1.135662   -2.442772   -1.247121
     95          1           0        2.496046   -0.162018   -0.603353
     96          1           0       -1.817273    1.163598    0.164299
     97          1           0        0.446412    1.973297    0.348467
     98          1           0        0.202891   -1.075928   -0.722904
 ---------------------------------------------------------------------

 SCF Done:  E(RCAM-B3LYP) =  -1707.04288619     A.U. after   13 cycles

 Excitation energies and oscillator strengths:

 Excited State   1:      Singlet-A      3.2622 eV  380.07 nm  f=3.6311  <S**2>=0.000
     155 ->158         0.19098
     156 ->157         0.67313
 This state for optimization and/or second-order correction.
 Total Energy, E(TD-HF/TD-DFT) =  -1706.92300367
 Copying the excited state density for this state as the 1-particle RhoCI density.

 The electronic state is 1-A.
 Alpha  occ. eigenvalues --  -19.22636 -19.21160 -10.30430 -10.29120 -10.28293
 Alpha  occ. eigenvalues --  -10.27915 -10.27302 -10.27200 -10.27190 -10.27051
 Alpha  occ. eigenvalues --  -10.26943 -10.26899 -10.26886 -10.26860 -10.26770
 Alpha  occ. eigenvalues --  -10.26757 -10.26702 -10.26682 -10.26613 -10.26580
 Alpha  occ. eigenvalues --  -10.26501 -10.26188 -10.26135 -10.26017 -10.25998
 Alpha  occ. eigenvalues --  -10.25853 -10.25825 -10.25640 -10.25593 -10.25587
 Alpha  occ. eigenvalues --  -10.25460 -10.25375 -10.25320 -10.25114 -10.25097
 Alpha  occ. eigenvalues --  -10.25073 -10.24910 -10.24638 -10.24370 -10.24369
 Alpha  occ. eigenvalues --  -10.23904 -10.23636  -1.08379  -1.06210  -0.93243
 Alpha  occ. eigenvalues --   -0.92713  -0.92355  -0.91907  -0.90501  -0.90034
 Alpha  occ. eigenvalues --   -0.86972  -0.86764  -0.86106  -0.85208  -0.84576
 Alpha  occ. eigenvalues --   -0.82988  -0.82031  -0.80431  -0.79393  -0.78216
 Alpha  occ. eigenvalues --   -0.76981  -0.76299  -0.76122  -0.75653  -0.75556
 Alpha  occ. eigenvalues --   -0.74912  -0.74760  -0.74248  -0.73723  -0.70201
 Alpha  occ. eigenvalues --   -0.67952  -0.66444  -0.65193  -0.64528  -0.63897
 Alpha  occ. eigenvalues --   -0.62788  -0.61859  -0.61426  -0.60713  -0.59909
 Alpha  occ. eigenvalues --   -0.59447  -0.58778  -0.57928  -0.57411  -0.56085
 Alpha  occ. eigenvalues --   -0.54888  -0.54507  -0.53939  -0.53840  -0.53205
 Alpha  occ. eigenvalues --   -0.52502  -0.52457  -0.51931  -0.51049  -0.50873
 Alpha  occ. eigenvalues --   -0.50504  -0.49947  -0.49469  -0.49336  -0.49029
 Alpha  occ. eigenvalues --   -0.48806  -0.48610  -0.48409  -0.48216  -0.47817
 Alpha  occ. eigenvalues --   -0.47683  -0.47344  -0.46969  -0.46357  -0.45962
 Alpha  occ. eigenvalues --   -0.45694  -0.45351  -0.45181  -0.44938  -0.44565
 Alpha  occ. eigenvalues --   -0.44321  -0.44194  -0.43575  -0.43448  -0.43355
 Alpha  occ. eigenvalues --   -0.42917  -0.42723  -0.42233  -0.42051  -0.41754
 Alpha  occ. eigenvalues --   -0.41586  -0.41192  -0.40839  -0.40706  -0.40693
 Alpha  occ. eigenvalues --   -0.40327  -0.40076  -0.39770  -0.39614  -0.39398
 Alpha  occ. eigenvalues --   -0.39039  -0.38640  -0.38556  -0.38259  -0.37515
 Alpha  occ. eigenvalues --   -0.37362  -0.37166  -0.36559  -0.35654  -0.35320
 Alpha  occ. eigenvalues --   -0.35003  -0.34312  -0.33730  -0.32638  -0.31919
 Alpha  occ. eigenvalues --   -0.29993  -0.29696  -0.28266  -0.27290  -0.24717
 Alpha  occ. eigenvalues --   -0.21875
 Alpha virt. eigenvalues --   -0.02778   0.00759   0.04022   0.06340   0.08293
 Alpha virt. eigenvalues --    0.09164   0.09723   0.10120   0.10994   0.11818
 Alpha virt. eigenvalues --    0.12033   0.12415   0.13242   0.13516   0.13578

 Mulliken charges:
               1
     1  O   -0.571820
     2  O   -0.555550
     3  C   -0.026892
     4  C   -0.008583
     5  C   -0.173086
     6  C   -0.158321
     7  C    0.181817
     8  C    0.148356
     9  C    0.056078
    10  C    0.041914
    11  C   -0.214241
    12  C   -0.232685
    13  C    0.042429
    14  C    0.085599
    15  C   -0.303025
    16  C   -0.298271
    17  C   -0.296794
    18  C   -0.317012
    19  C   -0.103320
    20  C   -0.144135
    21  C   -0.347388
    22  C   -0.372850
    23  C   -0.102191
    24  C   -0.080527
    25  C    0.093317
    26  C    0.133824
    27  C   -0.371825
    28  C   -0.374469
    29  C   -0.121876
    30  C   -0.143466
    31  C   -0.090829
    32  C   -0.094566
    33  C   -0.104566
    34  C   -0.095326
    35  C    0.173029
    36  C    0.112414
    37  C   -0.404621
    38  C   -0.365233
    39  C   -0.169934
    40  C   -0.128157
    41  C   -0.067551
    42  C   -0.085921
    43  H    0.099036
    44  H    0.080010
    45  H    0.062532
    46  H    0.061279
    47  H    0.077053
    48  H    0.078492
    49  H    0.114677
    50  H    0.107012
    51  H    0.128678
    52  H    0.111812
    53  H    0.091321
    54  H    0.084764
    55  H    0.108354
    56  H    0.095669
    57  H    0.112618
    58  H    0.090590
    59  H    0.084673
    60  H    0.105807
    61  H    0.109940
    62  H    0.087648
    63  H    0.114686
    64  H    0.115359
    65  H    0.100206
    66  H    0.083881
    67  H    0.112221
    68  H    0.115904
    69  H    0.060049
    70  H    0.102230
    71  H    0.121856
    72  H    0.107054
    73  H    0.309559
    74  H    0.301821
    75  H    0.076020
    76  H    0.083358
    77  H    0.114320
    78  H    0.118792
    79  H    0.115986
    80  H    0.123229
    81  H    0.097274
    82  H    0.118757
    83  H    0.075627
    84  H    0.061872
    85  H    0.080333
    86  H    0.077427
    87  H    0.086750
    88  H    0.091967
    89  H    0.117659
    90  H    0.113714
    91  H    0.118327
    92  H    0.129680
    93  H    0.109505
    94  H    0.113752
    95  H    0.064540
    96  H    0.079978
    97  H    0.071327
    98  H    0.079268
 Sum of Mulliken charges =  -0.00000

 Dipole moment (field-independent basis, Debye):
    X=              0.3171    Y=             -1.5185    Z=              1.7418  Tot=              2.3324
 Quadrupole moment (field-independent basis, Debye-Ang):
   XX=           -297.3663   YY=           -236.4113   ZZ=           -260.7268
   XY=             -1.6578   XZ=            -10.8632   YZ=              3.4685

 Normal termination of Gaussian 16 at Thu Jun 27 09:57:29 2019.
