 Gaussian 16, Revision A.03,
 Gaussian 16:  ES64L-G16RevA.03 25-Dec-2016

 -------------------------------------
 # td=(NStates=1) CAM-B3LYP/6-31G(d,p)
 -------------------------------------

 --
 TD
 --
 Symbolic Z-matrix:
 Charge =  0 Multiplicity = 1

                         Standard orientation:
 ---------------------------------------------------------------------
 Center     Atomic      Atomic             Coordinates (Angstroms)
 Number     Number       Type             X           Y           Z
 ---------------------------------------------------------------------
      1          8           0       14.750899   -2.238059   -0.531585
      2          8           0      -14.834062    2.029598    0.603190
      3          6           0       11.575550   -1.018787    1.154105
      4          6           0      -12.259310   -0.979681    0.751285
      5          6           0       13.001863   -1.348333    1.006358
      6          6           0      -13.623413   -0.221639    0.802437
      7          6           0       13.420695   -1.978730   -0.299404
      8          6           0      -13.638032    1.269669    0.700925
      9          6           0       10.957637   -0.197105   -0.037444
     10          6           0      -11.375202   -0.361380   -0.304771
     11          6           0       13.030045   -0.973548   -1.451437
     12          6           0      -12.832332    1.807555   -0.459230
     13          6           0       11.661455   -0.327982   -1.186815
     14          6           0      -11.637606    0.916248   -0.746389
     15          6           0       11.380539   -0.202886    2.346572
     16          6           0       10.782813   -2.384126    1.513370
     17          6           0      -11.735577   -1.047190    2.184766
     18          6           0      -12.648936   -2.430942    0.245378
     19          6           0        9.721804    0.323802    0.158443
     20          6           0      -10.022010   -1.113037   -0.426253
     21          6           0       11.196825    0.539321   -2.353773
     22          6           0      -10.707055    1.588130   -1.802755
     23          6           0        9.315664    1.589749   -0.078454
     24          6           0       -8.841600   -0.521442   -0.250750
     25          6           0        8.027159    2.282245    0.078406
     26          6           0       -7.611871   -1.211003   -0.408133
     27          6           0        8.179410    3.787949    0.479588
     28          6           0       -7.717703   -2.674587   -0.902060
     29          6           0        6.850939    1.595000    0.021512
     30          6           0       -6.500734   -0.537976   -0.325331
     31          6           0        5.447816    2.072143    0.230567
     32          6           0       -5.122365   -1.120728   -0.544820
     33          6           0        4.411232    1.200100    0.035243
     34          6           0       -4.053762   -0.364980   -0.275237
     35          6           0        3.048225    1.623613    0.199443
     36          6           0       -2.646945   -0.754257   -0.385280
     37          6           0        2.718589    3.065713    0.490012
     38          6           0       -2.376026   -2.256067   -0.705459
     39          6           0        2.067705    0.661081    0.002848
     40          6           0       -1.577402    0.139590   -0.258102
     41          6           0        0.635601    0.871982    0.097908
     42          6           0       -0.131036   -0.164145   -0.198098
     43          1           0       13.550525   -0.494209    1.228160
     44          1           0       13.221536   -1.943698    1.813768
     45          1           0      -14.304420   -0.601691    1.682599
     46          1           0      -14.294597   -0.561178    0.037895
     47          1           0       12.979148   -2.860621   -0.588503
     48          1           0      -13.123759    1.669953    1.720660
     49          1           0       13.832689   -0.299545   -1.422852
     50          1           0       13.011741   -1.391801   -2.431008
     51          1           0      -13.467882    1.968567   -1.469101
     52          1           0      -12.513960    2.896772   -0.421445
     53          1           0       11.927026   -0.656326    3.219555
     54          1           0       10.318681   -0.115356    2.518319
     55          1           0       11.838296    0.828230    2.070755
     56          1           0       10.961670   -3.109871    0.697992
     57          1           0       11.228617   -2.550316    2.456408
     58          1           0        9.639322   -2.218045    1.694661
     59          1           0      -11.592818   -0.119021    2.703554
     60          1           0      -10.768627   -1.610449    2.148751
     61          1           0      -12.253661   -1.795035    2.785500
     62          1           0      -13.394155   -2.919610    0.894603
     63          1           0      -11.944446   -3.132624    0.450842
     64          1           0      -12.888943   -2.541875   -0.823379
     65          1           0        9.002439   -0.563865    0.750983
     66          1           0      -10.013175   -2.162385   -0.419962
     67          1           0       10.216506    0.476095   -2.334272
     68          1           0       11.669007    1.539081   -2.660722
     69          1           0       11.401397    0.002180   -3.349794
     70          1           0      -11.224581    2.075166   -2.678399
     71          1           0      -10.043699    0.708593   -2.087096
     72          1           0       -9.759423    2.356525   -1.283270
     73          1           0       15.085410   -2.807908    0.277295
     74          1           0      -15.460478    1.774310    1.414280
     75          1           0        9.979673    2.179735   -0.598179
     76          1           0       -8.628272    0.558836   -0.109119
     77          1           0        8.735839    4.377706   -0.199814
     78          1           0        7.194090    4.352226    0.747276
     79          1           0        8.495362    3.525637    1.522110
     80          1           0       -8.339152   -3.179848   -0.097843
     81          1           0       -8.318216   -2.687034   -1.817894
     82          1           0       -6.703461   -3.049177   -1.089509
     83          1           0        7.120835    0.461718   -0.188785
     84          1           0       -6.653880    0.449105   -0.089785
     85          1           0        5.234754    3.156985    0.378430
     86          1           0       -5.163769   -2.291516   -0.561146
     87          1           0        4.487693    0.071282   -0.021656
     88          1           0       -4.102478    0.653285   -0.257990
     89          1           0        3.017438    3.469113    1.500990
     90          1           0        1.691272    3.411566    0.154015
     91          1           0        3.501018    3.536034   -0.039444
     92          1           0       -2.712585   -2.906876    0.142635
     93          1           0       -2.924152   -2.477971   -1.677041
     94          1           0       -1.299791   -2.189549   -0.930112
     95          1           0        2.334061   -0.299878   -0.382520
     96          1           0       -1.840925    1.145343    0.138967
     97          1           0        0.308790    1.810561    0.399835
     98          1           0        0.179890   -1.109674   -0.688057
 ---------------------------------------------------------------------

 SCF Done:  E(RCAM-B3LYP) =  -1707.01031643     A.U. after   13 cycles

 Excitation energies and oscillator strengths:

 Excited State   1:      Singlet-A      2.9352 eV  422.41 nm  f=3.5487  <S**2>=0.000
     155 ->158         0.17976
     156 ->157         0.67598
 This state for optimization and/or second-order correction.
 Total Energy, E(TD-HF/TD-DFT) =  -1706.90244998
 Copying the excited state density for this state as the 1-particle RhoCI density.

 The electronic state is 1-A.
 Alpha  occ. eigenvalues --  -19.21835 -19.21730 -10.30940 -10.29149 -10.28015
 Alpha  occ. eigenvalues --  -10.27460 -10.27350 -10.27327 -10.27312 -10.27297
 Alpha  occ. eigenvalues --  -10.27179 -10.27099 -10.26933 -10.26832 -10.26699
 Alpha  occ. eigenvalues --  -10.26682 -10.26653 -10.26598 -10.26554 -10.26522
 Alpha  occ. eigenvalues --  -10.26307 -10.26288 -10.26100 -10.26004 -10.25954
 Alpha  occ. eigenvalues --  -10.25903 -10.25862 -10.25730 -10.25725 -10.25585
 Alpha  occ. eigenvalues --  -10.25540 -10.25519 -10.25346 -10.25172 -10.25102
 Alpha  occ. eigenvalues --  -10.24956 -10.24493 -10.24416 -10.24332 -10.24110
 Alpha  occ. eigenvalues --  -10.23777 -10.23625  -1.09973  -1.07946  -0.94576
 Alpha  occ. eigenvalues --   -0.93121  -0.92059  -0.91744  -0.90403  -0.89759
 Alpha  occ. eigenvalues --   -0.87980  -0.87249  -0.85856  -0.85292  -0.84621
 Alpha  occ. eigenvalues --   -0.82601  -0.81503  -0.79939  -0.79350  -0.77812
 Alpha  occ. eigenvalues --   -0.77044  -0.76654  -0.76629  -0.76199  -0.75683
 Alpha  occ. eigenvalues --   -0.75634  -0.75209  -0.74126  -0.73606  -0.70567
 Alpha  occ. eigenvalues --   -0.69142  -0.67257  -0.65925  -0.64985  -0.64103
 Alpha  occ. eigenvalues --   -0.63625  -0.62832  -0.62479  -0.60112  -0.59132
 Alpha  occ. eigenvalues --   -0.58885  -0.58354  -0.57745  -0.56949  -0.56531
 Alpha  occ. eigenvalues --   -0.55974  -0.55657  -0.55049  -0.54520  -0.53488
 Alpha  occ. eigenvalues --   -0.52925  -0.52525  -0.51756  -0.51460  -0.51358
 Alpha  occ. eigenvalues --   -0.51006  -0.49879  -0.49628  -0.49266  -0.49032
 Alpha  occ. eigenvalues --   -0.48911  -0.48700  -0.48467  -0.48261  -0.48007
 Alpha  occ. eigenvalues --   -0.47762  -0.47376  -0.47062  -0.46956  -0.46691
 Alpha  occ. eigenvalues --   -0.46072  -0.46018  -0.45575  -0.45555  -0.45186
 Alpha  occ. eigenvalues --   -0.44882  -0.44469  -0.43773  -0.43482  -0.43193
 Alpha  occ. eigenvalues --   -0.43146  -0.42943  -0.42605  -0.42325  -0.42006
 Alpha  occ. eigenvalues --   -0.41776  -0.41622  -0.41431  -0.41264  -0.41016
 Alpha  occ. eigenvalues --   -0.40088  -0.39967  -0.39755  -0.39408  -0.38928
 Alpha  occ. eigenvalues --   -0.38771  -0.38672  -0.38315  -0.38045  -0.37791
 Alpha  occ. eigenvalues --   -0.37636  -0.37123  -0.36778  -0.36170  -0.35933
 Alpha  occ. eigenvalues --   -0.35372  -0.34401  -0.33108  -0.32222  -0.31571
 Alpha  occ. eigenvalues --   -0.31176  -0.29746  -0.28099  -0.26422  -0.24375
 Alpha  occ. eigenvalues --   -0.21254
 Alpha virt. eigenvalues --   -0.03688  -0.00011   0.02694   0.05227   0.07645
 Alpha virt. eigenvalues --    0.08985   0.10584   0.10726   0.11443   0.12371
 Alpha virt. eigenvalues --    0.12482   0.12720   0.12981   0.13155   0.13832

 Mulliken charges:
               1
     1  O   -0.565209
     2  O   -0.563213
     3  C   -0.047373
     4  C    0.001071
     5  C   -0.184279
     6  C   -0.194487
     7  C    0.185428
     8  C    0.199059
     9  C    0.119194
    10  C    0.062049
    11  C   -0.217367
    12  C   -0.212818
    13  C    0.009159
    14  C    0.044124
    15  C   -0.285260
    16  C   -0.296357
    17  C   -0.303839
    18  C   -0.326939
    19  C   -0.130426
    20  C   -0.169860
    21  C   -0.364177
    22  C   -0.348007
    23  C   -0.099203
    24  C   -0.051546
    25  C    0.039739
    26  C    0.124043
    27  C   -0.359039
    28  C   -0.364207
    29  C   -0.115501
    30  C   -0.128791
    31  C   -0.124916
    32  C   -0.111461
    33  C   -0.079825
    34  C   -0.073505
    35  C    0.112541
    36  C    0.057225
    37  C   -0.381651
    38  C   -0.350785
    39  C   -0.150719
    40  C   -0.146326
    41  C   -0.048639
    42  C   -0.084230
    43  H    0.105319
    44  H    0.078821
    45  H    0.064081
    46  H    0.104078
    47  H    0.080164
    48  H    0.042611
    49  H    0.129099
    50  H    0.109786
    51  H    0.103812
    52  H    0.120459
    53  H    0.083572
    54  H    0.109942
    55  H    0.089386
    56  H    0.106114
    57  H    0.106254
    58  H    0.085562
    59  H    0.116983
    60  H    0.093067
    61  H    0.102620
    62  H    0.092715
    63  H    0.102832
    64  H    0.114950
    65  H    0.068836
    66  H    0.085352
    67  H    0.130762
    68  H    0.109468
    69  H    0.073118
    70  H    0.109472
    71  H    0.118088
    72  H    0.060252
    73  H    0.301225
    74  H    0.300745
    75  H    0.095996
    76  H    0.085336
    77  H    0.127415
    78  H    0.095784
    79  H    0.140020
    80  H    0.113109
    81  H    0.131782
    82  H    0.099641
    83  H    0.075898
    84  H    0.070142
    85  H    0.091419
    86  H    0.090318
    87  H    0.094368
    88  H    0.081043
    89  H    0.118702
    90  H    0.111909
    91  H    0.125726
    92  H    0.124704
    93  H    0.113568
    94  H    0.095508
    95  H    0.076471
    96  H    0.076197
    97  H    0.088841
    98  H    0.102878
 Sum of Mulliken charges =  -0.00000

 Dipole moment (field-independent basis, Debye):
    X=              0.6998    Y=             -1.3095    Z=              2.3387  Tot=              2.7702
 Quadrupole moment (field-independent basis, Debye-Ang):
   XX=           -265.8805   YY=           -245.5712   ZZ=           -261.5340
   XY=             14.7221   XZ=              1.4191   YZ=             -1.4039

 Normal termination of Gaussian 16 at Fri Jul  5 14:38:20 2019.
