 Gaussian 16, Revision A.03,
 Gaussian 16:  ES64L-G16RevA.03 25-Dec-2016

 -------------------------------------
 # td=(NStates=1) CAM-B3LYP/6-31G(d,p)
 -------------------------------------

 --
 TD
 --
 Symbolic Z-matrix:
 Charge =  0 Multiplicity = 1

                         Standard orientation:
 ---------------------------------------------------------------------
 Center     Atomic      Atomic             Coordinates (Angstroms)
 Number     Number       Type             X           Y           Z
 ---------------------------------------------------------------------
      1          8           0       14.808723   -2.235615   -0.430549
      2          8           0      -14.961623    1.873548    0.749815
      3          6           0       11.560217   -1.040555    1.247335
      4          6           0      -12.341275   -0.968854    0.744390
      5          6           0       13.039602   -1.387642    1.089382
      6          6           0      -13.734131   -0.264749    0.879854
      7          6           0       13.310511   -2.011956   -0.287302
      8          6           0      -13.695610    1.195052    0.611988
      9          6           0       11.028414   -0.298474   -0.080568
     10          6           0      -11.383017   -0.280360   -0.281901
     11          6           0       13.105997   -0.853251   -1.322027
     12          6           0      -12.929048    1.633584   -0.617612
     13          6           0       11.711058   -0.280187   -1.217960
     14          6           0      -11.650386    0.939953   -0.866023
     15          6           0       11.421188   -0.100538    2.411481
     16          6           0       10.674783   -2.246919    1.529233
     17          6           0      -11.716298   -0.759528    2.177429
     18          6           0      -12.585766   -2.484848    0.625566
     19          6           0        9.683544    0.332922    0.013122
     20          6           0      -10.068919   -0.994015   -0.467054
     21          6           0       11.121237    0.358098   -2.516544
     22          6           0      -10.693131    1.571916   -1.858321
     23          6           0        9.404922    1.591232   -0.136296
     24          6           0       -8.925840   -0.483946   -0.384546
     25          6           0        8.050567    2.286412    0.074097
     26          6           0       -7.617381   -1.139083   -0.612002
     27          6           0        8.144454    3.782191    0.235196
     28          6           0       -7.752391   -2.622651   -1.037072
     29          6           0        6.911542    1.508954    0.067302
     30          6           0       -6.442019   -0.547590   -0.407336
     31          6           0        5.559499    2.038073    0.205127
     32          6           0       -5.062610   -1.033510   -0.562519
     33          6           0        4.506070    1.205863    0.080397
     34          6           0       -4.006674   -0.287028   -0.262077
     35          6           0        3.079316    1.603225    0.195528
     36          6           0       -2.637912   -0.773066   -0.267370
     37          6           0        2.812431    3.012316    0.638660
     38          6           0       -2.461515   -2.120336   -0.918180
     39          6           0        2.152460    0.665878   -0.073737
     40          6           0       -1.607976    0.004119    0.053937
     41          6           0        0.753075    0.837705    0.088676
     42          6           0       -0.181545   -0.233185   -0.223284
     43          1           0       13.533479   -0.373595    1.116535
     44          1           0       13.280469   -2.042990    1.878838
     45          1           0      -14.139539   -0.527455    1.768673
     46          1           0      -14.473689   -0.767687    0.159399
     47          1           0       12.721512   -2.866782   -0.484517
     48          1           0      -13.003808    1.859954    1.419038
     49          1           0       13.961532   -0.322312   -1.294353
     50          1           0       13.098638   -1.218295   -2.327571
     51          1           0      -13.869284    1.620575   -1.417754
     52          1           0      -12.565389    2.713402   -0.443425
     53          1           0       11.965792   -0.529668    3.344509
     54          1           0       10.429541    0.018588    2.841910
     55          1           0       11.754924    0.940697    2.191847
     56          1           0       10.694372   -3.019504    0.784462
     57          1           0       10.913562   -2.926139    2.439309
     58          1           0        9.648289   -2.008810    1.661225
     59          1           0      -11.692554    0.249942    2.606626
     60          1           0      -10.802157   -1.132185    2.207491
     61          1           0      -12.385676   -1.418307    2.789906
     62          1           0      -13.259410   -2.849015    1.470301
     63          1           0      -11.820462   -2.952287    0.602591
     64          1           0      -13.149521   -2.814126   -0.259026
     65          1           0        8.955419   -0.319700    0.233475
     66          1           0      -10.235783   -2.006937   -0.906836
     67          1           0       10.000411    0.652644   -2.412143
     68          1           0       11.344978    1.347248   -2.827572
     69          1           0       11.212182   -0.424843   -3.226217
     70          1           0      -11.222791    1.777481   -2.766803
     71          1           0       -9.653877    1.027557   -2.043565
     72          1           0      -10.216592    2.273388   -1.486715
     73          1           0       14.920369   -2.961539    0.133169
     74          1           0      -15.339829    1.584537    1.600023
     75          1           0       10.050551    2.292635   -0.361236
     76          1           0       -8.842499    0.522750   -0.032884
     77          1           0        8.587058    4.202922   -0.748501
     78          1           0        7.242974    4.213211    0.565672
     79          1           0        8.816199    3.732749    1.208384
     80          1           0       -8.056545   -3.329118   -0.171954
     81          1           0       -8.268701   -2.521463   -1.917893
     82          1           0       -6.874614   -3.162370   -1.427192
     83          1           0        6.845679    0.465353   -0.212592
     84          1           0       -6.552589    0.464818    0.169016
     85          1           0        5.637654    3.110972    0.594338
     86          1           0       -4.833573   -2.219222   -0.655749
     87          1           0        4.786950    0.225760   -0.356493
     88          1           0       -4.282003    0.680594   -0.048915
     89          1           0        3.125566    3.051847    1.618703
     90          1           0        1.730741    3.335599    0.541295
     91          1           0        3.633233    3.711589   -0.001514
     92          1           0       -2.921477   -3.114335   -0.279102
     93          1           0       -2.719142   -2.273466   -1.806197
     94          1           0       -1.255615   -2.389483   -0.676077
     95          1           0        2.546740   -0.522864   -0.046326
     96          1           0       -1.839349    0.960787    0.677574
     97          1           0        0.475538    1.778999    0.682492
     98          1           0        0.360651   -1.036901   -0.635622
 ---------------------------------------------------------------------

 SCF Done:  E(RCAM-B3LYP) =  -1706.91290262     A.U. after   14 cycles

 Excitation energies and oscillator strengths:

 Excited State   1:      Singlet-A      2.9470 eV  420.72 nm  f=3.3842  <S**2>=0.000
     155 ->158        -0.15575
     156 ->157         0.68500
 This state for optimization and/or second-order correction.
 Total Energy, E(TD-HF/TD-DFT) =  -1706.80460405
 Copying the excited state density for this state as the 1-particle RhoCI density.

 The electronic state is 1-A.
 Alpha  occ. eigenvalues --  -19.20920 -19.20554 -10.31221 -10.30632 -10.27889
 Alpha  occ. eigenvalues --  -10.27845 -10.27820 -10.27698 -10.27649 -10.27624
 Alpha  occ. eigenvalues --  -10.27458 -10.27304 -10.27050 -10.27027 -10.26944
 Alpha  occ. eigenvalues --  -10.26897 -10.26755 -10.26734 -10.26716 -10.26676
 Alpha  occ. eigenvalues --  -10.26601 -10.26569 -10.26441 -10.26413 -10.26390
 Alpha  occ. eigenvalues --  -10.25709 -10.25588 -10.25145 -10.25141 -10.25100
 Alpha  occ. eigenvalues --  -10.25042 -10.24920 -10.24898 -10.24860 -10.24814
 Alpha  occ. eigenvalues --  -10.24709 -10.24681 -10.24680 -10.23956 -10.23504
 Alpha  occ. eigenvalues --  -10.23469 -10.23258  -1.08405  -1.07754  -0.93514
 Alpha  occ. eigenvalues --   -0.93147  -0.91939  -0.91541  -0.90428  -0.90102
 Alpha  occ. eigenvalues --   -0.87480  -0.87303  -0.86713  -0.85889  -0.84690
 Alpha  occ. eigenvalues --   -0.83372  -0.81990  -0.80801  -0.80545  -0.77812
 Alpha  occ. eigenvalues --   -0.77380  -0.77028  -0.76660  -0.76289  -0.76072
 Alpha  occ. eigenvalues --   -0.75805  -0.75577  -0.75319  -0.74066  -0.70030
 Alpha  occ. eigenvalues --   -0.68887  -0.67522  -0.66389  -0.65342  -0.64148
 Alpha  occ. eigenvalues --   -0.63518  -0.62468  -0.61637  -0.60340  -0.59994
 Alpha  occ. eigenvalues --   -0.59600  -0.59330  -0.57540  -0.56688  -0.55834
 Alpha  occ. eigenvalues --   -0.55411  -0.55388  -0.55077  -0.54279  -0.53794
 Alpha  occ. eigenvalues --   -0.53259  -0.52918  -0.52164  -0.51807  -0.51213
 Alpha  occ. eigenvalues --   -0.50782  -0.50601  -0.50414  -0.50141  -0.49999
 Alpha  occ. eigenvalues --   -0.49463  -0.49389  -0.48951  -0.48798  -0.48526
 Alpha  occ. eigenvalues --   -0.48003  -0.47932  -0.47493  -0.46871  -0.46615
 Alpha  occ. eigenvalues --   -0.46453  -0.46143  -0.45629  -0.45192  -0.44727
 Alpha  occ. eigenvalues --   -0.44647  -0.44024  -0.43652  -0.43228  -0.43037
 Alpha  occ. eigenvalues --   -0.42818  -0.42695  -0.42433  -0.42076  -0.41999
 Alpha  occ. eigenvalues --   -0.41520  -0.41250  -0.41116  -0.40841  -0.40658
 Alpha  occ. eigenvalues --   -0.40207  -0.39845  -0.39431  -0.39424  -0.38966
 Alpha  occ. eigenvalues --   -0.38764  -0.38676  -0.38599  -0.38380  -0.37924
 Alpha  occ. eigenvalues --   -0.37877  -0.37709  -0.37064  -0.36050  -0.35404
 Alpha  occ. eigenvalues --   -0.35125  -0.34995  -0.34036  -0.32715  -0.32293
 Alpha  occ. eigenvalues --   -0.30551  -0.29425  -0.28626  -0.26960  -0.24925
 Alpha  occ. eigenvalues --   -0.21333
 Alpha virt. eigenvalues --   -0.03783   0.00589   0.03368   0.06385   0.07751
 Alpha virt. eigenvalues --    0.09147   0.10141   0.11147   0.11762   0.12505
 Alpha virt. eigenvalues --    0.12691   0.12790   0.13139   0.13679   0.13841

 Mulliken charges:
               1
     1  O   -0.559380
     2  O   -0.569681
     3  C    0.002291
     4  C   -0.034660
     5  C   -0.168136
     6  C   -0.176332
     7  C    0.111652
     8  C    0.189021
     9  C    0.026006
    10  C    0.028718
    11  C   -0.205077
    12  C   -0.220441
    13  C    0.036394
    14  C    0.054199
    15  C   -0.300668
    16  C   -0.319239
    17  C   -0.288997
    18  C   -0.289341
    19  C   -0.104376
    20  C   -0.126617
    21  C   -0.364255
    22  C   -0.350076
    23  C   -0.038170
    24  C   -0.072759
    25  C    0.025219
    26  C    0.095380
    27  C   -0.348980
    28  C   -0.369567
    29  C   -0.119982
    30  C   -0.163156
    31  C   -0.064887
    32  C   -0.080891
    33  C   -0.136862
    34  C   -0.079576
    35  C    0.113168
    36  C    0.114449
    37  C   -0.360858
    38  C   -0.347931
    39  C   -0.132180
    40  C   -0.125292
    41  C   -0.099609
    42  C   -0.096138
    43  H    0.109760
    44  H    0.087809
    45  H    0.091974
    46  H    0.086506
    47  H    0.099012
    48  H    0.034665
    49  H    0.138042
    50  H    0.095929
    51  H    0.093674
    52  H    0.106899
    53  H    0.083913
    54  H    0.105516
    55  H    0.102363
    56  H    0.101625
    57  H    0.085425
    58  H    0.114259
    59  H    0.104817
    60  H    0.112346
    61  H    0.083036
    62  H    0.090419
    63  H    0.107638
    64  H    0.100330
    65  H    0.083322
    66  H    0.097132
    67  H    0.101080
    68  H    0.121548
    69  H    0.113600
    70  H    0.118476
    71  H    0.096126
    72  H    0.129456
    73  H    0.295708
    74  H    0.309019
    75  H    0.060532
    76  H    0.080319
    77  H    0.128693
    78  H    0.120402
    79  H    0.118592
    80  H    0.116439
    81  H    0.131795
    82  H    0.101640
    83  H    0.078248
    84  H    0.071021
    85  H    0.073375
    86  H    0.077055
    87  H    0.087122
    88  H    0.074203
    89  H    0.145223
    90  H    0.110773
    91  H    0.095850
    92  H    0.081898
    93  H    0.142094
    94  H    0.076213
    95  H    0.072568
    96  H    0.088404
    97  H    0.084582
    98  H    0.099151
 Sum of Mulliken charges =  -0.00000

 Dipole moment (field-independent basis, Debye):
    X=              0.9742    Y=             -1.4729    Z=              2.3058  Tot=              2.9044
 Quadrupole moment (field-independent basis, Debye-Ang):
   XX=           -304.4550   YY=           -242.2634   ZZ=           -259.8356
   XY=             17.8387   XZ=             -1.9081   YZ=              1.3331

 Normal termination of Gaussian 16 at Fri Jul  5 02:43:28 2019.
