 Gaussian 16, Revision A.03,
 Gaussian 16:  ES64L-G16RevA.03 25-Dec-2016

 -------------------------------------
 # td=(NStates=1) CAM-B3LYP/6-31G(d,p)
 -------------------------------------

 --
 TD
 --
 Symbolic Z-matrix:
 Charge =  0 Multiplicity = 1

                         Standard orientation:
 ---------------------------------------------------------------------
 Center     Atomic      Atomic             Coordinates (Angstroms)
 Number     Number       Type             X           Y           Z
 ---------------------------------------------------------------------
      1          8           0       14.767414   -2.286764   -0.392026
      2          8           0      -14.862468    1.810805    0.812171
      3          6           0       11.420732   -1.068047    1.225126
      4          6           0      -12.355347   -0.954122    0.835607
      5          6           0       13.021196   -1.445007    1.157578
      6          6           0      -13.659096   -0.206705    0.860570
      7          6           0       13.376007   -1.974953   -0.220365
      8          6           0      -13.562714    1.269444    0.798332
      9          6           0       10.944777   -0.297412   -0.003080
     10          6           0      -11.370547   -0.344365   -0.152607
     11          6           0       12.978389   -0.881136   -1.229638
     12          6           0      -12.837716    1.718497   -0.348605
     13          6           0       11.591978   -0.378496   -1.101702
     14          6           0      -11.593583    0.921270   -0.725262
     15          6           0       11.282103   -0.208158    2.539117
     16          6           0       10.672024   -2.390561    1.345967
     17          6           0      -11.684193   -0.959565    2.255119
     18          6           0      -12.675397   -2.405845    0.374450
     19          6           0        9.734934    0.360686    0.187092
     20          6           0      -10.140746   -0.980789   -0.397640
     21          6           0       11.193328    0.285543   -2.279147
     22          6           0      -10.770139    1.596277   -1.787244
     23          6           0        9.333889    1.621263   -0.170576
     24          6           0       -8.872144   -0.506094   -0.252258
     25          6           0        8.038630    2.320792    0.081313
     26          6           0       -7.601868   -1.217914   -0.494947
     27          6           0        8.200848    3.804396    0.384171
     28          6           0       -7.614494   -2.651944   -1.038339
     29          6           0        6.962887    1.601531   -0.016202
     30          6           0       -6.399988   -0.600755   -0.366208
     31          6           0        5.573310    2.055539    0.167399
     32          6           0       -5.110479   -1.164633   -0.483144
     33          6           0        4.414397    1.277352    0.026058
     34          6           0       -3.967237   -0.402868   -0.318717
     35          6           0        3.043729    1.700721    0.166314
     36          6           0       -2.542714   -0.788787   -0.548738
     37          6           0        2.802006    3.148234    0.363289
     38          6           0       -2.402599   -2.194770   -0.941830
     39          6           0        2.140953    0.765593   -0.202300
     40          6           0       -1.618591    0.100250   -0.322450
     41          6           0        0.710619    0.971394   -0.120297
     42          6           0       -0.219924    0.013489   -0.382503
     43          1           0       13.540584   -0.464137    1.177764
     44          1           0       13.273014   -2.135200    2.131916
     45          1           0      -14.278902   -0.566321    1.731130
     46          1           0      -14.286064   -0.650704   -0.166340
     47          1           0       12.790593   -2.981250   -0.232097
     48          1           0      -13.095393    1.720091    1.691074
     49          1           0       13.591609   -0.086384   -1.232238
     50          1           0       13.051496   -1.183763   -2.244347
     51          1           0      -13.467909    1.540125   -1.359412
     52          1           0      -12.627601    2.826808   -0.308271
     53          1           0       11.562493   -0.797113    3.480413
     54          1           0       10.324997    0.181727    2.606324
     55          1           0       11.857807    0.714428    2.461215
     56          1           0       10.776468   -3.126104    0.427441
     57          1           0       10.978965   -3.080592    2.160355
     58          1           0        9.506616   -2.360400    1.452357
     59          1           0      -11.431553    0.009365    2.665498
     60          1           0      -10.753953   -1.584166    2.427214
     61          1           0      -12.411798   -1.446059    3.007332
     62          1           0      -13.485168   -2.613812    1.219265
     63          1           0      -11.719570   -3.025250    0.423495
     64          1           0      -13.077469   -2.677903   -0.783188
     65          1           0        8.861605   -0.280979    0.388355
     66          1           0      -10.322098   -2.102664   -0.660978
     67          1           0       10.101943    0.566741   -2.225059
     68          1           0       11.844228    1.123891   -2.388616
     69          1           0       11.390644   -0.387446   -3.221400
     70          1           0      -11.391531    1.976050   -2.658070
     71          1           0      -10.141687    0.829582   -2.237833
     72          1           0      -10.016513    2.438549   -1.457680
     73          1           0       14.969400   -2.814097    0.453382
     74          1           0      -15.478578    1.517919    1.466777
     75          1           0       10.304019    2.191232   -0.466496
     76          1           0       -8.777714    0.458534   -0.026782
     77          1           0        8.918885    4.199233   -0.577490
     78          1           0        7.224947    4.487858    0.467719
     79          1           0        8.983470    4.106574    1.232181
     80          1           0       -7.954358   -3.372353   -0.157533
     81          1           0       -8.321958   -2.762725   -1.741064
     82          1           0       -6.588583   -3.252639   -1.524568
     83          1           0        6.983698    0.406962   -0.026632
     84          1           0       -6.516360    0.468809   -0.076105
     85          1           0        5.386947    3.141421    0.431277
     86          1           0       -5.017331   -2.243653   -0.938676
     87          1           0        4.511637    0.323817   -0.132799
     88          1           0       -4.095526    0.743614   -0.222610
     89          1           0        3.139004    3.288155    1.560214
     90          1           0        1.771450    3.554074    0.222258
     91          1           0        3.282807    3.772657   -0.473399
     92          1           0       -2.683878   -2.798531   -0.152292
     93          1           0       -2.782222   -2.520822   -1.902711
     94          1           0       -1.245276   -2.359583   -1.469072
     95          1           0        2.547042   -0.211556   -0.379261
     96          1           0       -1.991842    1.131088    0.125952
     97          1           0        0.500868    2.024556    0.157402
     98          1           0        0.120711   -1.106061   -0.668680
 ---------------------------------------------------------------------

 SCF Done:  E(RCAM-B3LYP) =  -1706.97498178     A.U. after   14 cycles

 Excitation energies and oscillator strengths:

 Excited State   1:      Singlet-A      2.8365 eV  437.11 nm  f=3.7740  <S**2>=0.000
     155 ->158         0.18830
     156 ->157         0.67509
 This state for optimization and/or second-order correction.
 Total Energy, E(TD-HF/TD-DFT) =  -1706.87074413
 Copying the excited state density for this state as the 1-particle RhoCI density.

 The electronic state is 1-A.
 Alpha  occ. eigenvalues --  -19.21282 -19.19693 -10.30873 -10.29833 -10.29690
 Alpha  occ. eigenvalues --  -10.28145 -10.28109 -10.28021 -10.27979 -10.27752
 Alpha  occ. eigenvalues --  -10.27472 -10.27223 -10.27199 -10.27129 -10.27069
 Alpha  occ. eigenvalues --  -10.27031 -10.27029 -10.26991 -10.26979 -10.26890
 Alpha  occ. eigenvalues --  -10.26889 -10.26887 -10.26635 -10.26568 -10.26514
 Alpha  occ. eigenvalues --  -10.26377 -10.26243 -10.26077 -10.25920 -10.25874
 Alpha  occ. eigenvalues --  -10.25873 -10.25837 -10.25806 -10.25767 -10.25712
 Alpha  occ. eigenvalues --  -10.25498 -10.25263 -10.24504 -10.24345 -10.24210
 Alpha  occ. eigenvalues --  -10.24155 -10.23964  -1.09322  -1.08046  -0.94979
 Alpha  occ. eigenvalues --   -0.93947  -0.92487  -0.91793  -0.90681  -0.90272
 Alpha  occ. eigenvalues --   -0.87547  -0.87014  -0.86742  -0.86032  -0.85362
 Alpha  occ. eigenvalues --   -0.83057  -0.81818  -0.80017  -0.79641  -0.78536
 Alpha  occ. eigenvalues --   -0.76540  -0.76242  -0.76024  -0.75608  -0.75566
 Alpha  occ. eigenvalues --   -0.75477  -0.75068  -0.74585  -0.74091  -0.70695
 Alpha  occ. eigenvalues --   -0.69152  -0.67537  -0.65765  -0.65166  -0.63603
 Alpha  occ. eigenvalues --   -0.63307  -0.62472  -0.61061  -0.60438  -0.59285
 Alpha  occ. eigenvalues --   -0.59085  -0.58121  -0.58060  -0.57483  -0.56574
 Alpha  occ. eigenvalues --   -0.55968  -0.55460  -0.55080  -0.54733  -0.53833
 Alpha  occ. eigenvalues --   -0.53427  -0.53261  -0.52133  -0.51532  -0.51294
 Alpha  occ. eigenvalues --   -0.50879  -0.50343  -0.50137  -0.49964  -0.49287
 Alpha  occ. eigenvalues --   -0.49239  -0.48152  -0.47940  -0.47579  -0.47418
 Alpha  occ. eigenvalues --   -0.47166  -0.47017  -0.46603  -0.46398  -0.46039
 Alpha  occ. eigenvalues --   -0.45948  -0.45722  -0.45522  -0.44977  -0.44671
 Alpha  occ. eigenvalues --   -0.44385  -0.43979  -0.43757  -0.43575  -0.43383
 Alpha  occ. eigenvalues --   -0.42704  -0.42417  -0.41953  -0.41804  -0.41613
 Alpha  occ. eigenvalues --   -0.41099  -0.40952  -0.40925  -0.40774  -0.40559
 Alpha  occ. eigenvalues --   -0.40282  -0.40004  -0.39625  -0.39442  -0.39282
 Alpha  occ. eigenvalues --   -0.39235  -0.38600  -0.38399  -0.38163  -0.37814
 Alpha  occ. eigenvalues --   -0.37334  -0.37189  -0.36632  -0.36388  -0.35781
 Alpha  occ. eigenvalues --   -0.35703  -0.34962  -0.33579  -0.32256  -0.31870
 Alpha  occ. eigenvalues --   -0.31131  -0.29847  -0.28033  -0.26640  -0.24008
 Alpha  occ. eigenvalues --   -0.21170
 Alpha virt. eigenvalues --   -0.04164  -0.00404   0.02862   0.05652   0.07706
 Alpha virt. eigenvalues --    0.09599   0.10194   0.10746   0.11407   0.11897
 Alpha virt. eigenvalues --    0.12214   0.12402   0.12630   0.12687   0.12795

 Mulliken charges:
               1
     1  O   -0.564135
     2  O   -0.579113
     3  C   -0.017280
     4  C   -0.006744
     5  C   -0.200237
     6  C   -0.194067
     7  C    0.180369
     8  C    0.219041
     9  C    0.090262
    10  C    0.071115
    11  C   -0.216172
    12  C   -0.210754
    13  C    0.070785
    14  C    0.051035
    15  C   -0.306255
    16  C   -0.303939
    17  C   -0.306287
    18  C   -0.284932
    19  C   -0.123449
    20  C   -0.151899
    21  C   -0.377398
    22  C   -0.367380
    23  C   -0.133413
    24  C   -0.069251
    25  C    0.138365
    26  C    0.110289
    27  C   -0.357121
    28  C   -0.357169
    29  C   -0.123107
    30  C   -0.127470
    31  C   -0.111468
    32  C   -0.083144
    33  C   -0.090899
    34  C   -0.127495
    35  C    0.125154
    36  C    0.137625
    37  C   -0.368164
    38  C   -0.373161
    39  C   -0.119135
    40  C   -0.115863
    41  C   -0.088639
    42  C   -0.092301
    43  H    0.098452
    44  H    0.066556
    45  H    0.077637
    46  H    0.075517
    47  H    0.066529
    48  H    0.078800
    49  H    0.130891
    50  H    0.105771
    51  H    0.100225
    52  H    0.107387
    53  H    0.090657
    54  H    0.116546
    55  H    0.101330
    56  H    0.092257
    57  H    0.098780
    58  H    0.090436
    59  H    0.116881
    60  H    0.111198
    61  H    0.082135
    62  H    0.088578
    63  H    0.100492
    64  H    0.089684
    65  H    0.083812
    66  H    0.068667
    67  H    0.119619
    68  H    0.119218
    69  H    0.087485
    70  H    0.105660
    71  H    0.123489
    72  H    0.104136
    73  H    0.304804
    74  H    0.301989
    75  H    0.073536
    76  H    0.075550
    77  H    0.090980
    78  H    0.113077
    79  H    0.123215
    80  H    0.099262
    81  H    0.132576
    82  H    0.081084
    83  H    0.085146
    84  H    0.075169
    85  H    0.076201
    86  H    0.085569
    87  H    0.061230
    88  H    0.078992
    89  H    0.105683
    90  H    0.109989
    91  H    0.127420
    92  H    0.143465
    93  H    0.134103
    94  H    0.064108
    95  H    0.082616
    96  H    0.072000
    97  H    0.083197
    98  H    0.074013
 Sum of Mulliken charges =  -0.00000

 Dipole moment (field-independent basis, Debye):
    X=             -0.8989    Y=             -0.3858    Z=              1.8360  Tot=              2.0803
 Quadrupole moment (field-independent basis, Debye-Ang):
   XX=           -283.8798   YY=           -247.4860   ZZ=           -260.4120
   XY=             18.4345   XZ=              2.7050   YZ=              0.4367

 Normal termination of Gaussian 16 at Fri Jun 28 00:25:06 2019.
