 Gaussian 16, Revision A.03,
 Gaussian 16:  ES64L-G16RevA.03 25-Dec-2016

 -------------------------------------
 # td=(NStates=1) CAM-B3LYP/6-31G(d,p)
 -------------------------------------

 --
 TD
 --
 Symbolic Z-matrix:
 Charge =  0 Multiplicity = 1

                         Standard orientation:
 ---------------------------------------------------------------------
 Center     Atomic      Atomic             Coordinates (Angstroms)
 Number     Number       Type             X           Y           Z
 ---------------------------------------------------------------------
      1          8           0       14.751492   -2.144068   -0.412992
      2          8           0      -14.852277    1.964926    0.803953
      3          6           0       11.544048   -1.052268    1.273185
      4          6           0      -12.367254   -0.922457    0.852281
      5          6           0       13.008926   -1.347602    1.141239
      6          6           0      -13.711425   -0.158037    0.826516
      7          6           0       13.321508   -1.886494   -0.223353
      8          6           0      -13.606871    1.250008    0.768952
      9          6           0       10.947133   -0.380736    0.028357
     10          6           0      -11.302822   -0.255766   -0.094360
     11          6           0       12.998140   -0.889265   -1.324694
     12          6           0      -12.779794    1.672664   -0.515561
     13          6           0       11.690864   -0.221939   -1.176461
     14          6           0      -11.667023    0.853139   -0.807776
     15          6           0       11.464008   -0.100338    2.539389
     16          6           0       10.772174   -2.301144    1.526344
     17          6           0      -11.803408   -0.833240    2.300324
     18          6           0      -12.498066   -2.333181    0.408654
     19          6           0        9.678367    0.238544    0.231674
     20          6           0      -10.064128   -0.953988   -0.425295
     21          6           0       11.243109    0.307725   -2.392185
     22          6           0      -10.726061    1.423282   -1.779373
     23          6           0        9.343574    1.597745   -0.017189
     24          6           0       -8.839893   -0.526183   -0.295461
     25          6           0        8.040081    2.222320    0.111722
     26          6           0       -7.655616   -1.315522   -0.614888
     27          6           0        8.119243    3.731354    0.645164
     28          6           0       -7.734504   -2.790718   -0.890967
     29          6           0        6.935823    1.417468   -0.095071
     30          6           0       -6.467653   -0.612394   -0.375086
     31          6           0        5.554683    1.991809   -0.046583
     32          6           0       -5.153809   -1.062442   -0.499460
     33          6           0        4.460421    1.212516   -0.279619
     34          6           0       -4.064880   -0.290794   -0.281446
     35          6           0        3.137955    1.713725   -0.099432
     36          6           0       -2.718492   -0.847437   -0.310664
     37          6           0        2.908826    3.114937    0.372309
     38          6           0       -2.425832   -2.230150   -0.813241
     39          6           0        2.079011    0.791552   -0.360440
     40          6           0       -1.667908    0.036208   -0.075433
     41          6           0        0.700388    0.828071   -0.266025
     42          6           0       -0.236144   -0.118976   -0.287237
     43          1           0       13.642687   -0.314895    1.154922
     44          1           0       13.491025   -1.991617    1.823348
     45          1           0      -14.383615   -0.276960    1.820875
     46          1           0      -14.349978   -0.512385   -0.007068
     47          1           0       12.675522   -2.844562   -0.248227
     48          1           0      -13.209944    1.714829    1.629867
     49          1           0       13.714151   -0.051299   -1.081757
     50          1           0       13.270351   -1.268676   -2.343512
     51          1           0      -13.569230    1.535518   -1.226438
     52          1           0      -12.445948    2.894451   -0.619946
     53          1           0       11.850825   -0.672140    3.340987
     54          1           0       10.408504   -0.056909    2.674556
     55          1           0       11.940205    0.841149    2.143557
     56          1           0       10.803887   -3.017298    0.623044
     57          1           0       11.129288   -2.780339    2.420246
     58          1           0        9.674944   -2.113469    1.657632
     59          1           0      -11.488735    0.198145    2.674601
     60          1           0      -11.078264   -1.570410    2.371673
     61          1           0      -12.476625   -1.403269    3.170572
     62          1           0      -13.282823   -2.800161    1.086839
     63          1           0      -11.600842   -2.925021    0.553418
     64          1           0      -12.750541   -2.231908   -0.631189
     65          1           0        8.994312   -0.331251    0.598037
     66          1           0      -10.253209   -1.929984   -0.891451
     67          1           0       10.237936    0.697435   -2.157692
     68          1           0       11.862695    1.218816   -2.709258
     69          1           0       11.020982   -0.602962   -2.987560
     70          1           0      -11.273750    1.635740   -2.895888
     71          1           0       -9.795472    0.908743   -1.866738
     72          1           0      -10.252219    2.406519   -1.520843
     73          1           0       15.136790   -2.678913    0.362527
     74          1           0      -15.366146    1.681095    1.571762
     75          1           0       10.017868    2.285229   -0.083293
     76          1           0       -8.786873    0.558793   -0.040651
     77          1           0        8.535920    4.377672   -0.138360
     78          1           0        7.197989    4.322596    0.918413
     79          1           0        8.640213    3.756951    1.634242
     80          1           0       -8.073074   -3.267957   -0.061596
     81          1           0       -8.357937   -2.912530   -1.675400
     82          1           0       -6.965008   -3.315902   -1.299215
     83          1           0        7.228931    0.485538   -0.762116
     84          1           0       -6.525510    0.486742   -0.054221
     85          1           0        5.487569    2.952734    0.379317
     86          1           0       -5.017871   -2.197755   -0.799817
     87          1           0        4.538656    0.095286   -0.799825
     88          1           0       -4.212998    0.718096   -0.031740
     89          1           0        3.261988    3.258751    1.315193
     90          1           0        1.706117    3.060841    0.283414
     91          1           0        3.412873    3.960434   -0.271299
     92          1           0       -2.920472   -2.927914   -0.155753
     93          1           0       -2.914893   -2.368062   -1.878232
     94          1           0       -1.350425   -2.461224   -1.034643
     95          1           0        2.439421   -0.278610   -0.661134
     96          1           0       -1.930175    1.148978   -0.019658
     97          1           0        0.312208    1.675567    0.070859
     98          1           0        0.064799   -1.171114   -0.525922
 ---------------------------------------------------------------------

 SCF Done:  E(RCAM-B3LYP) =  -1706.99048788     A.U. after   14 cycles

 Excitation energies and oscillator strengths:

 Excited State   1:      Singlet-A      2.4937 eV  497.20 nm  f=3.7355  <S**2>=0.000
     155 ->158         0.17741
     156 ->157         0.67951
 This state for optimization and/or second-order correction.
 Total Energy, E(TD-HF/TD-DFT) =  -1706.89884723
 Copying the excited state density for this state as the 1-particle RhoCI density.

 The electronic state is 1-A.
 Alpha  occ. eigenvalues --  -19.21089 -19.20220 -10.30291 -10.29314 -10.28017
 Alpha  occ. eigenvalues --  -10.27970 -10.27930 -10.27783 -10.27638 -10.27162
 Alpha  occ. eigenvalues --  -10.26843 -10.26809 -10.26798 -10.26789 -10.26782
 Alpha  occ. eigenvalues --  -10.26651 -10.26645 -10.26508 -10.26506 -10.26493
 Alpha  occ. eigenvalues --  -10.26438 -10.26132 -10.26085 -10.25940 -10.25870
 Alpha  occ. eigenvalues --  -10.25837 -10.25823 -10.25757 -10.25731 -10.25545
 Alpha  occ. eigenvalues --  -10.25225 -10.25194 -10.25155 -10.25123 -10.25110
 Alpha  occ. eigenvalues --  -10.25024 -10.24988 -10.24895 -10.24643 -10.24621
 Alpha  occ. eigenvalues --  -10.24207 -10.23922  -1.08703  -1.06830  -0.94394
 Alpha  occ. eigenvalues --   -0.94217  -0.92028  -0.91401  -0.90432  -0.89547
 Alpha  occ. eigenvalues --   -0.88675  -0.88007  -0.87621  -0.85994  -0.84789
 Alpha  occ. eigenvalues --   -0.83804  -0.82012  -0.81568  -0.80241  -0.78266
 Alpha  occ. eigenvalues --   -0.77610  -0.76477  -0.76212  -0.76188  -0.75870
 Alpha  occ. eigenvalues --   -0.75445  -0.75418  -0.74986  -0.73423  -0.70658
 Alpha  occ. eigenvalues --   -0.69369  -0.67916  -0.65959  -0.64982  -0.63165
 Alpha  occ. eigenvalues --   -0.63129  -0.62754  -0.61721  -0.60633  -0.60349
 Alpha  occ. eigenvalues --   -0.58843  -0.58568  -0.58080  -0.57670  -0.55897
 Alpha  occ. eigenvalues --   -0.55589  -0.55490  -0.54733  -0.54429  -0.53989
 Alpha  occ. eigenvalues --   -0.53060  -0.52488  -0.52127  -0.51996  -0.51717
 Alpha  occ. eigenvalues --   -0.51503  -0.51292  -0.50742  -0.49806  -0.49538
 Alpha  occ. eigenvalues --   -0.49358  -0.49257  -0.48847  -0.48703  -0.48505
 Alpha  occ. eigenvalues --   -0.48040  -0.47962  -0.47432  -0.46411  -0.46194
 Alpha  occ. eigenvalues --   -0.46152  -0.45964  -0.45525  -0.45515  -0.44965
 Alpha  occ. eigenvalues --   -0.44738  -0.44337  -0.44283  -0.44006  -0.43605
 Alpha  occ. eigenvalues --   -0.43006  -0.42460  -0.42203  -0.41765  -0.41564
 Alpha  occ. eigenvalues --   -0.41381  -0.40915  -0.40714  -0.40618  -0.40486
 Alpha  occ. eigenvalues --   -0.40322  -0.40313  -0.40060  -0.39633  -0.39538
 Alpha  occ. eigenvalues --   -0.39143  -0.38966  -0.38856  -0.38787  -0.38038
 Alpha  occ. eigenvalues --   -0.37667  -0.37590  -0.37205  -0.36301  -0.35818
 Alpha  occ. eigenvalues --   -0.35731  -0.34414  -0.33552  -0.31986  -0.31516
 Alpha  occ. eigenvalues --   -0.31404  -0.29173  -0.27724  -0.25917  -0.23452
 Alpha  occ. eigenvalues --   -0.20093
 Alpha virt. eigenvalues --   -0.04858  -0.00767   0.02326   0.05766   0.07238
 Alpha virt. eigenvalues --    0.08676   0.10773   0.11278   0.11940   0.12108
 Alpha virt. eigenvalues --    0.12711   0.12784   0.13145   0.13342   0.13695

 Mulliken charges:
               1
     1  O   -0.578780
     2  O   -0.581660
     3  C   -0.039326
     4  C   -0.002709
     5  C   -0.168897
     6  C   -0.174860
     7  C    0.170869
     8  C    0.180912
     9  C    0.045391
    10  C    0.002101
    11  C   -0.215980
    12  C   -0.238394
    13  C    0.068415
    14  C    0.132857
    15  C   -0.276685
    16  C   -0.302962
    17  C   -0.293886
    18  C   -0.310459
    19  C   -0.113944
    20  C   -0.144269
    21  C   -0.370763
    22  C   -0.364489
    23  C   -0.084488
    24  C   -0.077236
    25  C    0.075165
    26  C    0.070424
    27  C   -0.378799
    28  C   -0.366460
    29  C   -0.143609
    30  C   -0.122090
    31  C   -0.109189
    32  C   -0.076589
    33  C   -0.087250
    34  C   -0.099877
    35  C    0.108526
    36  C    0.112832
    37  C   -0.357876
    38  C   -0.371280
    39  C   -0.130865
    40  C   -0.146114
    41  C   -0.060947
    42  C   -0.084127
    43  H    0.070388
    44  H    0.081302
    45  H    0.060088
    46  H    0.098385
    47  H    0.066316
    48  H    0.087694
    49  H    0.120309
    50  H    0.113763
    51  H    0.125195
    52  H    0.085019
    53  H    0.102581
    54  H    0.102558
    55  H    0.108814
    56  H    0.099652
    57  H    0.099223
    58  H    0.100198
    59  H    0.109949
    60  H    0.113867
    61  H    0.057771
    62  H    0.096631
    63  H    0.109676
    64  H    0.112540
    65  H    0.080514
    66  H    0.087402
    67  H    0.111058
    68  H    0.116382
    69  H    0.124411
    70  H    0.074376
    71  H    0.119600
    72  H    0.104458
    73  H    0.301398
    74  H    0.300228
    75  H    0.066209
    76  H    0.090480
    77  H    0.128644
    78  H    0.107535
    79  H    0.127923
    80  H    0.138568
    81  H    0.127948
    82  H    0.117034
    83  H    0.093836
    84  H    0.075056
    85  H    0.087068
    86  H    0.074514
    87  H    0.078050
    88  H    0.087871
    89  H    0.140560
    90  H    0.095902
    91  H    0.110448
    92  H    0.126877
    93  H    0.110573
    94  H    0.117385
    95  H    0.063144
    96  H    0.072092
    97  H    0.062899
    98  H    0.065009
 Sum of Mulliken charges =  -0.00000

 Dipole moment (field-independent basis, Debye):
    X=              0.3155    Y=             -1.7736    Z=              1.9028  Tot=              2.6202
 Quadrupole moment (field-independent basis, Debye-Ang):
   XX=           -276.7207   YY=           -244.1485   ZZ=           -260.5853
   XY=             23.7378   XZ=              5.6702   YZ=              1.9510

 Normal termination of Gaussian 16 at Thu Jul  4 22:30:25 2019.
