 Gaussian 16, Revision A.03,
 Gaussian 16:  ES64L-G16RevA.03 25-Dec-2016

 -------------------------------------
 # td=(NStates=1) CAM-B3LYP/6-31G(d,p)
 -------------------------------------

 --
 TD
 --
 Symbolic Z-matrix:
 Charge =  0 Multiplicity = 1

                         Standard orientation:
 ---------------------------------------------------------------------
 Center     Atomic      Atomic             Coordinates (Angstroms)
 Number     Number       Type             X           Y           Z
 ---------------------------------------------------------------------
      1          8           0       14.654429   -2.157839   -0.548266
      2          8           0      -14.670019    2.084236    0.595455
      3          6           0       11.391775   -1.018759    1.183005
      4          6           0      -12.363541   -0.775084    0.711505
      5          6           0       12.862533   -1.301914    1.026104
      6          6           0      -13.664084   -0.138793    0.734503
      7          6           0       13.328834   -1.923442   -0.335848
      8          6           0      -13.490743    1.479882    0.629631
      9          6           0       10.995959   -0.271911   -0.011562
     10          6           0      -11.367326   -0.281582   -0.268106
     11          6           0       12.840230   -1.021040   -1.466576
     12          6           0      -12.736525    1.806783   -0.613965
     13          6           0       11.581940   -0.269589   -1.188345
     14          6           0      -11.543216    0.908749   -0.912959
     15          6           0       11.245371   -0.229892    2.464454
     16          6           0       10.666632   -2.419398    1.365378
     17          6           0      -11.762627   -0.712891    2.128469
     18          6           0      -12.677988   -2.264686    0.346285
     19          6           0        9.641717    0.441911    0.134800
     20          6           0      -10.115993   -1.142909   -0.403265
     21          6           0       11.219100    0.594499   -2.411734
     22          6           0      -10.710327    1.505988   -1.896945
     23          6           0        9.400805    1.738525   -0.169944
     24          6           0       -8.863249   -0.519428   -0.423041
     25          6           0        8.126918    2.364421    0.103482
     26          6           0       -7.613205   -1.385149   -0.383626
     27          6           0        8.083636    3.854307    0.537442
     28          6           0       -7.795257   -2.833525   -0.908987
     29          6           0        6.991987    1.650940   -0.030527
     30          6           0       -6.476718   -0.770226   -0.163090
     31          6           0        5.600799    2.052981    0.206542
     32          6           0       -5.043016   -1.229557   -0.300369
     33          6           0        4.553216    1.220644   -0.046848
     34          6           0       -3.984227   -0.508615   -0.235246
     35          6           0        3.112888    1.475030    0.105560
     36          6           0       -2.641950   -0.926083   -0.227539
     37          6           0        2.848468    2.906545    0.617348
     38          6           0       -2.293089   -2.399108   -0.436228
     39          6           0        2.136626    0.614657   -0.067871
     40          6           0       -1.579867   -0.027393   -0.096491
     41          6           0        0.780275    0.818811   -0.047656
     42          6           0       -0.254213   -0.143263   -0.102932
     43          1           0       13.531265   -0.315169    1.118499
     44          1           0       13.312545   -1.963591    1.749367
     45          1           0      -14.150821   -0.417734    1.733718
     46          1           0      -14.348909   -0.349738    0.012739
     47          1           0       12.790033   -2.874346   -0.193188
     48          1           0      -12.914406    1.798384    1.375325
     49          1           0       13.567390   -0.315382   -1.545854
     50          1           0       12.712280   -1.550213   -2.430212
     51          1           0      -13.439530    1.705005   -1.525643
     52          1           0      -12.519309    2.808245   -0.599072
     53          1           0       11.704570   -0.828677    3.347121
     54          1           0       10.312745    0.071378    2.506423
     55          1           0       11.861898    0.717654    2.439905
     56          1           0       10.627255   -3.046427    0.358492
     57          1           0       10.999869   -3.036037    1.965859
     58          1           0        9.624280   -2.110636    1.588274
     59          1           0      -11.390849    0.322342    2.490659
     60          1           0      -10.817262   -1.512488    2.344547
     61          1           0      -12.259251   -1.100528    2.872838
     62          1           0      -13.600233   -2.647413    1.046097
     63          1           0      -11.937902   -2.917052    0.558587
     64          1           0      -12.989898   -2.248047   -0.601912
     65          1           0        8.976972   -0.248077    0.529890
     66          1           0      -10.205470   -2.190421   -0.467619
     67          1           0       10.145844    1.047265   -2.213574
     68          1           0       11.892939    1.304276   -2.465402
     69          1           0       11.151731   -0.158317   -3.427730
     70          1           0      -11.409761    1.956128   -2.525018
     71          1           0      -10.013632    0.929192   -2.320805
     72          1           0      -10.041463    2.381902   -1.386584
     73          1           0       15.072214   -2.619122    0.302553
     74          1           0      -15.069634    1.741129    1.450721
     75          1           0       10.096678    2.287392   -0.819493
     76          1           0       -8.790808    0.542793   -0.294181
     77          1           0        8.859235    4.289796   -0.116212
     78          1           0        7.104950    4.230169    0.415016
     79          1           0        8.324470    3.843624    1.592763
     80          1           0       -8.512388   -3.372478   -0.208290
     81          1           0       -8.202368   -2.796339   -1.927915
     82          1           0       -6.934781   -3.157288   -1.053828
     83          1           0        7.161186    0.613552   -0.353532
     84          1           0       -6.665817    0.230413    0.041647
     85          1           0        5.312063    3.131762    0.414584
     86          1           0       -5.158663   -2.333083   -0.457375
     87          1           0        4.818794    0.121049   -0.635838
     88          1           0       -4.045709    0.558756   -0.231850
     89          1           0        3.315128    3.164917    1.474141
     90          1           0        1.982475    2.923997    0.627585
     91          1           0        3.242628    3.671973   -0.022694
     92          1           0       -2.736322   -2.938569    0.281395
     93          1           0       -2.630952   -2.737896   -1.440468
     94          1           0       -1.120447   -2.631836   -0.345589
     95          1           0        2.524240   -0.353496   -0.550240
     96          1           0       -1.989420    0.881241    0.174484
     97          1           0        0.342733    1.762690    0.261769
     98          1           0        0.057050   -1.200431   -0.161254
 ---------------------------------------------------------------------

 SCF Done:  E(RCAM-B3LYP) =  -1706.89298007     A.U. after   14 cycles

 Excitation energies and oscillator strengths:

 Excited State   1:      Singlet-A      2.6583 eV  466.41 nm  f=3.5526  <S**2>=0.000
     155 ->158         0.13976
     156 ->157         0.69029
 This state for optimization and/or second-order correction.
 Total Energy, E(TD-HF/TD-DFT) =  -1706.79529050
 Copying the excited state density for this state as the 1-particle RhoCI density.

 The electronic state is 1-A.
 Alpha  occ. eigenvalues --  -19.22258 -19.21759 -10.29545 -10.28430 -10.27558
 Alpha  occ. eigenvalues --  -10.27429 -10.27153 -10.27078 -10.27043 -10.26924
 Alpha  occ. eigenvalues --  -10.26782 -10.26571 -10.26538 -10.26518 -10.26516
 Alpha  occ. eigenvalues --  -10.26410 -10.26179 -10.25993 -10.25954 -10.25925
 Alpha  occ. eigenvalues --  -10.25806 -10.25754 -10.25681 -10.25488 -10.25479
 Alpha  occ. eigenvalues --  -10.25347 -10.25307 -10.25279 -10.25040 -10.25020
 Alpha  occ. eigenvalues --  -10.24975 -10.24902 -10.24785 -10.24749 -10.24575
 Alpha  occ. eigenvalues --  -10.24256 -10.24209 -10.24055 -10.23899 -10.23817
 Alpha  occ. eigenvalues --  -10.23729 -10.21759  -1.12789  -1.10083  -0.94340
 Alpha  occ. eigenvalues --   -0.94046  -0.92662  -0.91810  -0.90657  -0.90193
 Alpha  occ. eigenvalues --   -0.88319  -0.87559  -0.87327  -0.85215  -0.84186
 Alpha  occ. eigenvalues --   -0.83184  -0.81862  -0.80342  -0.79720  -0.79607
 Alpha  occ. eigenvalues --   -0.78067  -0.77429  -0.76847  -0.76776  -0.76484
 Alpha  occ. eigenvalues --   -0.76109  -0.75616  -0.75491  -0.74485  -0.71498
 Alpha  occ. eigenvalues --   -0.68987  -0.67856  -0.66108  -0.65634  -0.64952
 Alpha  occ. eigenvalues --   -0.64637  -0.63623  -0.61858  -0.60568  -0.60413
 Alpha  occ. eigenvalues --   -0.59680  -0.58733  -0.58365  -0.57982  -0.56679
 Alpha  occ. eigenvalues --   -0.56276  -0.55828  -0.55438  -0.54427  -0.54217
 Alpha  occ. eigenvalues --   -0.53798  -0.53462  -0.52779  -0.52370  -0.51997
 Alpha  occ. eigenvalues --   -0.51176  -0.50911  -0.50791  -0.50129  -0.49427
 Alpha  occ. eigenvalues --   -0.49299  -0.49178  -0.48906  -0.48882  -0.48362
 Alpha  occ. eigenvalues --   -0.48158  -0.48018  -0.47787  -0.47582  -0.47390
 Alpha  occ. eigenvalues --   -0.47318  -0.46799  -0.46599  -0.46227  -0.45787
 Alpha  occ. eigenvalues --   -0.45663  -0.45450  -0.44959  -0.44239  -0.44155
 Alpha  occ. eigenvalues --   -0.43631  -0.43198  -0.42988  -0.42620  -0.42305
 Alpha  occ. eigenvalues --   -0.42021  -0.41583  -0.40888  -0.40781  -0.40750
 Alpha  occ. eigenvalues --   -0.40432  -0.40057  -0.39843  -0.39594  -0.39386
 Alpha  occ. eigenvalues --   -0.39201  -0.38583  -0.38339  -0.38259  -0.37781
 Alpha  occ. eigenvalues --   -0.37642  -0.36787  -0.36450  -0.36155  -0.36101
 Alpha  occ. eigenvalues --   -0.35413  -0.34977  -0.33905  -0.32564  -0.30742
 Alpha  occ. eigenvalues --   -0.30460  -0.29852  -0.28744  -0.26088  -0.24583
 Alpha  occ. eigenvalues --   -0.20559
 Alpha virt. eigenvalues --   -0.04847   0.00640   0.02919   0.06214   0.08403
 Alpha virt. eigenvalues --    0.09265   0.10609   0.10876   0.11743   0.12503
 Alpha virt. eigenvalues --    0.12682   0.13045   0.13208   0.13608   0.14225

 Mulliken charges:
               1
     1  O   -0.550815
     2  O   -0.532300
     3  C   -0.031059
     4  C   -0.017557
     5  C   -0.206448
     6  C   -0.205136
     7  C    0.189133
     8  C    0.170357
     9  C    0.068973
    10  C    0.061556
    11  C   -0.204585
    12  C   -0.236045
    13  C    0.031887
    14  C    0.051516
    15  C   -0.277731
    16  C   -0.287606
    17  C   -0.289449
    18  C   -0.296174
    19  C   -0.113392
    20  C   -0.114162
    21  C   -0.339596
    22  C   -0.343091
    23  C   -0.124871
    24  C   -0.106367
    25  C    0.046586
    26  C    0.073926
    27  C   -0.347078
    28  C   -0.338338
    29  C   -0.103268
    30  C   -0.123449
    31  C   -0.094523
    32  C   -0.096650
    33  C   -0.106000
    34  C   -0.088303
    35  C    0.089316
    36  C    0.104935
    37  C   -0.321620
    38  C   -0.367754
    39  C   -0.111784
    40  C   -0.112214
    41  C   -0.105095
    42  C   -0.079093
    43  H    0.063104
    44  H    0.063236
    45  H    0.066995
    46  H    0.106902
    47  H    0.056544
    48  H    0.075325
    49  H    0.127778
    50  H    0.103814
    51  H    0.101024
    52  H    0.116894
    53  H    0.091155
    54  H    0.109905
    55  H    0.099646
    56  H    0.090279
    57  H    0.114757
    58  H    0.094853
    59  H    0.095808
    60  H    0.059410
    61  H    0.114147
    62  H    0.064520
    63  H    0.105577
    64  H    0.118413
    65  H    0.099586
    66  H    0.090615
    67  H    0.106214
    68  H    0.135464
    69  H    0.078415
    70  H    0.112156
    71  H    0.122172
    72  H    0.083530
    73  H    0.307532
    74  H    0.307719
    75  H    0.098365
    76  H    0.096076
    77  H    0.110487
    78  H    0.116276
    79  H    0.131845
    80  H    0.114781
    81  H    0.124790
    82  H    0.103868
    83  H    0.078970
    84  H    0.064335
    85  H    0.083219
    86  H    0.081730
    87  H    0.052262
    88  H    0.087741
    89  H    0.126783
    90  H    0.082832
    91  H    0.111078
    92  H    0.132830
    93  H    0.117757
    94  H    0.092265
    95  H    0.079424
    96  H    0.060205
    97  H    0.087037
    98  H    0.064926
 Sum of Mulliken charges =  -0.00000

 Dipole moment (field-independent basis, Debye):
    X=             -0.3417    Y=             -0.9400    Z=              2.2284  Tot=              2.4426
 Quadrupole moment (field-independent basis, Debye-Ang):
   XX=           -251.7664   YY=           -245.9166   ZZ=           -259.4702
   XY=             11.1918   XZ=              4.2508   YZ=             -0.6864

 Normal termination of Gaussian 16 at Tue Jul  9 20:33:34 2019.
