 Gaussian 16, Revision A.03,
 Gaussian 16:  ES64L-G16RevA.03 25-Dec-2016

 -------------------------------------
 # td=(NStates=1) CAM-B3LYP/6-31G(d,p)
 -------------------------------------

 --
 TD
 --
 Symbolic Z-matrix:
 Charge =  0 Multiplicity = 1

                         Standard orientation:
 ---------------------------------------------------------------------
 Center     Atomic      Atomic             Coordinates (Angstroms)
 Number     Number       Type             X           Y           Z
 ---------------------------------------------------------------------
      1          8           0       14.525048   -2.320311   -0.514568
      2          8           0      -14.687796    2.116671    0.625107
      3          6           0       11.421893   -1.117373    1.176308
      4          6           0      -12.337472   -0.829984    0.791102
      5          6           0       12.930371   -1.461567    1.068026
      6          6           0      -13.671741   -0.061339    0.797951
      7          6           0       13.193306   -1.949881   -0.374660
      8          6           0      -13.437518    1.456581    0.727871
      9          6           0       10.975838   -0.195451   -0.016632
     10          6           0      -11.343383   -0.264503   -0.200222
     11          6           0       13.001642   -0.845091   -1.342159
     12          6           0      -12.802747    1.734166   -0.631195
     13          6           0       11.718389   -0.084054   -1.132461
     14          6           0      -11.498790    0.863225   -0.908872
     15          6           0       11.155820   -0.313428    2.469799
     16          6           0       10.617730   -2.425012    1.246530
     17          6           0      -11.720861   -0.937267    2.281079
     18          6           0      -12.703717   -2.248287    0.323272
     19          6           0        9.601940    0.278734    0.075336
     20          6           0      -10.108422   -1.124479   -0.438420
     21          6           0       11.356430    0.682478   -2.366646
     22          6           0      -10.661784    1.432653   -1.992868
     23          6           0        9.370406    1.629934   -0.144435
     24          6           0       -8.851241   -0.634127   -0.296188
     25          6           0        8.046048    2.316558    0.180255
     26          6           0       -7.584532   -1.433733   -0.458935
     27          6           0        8.173389    3.799579    0.551207
     28          6           0       -7.729398   -2.921289   -0.660354
     29          6           0        6.925830    1.445125    0.032709
     30          6           0       -6.353199   -0.793444   -0.292613
     31          6           0        5.554977    2.007969    0.278217
     32          6           0       -4.988323   -1.312468   -0.438222
     33          6           0        4.419276    1.217346    0.059241
     34          6           0       -4.001441   -0.515348   -0.237918
     35          6           0        3.040318    1.645737    0.117306
     36          6           0       -2.637858   -0.778524   -0.416881
     37          6           0        2.763610    3.178067    0.484049
     38          6           0       -2.254015   -2.247074   -0.849225
     39          6           0        2.052933    0.789677   -0.078468
     40          6           0       -1.581226    0.094701   -0.139206
     41          6           0        0.676700    0.969452    0.081588
     42          6           0       -0.215481   -0.079757   -0.124734
     43          1           0       13.364819   -0.601793    1.266785
     44          1           0       13.024388   -2.188226    1.782087
     45          1           0      -14.071399   -0.315042    1.841769
     46          1           0      -14.145831   -0.190022   -0.111751
     47          1           0       12.473563   -2.675702   -0.561716
     48          1           0      -12.823789    1.860605    1.499928
     49          1           0       13.855000   -0.216838   -1.298276
     50          1           0       13.071517   -1.241573   -2.514099
     51          1           0      -13.651438    1.759583   -1.528083
     52          1           0      -12.357272    2.766551   -0.682922
     53          1           0       11.549349   -1.009713    3.139324
     54          1           0       10.124062   -0.052006    2.593630
     55          1           0       11.591491    0.768860    2.457615
     56          1           0       10.951905   -3.025894    0.326892
     57          1           0       10.963787   -3.067440    2.152366
     58          1           0        9.597061   -2.350455    1.289763
     59          1           0      -11.762453    0.128157    2.583117
     60          1           0      -10.796742   -1.380557    2.205501
     61          1           0      -12.273413   -1.637484    2.897972
     62          1           0      -13.407259   -2.411435    1.131079
     63          1           0      -11.898202   -2.886781    0.515050
     64          1           0      -13.035454   -2.356833   -0.721000
     65          1           0        8.936250   -0.476885    0.570023
     66          1           0      -10.122187   -2.148725   -0.617407
     67          1           0       10.267200    0.898768   -2.372286
     68          1           0       11.760921    1.712996   -2.338002
     69          1           0       11.773535    0.179896   -3.268622
     70          1           0      -11.359404    1.636658   -2.828814
     71          1           0       -9.795571    0.734635   -2.327391
     72          1           0      -10.104507    2.398953   -1.856085
     73          1           0       14.813430   -3.064569    0.095350
     74          1           0      -15.397898    1.973813    1.386935
     75          1           0       10.282472    2.349644   -0.221360
     76          1           0       -8.613318    0.550837   -0.281527
     77          1           0        8.725810    4.255157   -0.318942
     78          1           0        7.147685    4.257994    0.668694
     79          1           0        9.136044    3.991982    1.406426
     80          1           0       -8.373764   -3.528410    0.042841
     81          1           0       -8.242983   -3.095953   -1.644888
     82          1           0       -6.722171   -3.346926   -0.707355
     83          1           0        6.979602    0.423266   -0.026077
     84          1           0       -6.266917    0.325354   -0.189362
     85          1           0        5.250093    3.131388    0.643947
     86          1           0       -4.907010   -2.270772   -0.970333
     87          1           0        4.531095    0.171901   -0.401203
     88          1           0       -4.359080    0.462210    0.324835
     89          1           0        3.098780    3.349693    1.401990
     90          1           0        1.656743    3.503264    0.666839
     91          1           0        3.213674    3.817916   -0.322598
     92          1           0       -2.689892   -3.069332   -0.247267
     93          1           0       -2.563622   -2.401252   -1.665854
     94          1           0       -1.212432   -2.131685   -0.938139
     95          1           0        2.364981   -0.255797   -0.335969
     96          1           0       -1.897605    1.122172    0.239186
     97          1           0        0.268980    1.827512    0.468256
     98          1           0        0.297162   -1.143559   -0.388386
 ---------------------------------------------------------------------

 SCF Done:  E(RCAM-B3LYP) =  -1706.99806295     A.U. after   14 cycles

 Excitation energies and oscillator strengths:

 Excited State   1:      Singlet-A      2.5423 eV  487.69 nm  f=3.6548  <S**2>=0.000
     155 ->158         0.16694
     156 ->157         0.68333
 This state for optimization and/or second-order correction.
 Total Energy, E(TD-HF/TD-DFT) =  -1706.90463688
 Copying the excited state density for this state as the 1-particle RhoCI density.

 The electronic state is 1-A.
 Alpha  occ. eigenvalues --  -19.21138 -19.20717 -10.29679 -10.29354 -10.29272
 Alpha  occ. eigenvalues --  -10.29049 -10.28228 -10.27782 -10.27676 -10.27321
 Alpha  occ. eigenvalues --  -10.27277 -10.27175 -10.27086 -10.27045 -10.26903
 Alpha  occ. eigenvalues --  -10.26848 -10.26820 -10.26685 -10.26652 -10.26568
 Alpha  occ. eigenvalues --  -10.26258 -10.26198 -10.26105 -10.25984 -10.25927
 Alpha  occ. eigenvalues --  -10.25865 -10.25833 -10.25626 -10.25579 -10.25544
 Alpha  occ. eigenvalues --  -10.25398 -10.25366 -10.25359 -10.25244 -10.25225
 Alpha  occ. eigenvalues --  -10.24511 -10.24420 -10.24323 -10.24234 -10.23522
 Alpha  occ. eigenvalues --  -10.22960 -10.22806  -1.09479  -1.07221  -0.93683
 Alpha  occ. eigenvalues --   -0.92831  -0.92171  -0.91183  -0.89497  -0.88977
 Alpha  occ. eigenvalues --   -0.87436  -0.87119  -0.86155  -0.85147  -0.84241
 Alpha  occ. eigenvalues --   -0.82908  -0.81573  -0.79787  -0.79634  -0.78615
 Alpha  occ. eigenvalues --   -0.76579  -0.76524  -0.76285  -0.76072  -0.76027
 Alpha  occ. eigenvalues --   -0.75430  -0.75107  -0.74338  -0.73628  -0.70528
 Alpha  occ. eigenvalues --   -0.68488  -0.66831  -0.65760  -0.64700  -0.63499
 Alpha  occ. eigenvalues --   -0.63134  -0.62185  -0.61566  -0.60554  -0.60286
 Alpha  occ. eigenvalues --   -0.59435  -0.59263  -0.58433  -0.57111  -0.56324
 Alpha  occ. eigenvalues --   -0.56013  -0.55257  -0.54305  -0.54187  -0.53156
 Alpha  occ. eigenvalues --   -0.52816  -0.51980  -0.51704  -0.50975  -0.50861
 Alpha  occ. eigenvalues --   -0.50428  -0.50142  -0.50046  -0.49663  -0.49439
 Alpha  occ. eigenvalues --   -0.48960  -0.48499  -0.47910  -0.47637  -0.47507
 Alpha  occ. eigenvalues --   -0.47322  -0.47095  -0.46940  -0.46640  -0.46528
 Alpha  occ. eigenvalues --   -0.46217  -0.45826  -0.45591  -0.45352  -0.45077
 Alpha  occ. eigenvalues --   -0.44742  -0.44441  -0.44077  -0.43832  -0.43491
 Alpha  occ. eigenvalues --   -0.43388  -0.43164  -0.42915  -0.42717  -0.42379
 Alpha  occ. eigenvalues --   -0.41769  -0.41377  -0.41291  -0.40516  -0.40294
 Alpha  occ. eigenvalues --   -0.40217  -0.39988  -0.39477  -0.39373  -0.39287
 Alpha  occ. eigenvalues --   -0.38808  -0.38571  -0.38409  -0.38230  -0.37825
 Alpha  occ. eigenvalues --   -0.37339  -0.37100  -0.36545  -0.36020  -0.35820
 Alpha  occ. eigenvalues --   -0.35152  -0.34469  -0.33679  -0.32247  -0.31672
 Alpha  occ. eigenvalues --   -0.31477  -0.29380  -0.28118  -0.26222  -0.23883
 Alpha  occ. eigenvalues --   -0.20124
 Alpha virt. eigenvalues --   -0.04714  -0.00218   0.02900   0.06184   0.08062
 Alpha virt. eigenvalues --    0.09218   0.09515   0.11437   0.11605   0.12003
 Alpha virt. eigenvalues --    0.12259   0.12530   0.12661   0.12925   0.13299

 Mulliken charges:
               1
     1  O   -0.573874
     2  O   -0.581949
     3  C   -0.069193
     4  C   -0.058421
     5  C   -0.166233
     6  C   -0.172469
     7  C    0.198099
     8  C    0.181762
     9  C    0.051165
    10  C    0.075873
    11  C   -0.221202
    12  C   -0.228395
    13  C    0.064097
    14  C    0.064075
    15  C   -0.285089
    16  C   -0.299756
    17  C   -0.311020
    18  C   -0.287580
    19  C   -0.109511
    20  C   -0.156574
    21  C   -0.365371
    22  C   -0.372377
    23  C   -0.133174
    24  C   -0.076305
    25  C    0.088708
    26  C    0.090210
    27  C   -0.358210
    28  C   -0.379593
    29  C   -0.109640
    30  C   -0.146134
    31  C   -0.106705
    32  C   -0.062718
    33  C   -0.128105
    34  C   -0.096342
    35  C    0.115026
    36  C    0.046893
    37  C   -0.378798
    38  C   -0.334753
    39  C   -0.133251
    40  C   -0.124556
    41  C   -0.062842
    42  C   -0.085806
    43  H    0.105047
    44  H    0.081640
    45  H    0.079596
    46  H    0.113882
    47  H    0.079846
    48  H    0.083938
    49  H    0.127931
    50  H    0.079378
    51  H    0.097858
    52  H    0.101160
    53  H    0.097361
    54  H    0.108045
    55  H    0.087703
    56  H    0.097367
    57  H    0.085934
    58  H    0.111148
    59  H    0.104736
    60  H    0.122917
    61  H    0.098388
    62  H    0.096251
    63  H    0.097377
    64  H    0.105370
    65  H    0.102176
    66  H    0.087039
    67  H    0.117976
    68  H    0.111289
    69  H    0.102132
    70  H    0.112302
    71  H    0.110171
    72  H    0.111919
    73  H    0.304139
    74  H    0.303562
    75  H    0.091035
    76  H    0.074587
    77  H    0.130255
    78  H    0.122719
    79  H    0.101062
    80  H    0.119933
    81  H    0.118030
    82  H    0.108357
    83  H    0.100172
    84  H    0.080988
    85  H    0.081307
    86  H    0.086436
    87  H    0.077004
    88  H    0.074116
    89  H    0.139169
    90  H    0.094791
    91  H    0.123088
    92  H    0.111117
    93  H    0.129652
    94  H    0.095926
    95  H    0.072488
    96  H    0.076079
    97  H    0.082462
    98  H    0.083688
 Sum of Mulliken charges =  -0.00000

 Dipole moment (field-independent basis, Debye):
    X=              1.3129    Y=             -1.1298    Z=              2.1248  Tot=              2.7413
 Quadrupole moment (field-independent basis, Debye-Ang):
   XX=           -260.0655   YY=           -241.8973   ZZ=           -262.3290
   XY=              8.5991   XZ=              0.9518   YZ=              1.6219

 Normal termination of Gaussian 16 at Sun Jul  7 09:17:44 2019.
