 Gaussian 16, Revision A.03,
 Gaussian 16:  ES64L-G16RevA.03 25-Dec-2016

 -------------------------------------
 # td=(NStates=1) CAM-B3LYP/6-31G(d,p)
 -------------------------------------

 --
 TD
 --
 Symbolic Z-matrix:
 Charge =  0 Multiplicity = 1

                         Standard orientation:
 ---------------------------------------------------------------------
 Center     Atomic      Atomic             Coordinates (Angstroms)
 Number     Number       Type             X           Y           Z
 ---------------------------------------------------------------------
      1          8           0       14.688340   -2.281402   -0.467370
      2          8           0      -14.771542    1.817232    0.945240
      3          6           0       11.355754   -1.259838    1.211706
      4          6           0      -12.306088   -0.973460    0.859391
      5          6           0       12.914380   -1.605021    1.123795
      6          6           0      -13.633840   -0.297021    0.931119
      7          6           0       13.207956   -2.008656   -0.299045
      8          6           0      -13.474149    1.273796    0.828291
      9          6           0       10.987251   -0.306071    0.052735
     10          6           0      -11.437228   -0.346068   -0.162080
     11          6           0       12.990944   -0.859333   -1.262688
     12          6           0      -12.832572    1.690707   -0.520042
     13          6           0       11.697513   -0.114671   -1.195968
     14          6           0      -11.664272    0.835645   -0.817029
     15          6           0       11.199057   -0.487968    2.565348
     16          6           0       10.577762   -2.502678    1.171062
     17          6           0      -11.490539   -0.847280    2.180164
     18          6           0      -12.492947   -2.455047    0.633292
     19          6           0        9.666643    0.298104    0.270176
     20          6           0      -10.119529   -0.998429   -0.481230
     21          6           0       11.263660    0.737110   -2.416692
     22          6           0      -10.777305    1.397971   -1.928346
     23          6           0        9.367075    1.658035   -0.034643
     24          6           0       -8.886547   -0.471384   -0.424466
     25          6           0        8.073888    2.286811    0.245915
     26          6           0       -7.598842   -1.222971   -0.633223
     27          6           0        8.175491    3.782559    0.598757
     28          6           0       -7.715969   -2.770001   -0.894012
     29          6           0        6.898431    1.562422    0.102149
     30          6           0       -6.389329   -0.578190   -0.528834
     31          6           0        5.542064    2.090259    0.218429
     32          6           0       -5.103513   -1.094330   -0.664963
     33          6           0        4.498519    1.313113    0.003465
     34          6           0       -4.047277   -0.252717   -0.379214
     35          6           0        3.036673    1.645711    0.138425
     36          6           0       -2.620875   -0.648488   -0.477818
     37          6           0        2.751069    3.081411    0.639398
     38          6           0       -2.297860   -2.040927   -0.903124
     39          6           0        2.088325    0.799792   -0.273589
     40          6           0       -1.605545    0.212700   -0.375611
     41          6           0        0.738070    0.908726   -0.165884
     42          6           0       -0.140339   -0.099159   -0.405703
     43          1           0       13.387369   -0.671880    1.527251
     44          1           0       12.932322   -2.417559    1.872560
     45          1           0      -14.068684   -0.550523    1.862870
     46          1           0      -14.273670   -0.603273    0.043339
     47          1           0       12.631844   -2.930920   -0.596042
     48          1           0      -12.812999    1.709682    1.660472
     49          1           0       13.821247   -0.199925   -0.940550
     50          1           0       13.126432   -1.319551   -2.298792
     51          1           0      -13.484115    1.380993   -1.386295
     52          1           0      -12.498383    2.717215   -0.438690
     53          1           0       11.892723   -1.033816    3.172738
     54          1           0       10.068286   -0.594094    2.677475
     55          1           0       11.596646    0.534891    2.682130
     56          1           0       10.674234   -3.069177    0.242626
     57          1           0       10.592145   -3.239467    2.068795
     58          1           0        9.507604   -2.140949    1.103375
     59          1           0      -11.066603    0.152245    2.258126
     60          1           0      -10.614447   -1.581496    1.997672
     61          1           0      -12.037151   -1.111776    3.177088
     62          1           0      -13.214570   -2.909347    1.444674
     63          1           0      -11.589001   -2.888515    0.572028
     64          1           0      -13.257620   -2.596323   -0.297842
     65          1           0        8.931795   -0.208035    0.765690
     66          1           0      -10.234412   -2.060561   -0.611908
     67          1           0       10.047020    0.746902   -2.576182
     68          1           0       11.570860    1.838543   -2.128588
     69          1           0       11.609269    0.391112   -3.455296
     70          1           0      -11.280644    1.597177   -2.756530
     71          1           0       -9.871111    0.858109   -2.323431
     72          1           0      -10.406184    2.421615   -1.536174
     73          1           0       14.895058   -3.072180    0.035326
     74          1           0      -15.211956    1.792247    1.798082
     75          1           0       10.038492    2.332504   -0.456551
     76          1           0       -8.715613    0.606719    0.017892
     77          1           0        9.027441    4.325803   -0.151062
     78          1           0        7.285862    4.415375    0.646112
     79          1           0        8.569263    3.839254    1.737182
     80          1           0       -8.194422   -3.247601   -0.141953
     81          1           0       -8.279470   -2.810011   -1.764407
     82          1           0       -6.763830   -2.971136   -1.037467
     83          1           0        6.939413    0.655058   -0.414093
     84          1           0       -6.530009    0.538526   -0.351355
     85          1           0        5.463311    3.122371    0.567641
     86          1           0       -5.030216   -1.968856   -1.014006
     87          1           0        4.662993    0.272182   -0.275714
     88          1           0       -4.048865    0.774339    0.078262
     89          1           0        3.730965    3.400190    1.479634
     90          1           0        1.780987    3.029404    0.998843
     91          1           0        2.912151    3.730805   -0.350887
     92          1           0       -3.205208   -2.671817   -0.320601
     93          1           0       -2.584179   -2.128646   -2.123899
     94          1           0       -1.307176   -2.369922   -0.865340
     95          1           0        2.515853   -0.193312   -0.376416
     96          1           0       -1.845341    1.407415   -0.329688
     97          1           0        0.391499    1.961588   -0.049520
     98          1           0        0.112661   -1.289224   -0.118059
 ---------------------------------------------------------------------

 SCF Done:  E(RCAM-B3LYP) =  -1706.97985243     A.U. after   14 cycles

 Excitation energies and oscillator strengths:

 Excited State   1:      Singlet-A      2.7693 eV  447.71 nm  f=3.5550  <S**2>=0.000
     155 ->158        -0.20279
     156 ->157         0.66683
 This state for optimization and/or second-order correction.
 Total Energy, E(TD-HF/TD-DFT) =  -1706.87808222
 Copying the excited state density for this state as the 1-particle RhoCI density.

 The electronic state is 1-A.
 Alpha  occ. eigenvalues --  -19.20255 -19.20119 -10.31216 -10.31111 -10.28608
 Alpha  occ. eigenvalues --  -10.28503 -10.28412 -10.28149 -10.27999 -10.27837
 Alpha  occ. eigenvalues --  -10.27581 -10.27418 -10.27294 -10.27245 -10.27183
 Alpha  occ. eigenvalues --  -10.27026 -10.26875 -10.26555 -10.26506 -10.26380
 Alpha  occ. eigenvalues --  -10.26274 -10.26247 -10.26099 -10.26047 -10.26000
 Alpha  occ. eigenvalues --  -10.25879 -10.25836 -10.25658 -10.25551 -10.25469
 Alpha  occ. eigenvalues --  -10.25465 -10.25389 -10.25373 -10.25363 -10.25343
 Alpha  occ. eigenvalues --  -10.25338 -10.25205 -10.25149 -10.24682 -10.24546
 Alpha  occ. eigenvalues --  -10.24302 -10.23209  -1.08644  -1.06577  -0.93937
 Alpha  occ. eigenvalues --   -0.93410  -0.92153  -0.91431  -0.90107  -0.89273
 Alpha  occ. eigenvalues --   -0.87530  -0.87057  -0.86781  -0.85608  -0.84130
 Alpha  occ. eigenvalues --   -0.82983  -0.81906  -0.79563  -0.79196  -0.77303
 Alpha  occ. eigenvalues --   -0.76997  -0.76464  -0.75709  -0.75418  -0.75294
 Alpha  occ. eigenvalues --   -0.75183  -0.74728  -0.74390  -0.73520  -0.70541
 Alpha  occ. eigenvalues --   -0.68941  -0.67872  -0.66007  -0.64566  -0.63631
 Alpha  occ. eigenvalues --   -0.63217  -0.62900  -0.61990  -0.60287  -0.59830
 Alpha  occ. eigenvalues --   -0.58926  -0.58273  -0.57873  -0.56694  -0.55476
 Alpha  occ. eigenvalues --   -0.54982  -0.54847  -0.54380  -0.54053  -0.53676
 Alpha  occ. eigenvalues --   -0.53357  -0.52979  -0.52459  -0.52023  -0.50635
 Alpha  occ. eigenvalues --   -0.50357  -0.50016  -0.49606  -0.49414  -0.49078
 Alpha  occ. eigenvalues --   -0.49033  -0.48603  -0.48380  -0.48065  -0.47911
 Alpha  occ. eigenvalues --   -0.47544  -0.47161  -0.46716  -0.46348  -0.46228
 Alpha  occ. eigenvalues --   -0.45885  -0.45707  -0.45429  -0.45296  -0.44897
 Alpha  occ. eigenvalues --   -0.44304  -0.44149  -0.44046  -0.43881  -0.43310
 Alpha  occ. eigenvalues --   -0.43098  -0.43051  -0.42816  -0.42428  -0.42262
 Alpha  occ. eigenvalues --   -0.41540  -0.41393  -0.41343  -0.41120  -0.40820
 Alpha  occ. eigenvalues --   -0.40581  -0.40140  -0.39324  -0.39260  -0.39124
 Alpha  occ. eigenvalues --   -0.38583  -0.38494  -0.38217  -0.37963  -0.37684
 Alpha  occ. eigenvalues --   -0.37236  -0.37143  -0.36605  -0.36110  -0.35528
 Alpha  occ. eigenvalues --   -0.35363  -0.34349  -0.33694  -0.32351  -0.31696
 Alpha  occ. eigenvalues --   -0.31168  -0.29172  -0.27703  -0.25621  -0.23333
 Alpha  occ. eigenvalues --   -0.20919
 Alpha virt. eigenvalues --   -0.04051  -0.00612   0.02066   0.05808   0.07154
 Alpha virt. eigenvalues --    0.09590   0.10190   0.11283   0.11443   0.12174
 Alpha virt. eigenvalues --    0.12354   0.12668   0.12998   0.13122   0.13365

 Mulliken charges:
               1
     1  O   -0.575048
     2  O   -0.573849
     3  C   -0.047234
     4  C   -0.025135
     5  C   -0.186877
     6  C   -0.178662
     7  C    0.138093
     8  C    0.172777
     9  C    0.048767
    10  C    0.074959
    11  C   -0.207565
    12  C   -0.208140
    13  C    0.060436
    14  C    0.028245
    15  C   -0.291079
    16  C   -0.302176
    17  C   -0.287391
    18  C   -0.277256
    19  C   -0.110392
    20  C   -0.168786
    21  C   -0.353589
    22  C   -0.347133
    23  C   -0.104375
    24  C   -0.072199
    25  C    0.074731
    26  C    0.033876
    27  C   -0.355117
    28  C   -0.339646
    29  C   -0.132198
    30  C   -0.114055
    31  C   -0.067751
    32  C   -0.063016
    33  C   -0.104159
    34  C   -0.103452
    35  C    0.080663
    36  C    0.110390
    37  C   -0.339422
    38  C   -0.336519
    39  C   -0.103838
    40  C   -0.135461
    41  C   -0.076925
    42  C   -0.109004
    43  H    0.103269
    44  H    0.086595
    45  H    0.083644
    46  H    0.096073
    47  H    0.088136
    48  H    0.068018
    49  H    0.131969
    50  H    0.102225
    51  H    0.122458
    52  H    0.112950
    53  H    0.101555
    54  H    0.097023
    55  H    0.114232
    56  H    0.115447
    57  H    0.100859
    58  H    0.093783
    59  H    0.108042
    60  H    0.095886
    61  H    0.083422
    62  H    0.089359
    63  H    0.104403
    64  H    0.078040
    65  H    0.090407
    66  H    0.079096
    67  H    0.109808
    68  H    0.118323
    69  H    0.113926
    70  H    0.118949
    71  H    0.121136
    72  H    0.090629
    73  H    0.298576
    74  H    0.306188
    75  H    0.078753
    76  H    0.079424
    77  H    0.092314
    78  H    0.121361
    79  H    0.108949
    80  H    0.128524
    81  H    0.128715
    82  H    0.103506
    83  H    0.087371
    84  H    0.073821
    85  H    0.076834
    86  H    0.081426
    87  H    0.074552
    88  H    0.090949
    89  H    0.082351
    90  H    0.120792
    91  H    0.119208
    92  H    0.082298
    93  H    0.091903
    94  H    0.114456
    95  H    0.073153
    96  H    0.063949
    97  H    0.086728
    98  H    0.088753
 Sum of Mulliken charges =  -0.00000

 Dipole moment (field-independent basis, Debye):
    X=              0.3399    Y=             -0.8641    Z=              1.8504  Tot=              2.0704
 Quadrupole moment (field-independent basis, Debye-Ang):
   XX=           -278.2873   YY=           -244.2638   ZZ=           -259.1272
   XY=              1.0332   XZ=             -5.6981   YZ=              1.3182

 Normal termination of Gaussian 16 at Thu Jul 11 00:13:35 2019.
