 Gaussian 16, Revision A.03,
 Gaussian 16:  ES64L-G16RevA.03 25-Dec-2016

 -------------------------------------
 # td=(NStates=1) CAM-B3LYP/6-31G(d,p)
 -------------------------------------

 --
 TD
 --
 Symbolic Z-matrix:
 Charge =  0 Multiplicity = 1

                         Standard orientation:
 ---------------------------------------------------------------------
 Center     Atomic      Atomic             Coordinates (Angstroms)
 Number     Number       Type             X           Y           Z
 ---------------------------------------------------------------------
      1          8           0       14.557600   -2.350007   -0.537960
      2          8           0      -14.782583    1.958339    0.486239
      3          6           0       11.482862   -1.097034    1.237405
      4          6           0      -12.285111   -0.903600    0.986194
      5          6           0       13.014725   -1.420144    1.117059
      6          6           0      -13.673356   -0.178545    0.944626
      7          6           0       13.259726   -2.006557   -0.245287
      8          6           0      -13.512589    1.328643    0.659857
      9          6           0       11.023623   -0.317157    0.004937
     10          6           0      -11.312339   -0.313039   -0.160638
     11          6           0       13.060977   -0.897187   -1.288439
     12          6           0      -12.843715    1.608014   -0.586726
     13          6           0       11.790782   -0.238884   -1.145328
     14          6           0      -11.530953    0.890501   -0.831621
     15          6           0       11.289214   -0.247852    2.463001
     16          6           0       10.674562   -2.316660    1.392813
     17          6           0      -11.599945   -0.773239    2.378590
     18          6           0      -12.471264   -2.428637    0.734842
     19          6           0        9.652773    0.371158    0.266857
     20          6           0      -10.071414   -1.049986   -0.347859
     21          6           0       11.153886    0.572267   -2.430233
     22          6           0      -10.791640    1.413234   -2.045117
     23          6           0        9.357583    1.694726    0.010069
     24          6           0       -8.782914   -0.586250   -0.130175
     25          6           0        7.996564    2.275950    0.219615
     26          6           0       -7.595744   -1.381383   -0.509932
     27          6           0        8.126442    3.678678    0.665311
     28          6           0       -7.725258   -2.729808   -0.941262
     29          6           0        6.857542    1.584582   -0.055576
     30          6           0       -6.457748   -0.751939   -0.344824
     31          6           0        5.547529    2.066505    0.219695
     32          6           0       -5.136454   -1.114395   -0.427929
     33          6           0        4.486820    1.266389   -0.169031
     34          6           0       -4.045002   -0.360550   -0.336212
     35          6           0        3.053319    1.637978    0.055952
     36          6           0       -2.595725   -0.733967   -0.529375
     37          6           0        2.856273    3.094163    0.474766
     38          6           0       -2.378235   -2.146793   -1.044141
     39          6           0        2.070282    0.810920   -0.257724
     40          6           0       -1.643055    0.137833   -0.329274
     41          6           0        0.665239    0.963995   -0.122674
     42          6           0       -0.274321    0.036677   -0.346745
     43          1           0       13.556759   -0.612390    1.239409
     44          1           0       13.311763   -1.971472    1.956935
     45          1           0      -14.136561   -0.333666    1.970496
     46          1           0      -14.355623   -0.595739    0.076356
     47          1           0       12.743588   -3.018763   -0.402604
     48          1           0      -13.091272    1.910584    1.538075
     49          1           0       14.005054   -0.230553   -1.111234
     50          1           0       13.000819   -1.291931   -2.377110
     51          1           0      -13.435067    1.451798   -1.350309
     52          1           0      -12.641451    2.605800   -0.601617
     53          1           0       11.740961   -0.629538    3.493104
     54          1           0       10.192486   -0.040792    2.531847
     55          1           0       11.751500    0.669816    2.242299
     56          1           0       10.827013   -2.879783    0.363825
     57          1           0       10.997876   -3.110912    2.181388
     58          1           0        9.745804   -2.213045    1.671022
     59          1           0      -11.647352    0.324763    2.686223
     60          1           0      -10.519019   -1.236349    2.562092
     61          1           0      -12.273097   -1.332005    3.284535
     62          1           0      -13.135537   -2.693262    1.648915
     63          1           0      -11.446102   -2.856059    0.769109
     64          1           0      -13.173944   -2.562224   -0.337568
     65          1           0        8.924232   -0.381597    0.683533
     66          1           0      -10.300555   -2.168639   -0.679992
     67          1           0       10.161909    1.181748   -2.182386
     68          1           0       12.108518    1.146415   -2.897601
     69          1           0       11.023287   -0.140124   -3.221330
     70          1           0      -11.463719    1.723149   -2.768824
     71          1           0      -10.357077    0.419476   -2.502266
     72          1           0      -10.189416    2.257974   -1.726926
     73          1           0       14.727777   -3.121115    0.179695
     74          1           0      -15.340732    2.025969    1.359319
     75          1           0       10.147772    2.358648   -0.302066
     76          1           0       -8.731065    0.406802    0.164699
     77          1           0        8.443179    4.124596   -0.170968
     78          1           0        7.031572    4.146303    1.046317
     79          1           0        8.812451    3.589109    1.605200
     80          1           0       -8.143410   -3.353342   -0.124879
     81          1           0       -8.196267   -3.001564   -2.051701
     82          1           0       -6.785189   -3.371787   -0.898233
     83          1           0        6.889722    0.521945   -0.445025
     84          1           0       -6.410708    0.223894    0.118198
     85          1           0        5.373197    3.126701    0.579633
     86          1           0       -4.961801   -2.196490   -0.707114
     87          1           0        4.565149    0.256457   -0.888329
     88          1           0       -4.315646    0.787261   -0.382394
     89          1           0        3.371931    3.174285    1.625447
     90          1           0        1.840041    3.440510    0.601551
     91          1           0        3.396883    3.804231   -0.073106
     92          1           0       -2.725840   -3.006696   -0.420376
     93          1           0       -2.865049   -2.214341   -2.255648
     94          1           0       -1.298442   -2.431758   -1.290045
     95          1           0        2.226138   -0.115283   -0.726484
     96          1           0       -2.052923    1.132774   -0.114441
     97          1           0        0.371226    1.915336    0.275403
     98          1           0        0.340477   -1.113411   -0.263090
 ---------------------------------------------------------------------

 SCF Done:  E(RCAM-B3LYP) =  -1706.92311647     A.U. after   14 cycles

 Excitation energies and oscillator strengths:

 Excited State   1:      Singlet-A      2.9259 eV  423.75 nm  f=3.7145  <S**2>=0.000
     155 ->158         0.18574
     156 ->157         0.67415
 This state for optimization and/or second-order correction.
 Total Energy, E(TD-HF/TD-DFT) =  -1706.81559327
 Copying the excited state density for this state as the 1-particle RhoCI density.

 The electronic state is 1-A.
 Alpha  occ. eigenvalues --  -19.21703 -19.20606 -10.30480 -10.29922 -10.28228
 Alpha  occ. eigenvalues --  -10.27904 -10.27715 -10.27680 -10.27579 -10.27502
 Alpha  occ. eigenvalues --  -10.27433 -10.27417 -10.27266 -10.27012 -10.27004
 Alpha  occ. eigenvalues --  -10.26935 -10.26907 -10.26882 -10.26864 -10.26804
 Alpha  occ. eigenvalues --  -10.26647 -10.26642 -10.26577 -10.26515 -10.26437
 Alpha  occ. eigenvalues --  -10.26356 -10.26354 -10.26257 -10.26240 -10.25901
 Alpha  occ. eigenvalues --  -10.25844 -10.25780 -10.25708 -10.25493 -10.25290
 Alpha  occ. eigenvalues --  -10.25002 -10.24956 -10.24443 -10.24366 -10.24237
 Alpha  occ. eigenvalues --  -10.23345 -10.22080  -1.10281  -1.07561  -0.93740
 Alpha  occ. eigenvalues --   -0.92810  -0.92132  -0.91690  -0.91116  -0.90042
 Alpha  occ. eigenvalues --   -0.87148  -0.86852  -0.86719  -0.85555  -0.84238
 Alpha  occ. eigenvalues --   -0.83392  -0.82235  -0.79927  -0.79662  -0.78248
 Alpha  occ. eigenvalues --   -0.76600  -0.76302  -0.75577  -0.75521  -0.75354
 Alpha  occ. eigenvalues --   -0.74715  -0.74521  -0.73896  -0.73438  -0.69998
 Alpha  occ. eigenvalues --   -0.68239  -0.67231  -0.65600  -0.64727  -0.63277
 Alpha  occ. eigenvalues --   -0.63043  -0.61917  -0.60867  -0.60586  -0.59691
 Alpha  occ. eigenvalues --   -0.59595  -0.59182  -0.58044  -0.57677  -0.56100
 Alpha  occ. eigenvalues --   -0.55563  -0.54684  -0.54531  -0.53933  -0.53099
 Alpha  occ. eigenvalues --   -0.52680  -0.52111  -0.51657  -0.51562  -0.51100
 Alpha  occ. eigenvalues --   -0.50756  -0.50578  -0.50074  -0.49793  -0.48790
 Alpha  occ. eigenvalues --   -0.48689  -0.48639  -0.48502  -0.47865  -0.47558
 Alpha  occ. eigenvalues --   -0.47531  -0.47369  -0.46781  -0.46529  -0.46322
 Alpha  occ. eigenvalues --   -0.45868  -0.45435  -0.44961  -0.44624  -0.44602
 Alpha  occ. eigenvalues --   -0.44553  -0.44069  -0.43933  -0.43425  -0.43277
 Alpha  occ. eigenvalues --   -0.43153  -0.42485  -0.41957  -0.41675  -0.41431
 Alpha  occ. eigenvalues --   -0.41256  -0.41175  -0.40862  -0.40688  -0.40594
 Alpha  occ. eigenvalues --   -0.40367  -0.40123  -0.39784  -0.39626  -0.39021
 Alpha  occ. eigenvalues --   -0.38657  -0.38197  -0.37512  -0.37497  -0.37368
 Alpha  occ. eigenvalues --   -0.37103  -0.36785  -0.36511  -0.36108  -0.35462
 Alpha  occ. eigenvalues --   -0.35245  -0.34474  -0.32988  -0.32252  -0.31518
 Alpha  occ. eigenvalues --   -0.31400  -0.28941  -0.27830  -0.26432  -0.24125
 Alpha  occ. eigenvalues --   -0.21367
 Alpha virt. eigenvalues --   -0.03860  -0.00061   0.02794   0.05832   0.07389
 Alpha virt. eigenvalues --    0.09446   0.10328   0.10567   0.11016   0.11195
 Alpha virt. eigenvalues --    0.11264   0.11660   0.11930   0.13401   0.13643

 Mulliken charges:
               1
     1  O   -0.555865
     2  O   -0.583443
     3  C   -0.033582
     4  C    0.002820
     5  C   -0.168116
     6  C   -0.183639
     7  C    0.166288
     8  C    0.167042
     9  C    0.036792
    10  C    0.037871
    11  C   -0.229000
    12  C   -0.184455
    13  C    0.063188
    14  C    0.011090
    15  C   -0.293414
    16  C   -0.276444
    17  C   -0.289148
    18  C   -0.271466
    19  C   -0.118098
    20  C   -0.171118
    21  C   -0.354459
    22  C   -0.350358
    23  C   -0.126724
    24  C   -0.081896
    25  C    0.045430
    26  C    0.161901
    27  C   -0.342255
    28  C   -0.396795
    29  C   -0.096360
    30  C   -0.121023
    31  C   -0.087010
    32  C   -0.066882
    33  C   -0.126094
    34  C   -0.139635
    35  C    0.125876
    36  C    0.135559
    37  C   -0.368946
    38  C   -0.362699
    39  C   -0.126356
    40  C   -0.120918
    41  C   -0.063726
    42  C   -0.086455
    43  H    0.103006
    44  H    0.082579
    45  H    0.078388
    46  H    0.095613
    47  H    0.072292
    48  H    0.070292
    49  H    0.124555
    50  H    0.103265
    51  H    0.129609
    52  H    0.109490
    53  H    0.080340
    54  H    0.098003
    55  H    0.107944
    56  H    0.085320
    57  H    0.078138
    58  H    0.110350
    59  H    0.099993
    60  H    0.109406
    61  H    0.060817
    62  H    0.093916
    63  H    0.109549
    64  H    0.069359
    65  H    0.102561
    66  H    0.087839
    67  H    0.121188
    68  H    0.086424
    69  H    0.120010
    70  H    0.120461
    71  H    0.114453
    72  H    0.123377
    73  H    0.294636
    74  H    0.302202
    75  H    0.104425
    76  H    0.087378
    77  H    0.144674
    78  H    0.077664
    79  H    0.122097
    80  H    0.123671
    81  H    0.107740
    82  H    0.106042
    83  H    0.086788
    84  H    0.071721
    85  H    0.094239
    86  H    0.069670
    87  H    0.082101
    88  H    0.070702
    89  H    0.082169
    90  H    0.113568
    91  H    0.136559
    92  H    0.122260
    93  H    0.082370
    94  H    0.108798
    95  H    0.069989
    96  H    0.083915
    97  H    0.071781
    98  H    0.056824
 Sum of Mulliken charges =  -0.00000

 Dipole moment (field-independent basis, Debye):
    X=              0.6101    Y=             -0.3040    Z=              1.9871  Tot=              2.1008
 Quadrupole moment (field-independent basis, Debye-Ang):
   XX=           -264.5282   YY=           -244.5653   ZZ=           -259.8720
   XY=             -1.7814   XZ=              0.2031   YZ=              1.1893

 Normal termination of Gaussian 16 at Sat Jul  6 22:08:26 2019.
