 Gaussian 16, Revision A.03,
 Gaussian 16:  ES64L-G16RevA.03 25-Dec-2016

 -------------------------------------
 # td=(NStates=1) CAM-B3LYP/6-31G(d,p)
 -------------------------------------

 --
 TD
 --
 Symbolic Z-matrix:
 Charge =  0 Multiplicity = 1

                         Standard orientation:
 ---------------------------------------------------------------------
 Center     Atomic      Atomic             Coordinates (Angstroms)
 Number     Number       Type             X           Y           Z
 ---------------------------------------------------------------------
      1          8           0       14.543776   -2.413135   -0.743959
      2          8           0      -14.941635    1.941944    0.418614
      3          6           0       11.452905   -1.095890    1.100960
      4          6           0      -12.303836   -0.837663    0.779531
      5          6           0       12.978255   -1.498906    0.934649
      6          6           0      -13.599416   -0.195598    0.638162
      7          6           0       13.175172   -2.052989   -0.507273
      8          6           0      -13.585048    1.334413    0.507552
      9          6           0       10.958082   -0.357238   -0.046577
     10          6           0      -11.302847   -0.321183   -0.220870
     11          6           0       12.944057   -0.789569   -1.522584
     12          6           0      -12.758440    1.640663   -0.700383
     13          6           0       11.607277   -0.119332   -1.215914
     14          6           0      -11.535045    0.822909   -0.974234
     15          6           0       11.356936   -0.443078    2.565845
     16          6           0       10.554631   -2.359822    1.328292
     17          6           0      -11.722884   -0.782025    2.235323
     18          6           0      -12.538667   -2.445918    0.447423
     19          6           0        9.738607    0.378798    0.173690
     20          6           0       -9.956262   -1.023698   -0.344284
     21          6           0       11.095896    0.677839   -2.302758
     22          6           0      -10.624099    1.435785   -2.046631
     23          6           0        9.306949    1.641943   -0.058287
     24          6           0       -8.814299   -0.557479   -0.129303
     25          6           0        7.931529    2.243248    0.106460
     26          6           0       -7.533090   -1.292341   -0.276066
     27          6           0        8.099483    3.717154    0.630388
     28          6           0       -7.641191   -2.693672   -0.718521
     29          6           0        6.926634    1.532642    0.119449
     30          6           0       -6.409976   -0.662411   -0.100842
     31          6           0        5.575455    2.088575    0.300075
     32          6           0       -5.113871   -1.196366   -0.315911
     33          6           0        4.461719    1.306745    0.077819
     34          6           0       -4.002135   -0.424277   -0.122279
     35          6           0        2.994947    1.733723    0.265383
     36          6           0       -2.566587   -0.847900   -0.358653
     37          6           0        2.908321    3.101926    0.769707
     38          6           0       -2.156406   -2.251472   -0.645787
     39          6           0        2.044433    0.773214   -0.156537
     40          6           0       -1.656781    0.192610   -0.208962
     41          6           0        0.671254    0.949788   -0.075114
     42          6           0       -0.211721    0.045067   -0.330416
     43          1           0       13.358494   -0.385255    1.041310
     44          1           0       13.200898   -2.152659    1.588616
     45          1           0      -14.384303   -0.281486    1.454520
     46          1           0      -14.109970   -0.467890   -0.261206
     47          1           0       12.306805   -2.930678   -0.705207
     48          1           0      -13.014686    1.854844    1.293797
     49          1           0       13.664047   -0.014075   -1.491770
     50          1           0       12.934757   -1.120231   -2.529261
     51          1           0      -13.408044    1.580734   -1.665796
     52          1           0      -12.605020    2.633070   -0.693819
     53          1           0       11.753822   -1.154674    3.268079
     54          1           0       10.440665   -0.030027    2.797854
     55          1           0       12.259860    0.439785    2.595112
     56          1           0       10.452832   -3.051510    0.458147
     57          1           0       10.944563   -3.068965    2.130933
     58          1           0        9.384443   -1.936885    1.417843
     59          1           0      -11.744524    0.122818    2.521564
     60          1           0      -10.617886   -1.181583    2.274117
     61          1           0      -12.268492   -1.443140    2.903102
     62          1           0      -13.134894   -2.769900    1.218922
     63          1           0      -11.572818   -2.944356    0.512139
     64          1           0      -12.948435   -2.659594   -0.539852
     65          1           0        8.872468   -0.081499    0.713909
     66          1           0      -10.122748   -2.006431   -0.434924
     67          1           0       10.000569    0.996749   -2.287443
     68          1           0       11.656688    1.667807   -2.517141
     69          1           0       11.311565   -0.023861   -3.277270
     70          1           0      -11.110824    1.749618   -2.835608
     71          1           0       -9.622500    0.751548   -2.151372
     72          1           0      -10.210882    2.365476   -1.698311
     73          1           0       14.755480   -3.053304   -0.092540
     74          1           0      -15.377247    1.713231    1.196598
     75          1           0       10.133437    2.307650   -0.486812
     76          1           0       -8.787877    0.362748    0.098338
     77          1           0        8.552695    4.456581   -0.078288
     78          1           0        7.295653    4.278935    1.010233
     79          1           0        8.779621    3.552872    1.549631
     80          1           0       -8.307145   -3.387309    0.103143
     81          1           0       -8.164947   -3.074237   -1.749673
     82          1           0       -6.580125   -3.348408   -0.772702
     83          1           0        6.919918    0.556765   -0.320336
     84          1           0       -6.567487    0.299085    0.137099
     85          1           0        5.326190    3.044033    0.662634
     86          1           0       -4.968461   -2.247804   -0.712921
     87          1           0        4.602923    0.420239   -0.185676
     88          1           0       -4.078922    0.659798    0.210808
     89          1           0        3.663094    3.495536    1.499605
     90          1           0        1.996195    3.319414    0.950549
     91          1           0        3.246578    3.674430   -0.044054
     92          1           0       -2.500746   -2.975042    0.287691
     93          1           0       -2.611613   -2.710744   -1.632429
     94          1           0       -1.001635   -2.227528   -0.715406
     95          1           0        2.313810   -0.210026   -0.615066
     96          1           0       -2.043335    1.225439    0.203065
     97          1           0        0.166163    1.719717    0.169408
     98          1           0        0.254554   -0.749589   -0.786250
 ---------------------------------------------------------------------

 SCF Done:  E(RCAM-B3LYP) =  -1706.88103525     A.U. after   13 cycles

 Excitation energies and oscillator strengths:

 Excited State   1:      Singlet-A      3.1234 eV  396.95 nm  f=3.4991  <S**2>=0.000
     155 ->158         0.15888
     156 ->157         0.68190
 This state for optimization and/or second-order correction.
 Total Energy, E(TD-HF/TD-DFT) =  -1706.76625111
 Copying the excited state density for this state as the 1-particle RhoCI density.

 The electronic state is 1-A.
 Alpha  occ. eigenvalues --  -19.21509 -19.20891 -10.32890 -10.30218 -10.28889
 Alpha  occ. eigenvalues --  -10.28556 -10.28344 -10.28055 -10.27821 -10.27728
 Alpha  occ. eigenvalues --  -10.27552 -10.27118 -10.26977 -10.26738 -10.26676
 Alpha  occ. eigenvalues --  -10.26644 -10.26581 -10.26488 -10.26425 -10.26390
 Alpha  occ. eigenvalues --  -10.26225 -10.26089 -10.25832 -10.25772 -10.25671
 Alpha  occ. eigenvalues --  -10.25657 -10.25568 -10.25097 -10.25091 -10.24752
 Alpha  occ. eigenvalues --  -10.24644 -10.24587 -10.24527 -10.24483 -10.24440
 Alpha  occ. eigenvalues --  -10.24414 -10.24154 -10.24036 -10.23910 -10.23576
 Alpha  occ. eigenvalues --  -10.23359 -10.23286  -1.09889  -1.08481  -0.94020
 Alpha  occ. eigenvalues --   -0.93846  -0.92637  -0.92242  -0.91638  -0.89767
 Alpha  occ. eigenvalues --   -0.88157  -0.87283  -0.86640  -0.86417  -0.84888
 Alpha  occ. eigenvalues --   -0.82843  -0.82264  -0.80592  -0.79423  -0.78714
 Alpha  occ. eigenvalues --   -0.76957  -0.76825  -0.76281  -0.76186  -0.75843
 Alpha  occ. eigenvalues --   -0.75520  -0.75434  -0.74450  -0.74214  -0.70289
 Alpha  occ. eigenvalues --   -0.68542  -0.67308  -0.66112  -0.64985  -0.64811
 Alpha  occ. eigenvalues --   -0.64624  -0.64310  -0.63407  -0.62054  -0.60185
 Alpha  occ. eigenvalues --   -0.59885  -0.58435  -0.57812  -0.57594  -0.56033
 Alpha  occ. eigenvalues --   -0.55925  -0.55486  -0.54867  -0.54735  -0.54588
 Alpha  occ. eigenvalues --   -0.54104  -0.53036  -0.52327  -0.52009  -0.51420
 Alpha  occ. eigenvalues --   -0.50843  -0.50478  -0.49699  -0.49601  -0.49180
 Alpha  occ. eigenvalues --   -0.48939  -0.48733  -0.48414  -0.48380  -0.47834
 Alpha  occ. eigenvalues --   -0.47683  -0.47227  -0.47017  -0.46685  -0.46560
 Alpha  occ. eigenvalues --   -0.46201  -0.45741  -0.45727  -0.45632  -0.45200
 Alpha  occ. eigenvalues --   -0.45037  -0.44609  -0.44463  -0.43660  -0.43062
 Alpha  occ. eigenvalues --   -0.42875  -0.42751  -0.42513  -0.42308  -0.42145
 Alpha  occ. eigenvalues --   -0.41913  -0.41522  -0.41502  -0.41251  -0.40842
 Alpha  occ. eigenvalues --   -0.40576  -0.40399  -0.40085  -0.40052  -0.39418
 Alpha  occ. eigenvalues --   -0.39226  -0.38808  -0.38582  -0.38140  -0.38095
 Alpha  occ. eigenvalues --   -0.37964  -0.37244  -0.36615  -0.36289  -0.36098
 Alpha  occ. eigenvalues --   -0.35392  -0.34629  -0.33646  -0.32654  -0.32279
 Alpha  occ. eigenvalues --   -0.32011  -0.29766  -0.27621  -0.26360  -0.24867
 Alpha  occ. eigenvalues --   -0.21555
 Alpha virt. eigenvalues --   -0.03211   0.00872   0.03243   0.06223   0.07979
 Alpha virt. eigenvalues --    0.09520   0.11572   0.11846   0.11928   0.12591
 Alpha virt. eigenvalues --    0.12947   0.13250   0.13475   0.13846   0.13934

 Mulliken charges:
               1
     1  O   -0.543945
     2  O   -0.562967
     3  C   -0.061824
     4  C   -0.015994
     5  C   -0.156303
     6  C   -0.183303
     7  C    0.160220
     8  C    0.138522
     9  C    0.127325
    10  C    0.018753
    11  C   -0.217957
    12  C   -0.228219
    13  C    0.063126
    14  C    0.064427
    15  C   -0.270146
    16  C   -0.295927
    17  C   -0.292615
    18  C   -0.316783
    19  C   -0.124713
    20  C   -0.119046
    21  C   -0.369049
    22  C   -0.355846
    23  C   -0.147129
    24  C   -0.036129
    25  C    0.118115
    26  C    0.149282
    27  C   -0.363093
    28  C   -0.373262
    29  C   -0.134090
    30  C   -0.095156
    31  C   -0.079159
    32  C   -0.100792
    33  C   -0.087976
    34  C   -0.107415
    35  C    0.100166
    36  C    0.123085
    37  C   -0.378108
    38  C   -0.362555
    39  C   -0.158685
    40  C   -0.144730
    41  C   -0.002042
    42  C   -0.091051
    43  H    0.102750
    44  H    0.076311
    45  H    0.064067
    46  H    0.117480
    47  H    0.063402
    48  H    0.082078
    49  H    0.128516
    50  H    0.110651
    51  H    0.096642
    52  H    0.112916
    53  H    0.110542
    54  H    0.119520
    55  H    0.054560
    56  H    0.095671
    57  H    0.093415
    58  H    0.083850
    59  H    0.111208
    60  H    0.095711
    61  H    0.099178
    62  H    0.108744
    63  H    0.099642
    64  H    0.107322
    65  H    0.066754
    66  H    0.066532
    67  H    0.128579
    68  H    0.110220
    69  H    0.078895
    70  H    0.121072
    71  H    0.103930
    72  H    0.114489
    73  H    0.299386
    74  H    0.301942
    75  H    0.070433
    76  H    0.053702
    77  H    0.114846
    78  H    0.114231
    79  H    0.118493
    80  H    0.082499
    81  H    0.112170
    82  H    0.082995
    83  H    0.095782
    84  H    0.072114
    85  H    0.061208
    86  H    0.089012
    87  H    0.044156
    88  H    0.079682
    89  H    0.127510
    90  H    0.111814
    91  H    0.144348
    92  H    0.107000
    93  H    0.111873
    94  H    0.113273
    95  H    0.090654
    96  H    0.083315
    97  H    0.041471
    98  H    0.064429
 Sum of Mulliken charges =  -0.00000

 Dipole moment (field-independent basis, Debye):
    X=              0.9972    Y=             -0.4972    Z=              2.0766  Tot=              2.3567
 Quadrupole moment (field-independent basis, Debye-Ang):
   XX=           -286.3363   YY=           -242.9126   ZZ=           -261.1881
   XY=              7.3256   XZ=             -2.2464   YZ=              0.6964

 Normal termination of Gaussian 16 at Tue Jul  2 17:21:24 2019.
