 Gaussian 16, Revision A.03,
 Gaussian 16:  ES64L-G16RevA.03 25-Dec-2016

 -------------------------------------
 # td=(NStates=1) CAM-B3LYP/6-31G(d,p)
 -------------------------------------

 --
 TD
 --
 Symbolic Z-matrix:
 Charge =  0 Multiplicity = 1

                         Standard orientation:
 ---------------------------------------------------------------------
 Center     Atomic      Atomic             Coordinates (Angstroms)
 Number     Number       Type             X           Y           Z
 ---------------------------------------------------------------------
      1          8           0       14.643212   -2.308968   -0.021951
      2          8           0      -14.699573    2.022011    1.025773
      3          6           0       11.326309   -1.156897    1.328915
      4          6           0      -12.311058   -0.979241    0.788889
      5          6           0       12.787380   -1.538939    1.227838
      6          6           0      -13.710793   -0.172606    0.813260
      7          6           0       13.238870   -2.053965   -0.118271
      8          6           0      -13.462235    1.416191    0.923158
      9          6           0       10.953713   -0.381748    0.072147
     10          6           0      -11.314002   -0.275149   -0.109781
     11          6           0       12.971980   -1.154023   -1.331226
     12          6           0      -12.744542    1.829457   -0.357067
     13          6           0       11.675929   -0.336072   -0.964122
     14          6           0      -11.485309    0.935198   -0.683707
     15          6           0       11.178042   -0.363074    2.607028
     16          6           0       10.449440   -2.375749    1.339652
     17          6           0      -11.837767   -0.982103    2.288087
     18          6           0      -12.519569   -2.302543    0.443971
     19          6           0        9.601293    0.479656    0.145264
     20          6           0      -10.071537   -0.995480   -0.388516
     21          6           0       11.188789    0.571719   -2.169574
     22          6           0      -10.501203    1.558307   -1.598114
     23          6           0        9.318684    1.806245    0.020609
     24          6           0       -8.802733   -0.600736   -0.218478
     25          6           0        8.149805    2.369408    0.052518
     26          6           0       -7.571157   -1.309076   -0.522882
     27          6           0        8.161807    4.036277    0.475202
     28          6           0       -7.772267   -2.771526   -1.042147
     29          6           0        6.983940    1.754833   -0.198991
     30          6           0       -6.387011   -0.630326   -0.351010
     31          6           0        5.606397    2.121631    0.113509
     32          6           0       -5.116424   -1.231872   -0.762835
     33          6           0        4.515234    1.349290   -0.185323
     34          6           0       -4.027157   -0.502135   -0.459572
     35          6           0        3.069111    1.680436   -0.125503
     36          6           0       -2.629980   -0.926569   -0.602497
     37          6           0        2.763537    3.130067    0.259809
     38          6           0       -2.322597   -2.338335   -1.170589
     39          6           0        2.217589    0.730376   -0.432949
     40          6           0       -1.584535    0.011108   -0.504855
     41          6           0        0.771787    0.925450   -0.267722
     42          6           0       -0.148333   -0.096513   -0.541092
     43          1           0       13.573294   -0.668888    1.383307
     44          1           0       13.146708   -2.445964    1.813383
     45          1           0      -14.013639   -0.472530    1.689054
     46          1           0      -14.307515   -0.382181   -0.101636
     47          1           0       12.840953   -2.996384   -0.447577
     48          1           0      -12.742020    1.573727    1.851482
     49          1           0       13.685071   -0.168585   -1.355975
     50          1           0       12.780430   -1.394796   -2.413565
     51          1           0      -13.607143    1.710998   -1.196720
     52          1           0      -12.412358    2.889428   -0.235904
     53          1           0       11.521811   -0.749227    3.580552
     54          1           0       10.170354    0.070398    2.764042
     55          1           0       11.563512    0.573982    2.502641
     56          1           0       10.539477   -3.066434    0.485093
     57          1           0       10.739946   -2.887299    2.339245
     58          1           0        9.480389   -2.060946    1.408060
     59          1           0      -11.987910    0.002069    2.995232
     60          1           0      -10.723586   -1.464735    2.267509
     61          1           0      -12.478529   -1.974198    2.943976
     62          1           0      -13.090409   -2.827180    1.268419
     63          1           0      -11.638449   -2.942546    0.476171
     64          1           0      -12.985683   -2.407314   -0.701324
     65          1           0        8.795548   -0.311757    0.418764
     66          1           0      -10.040203   -2.164485   -0.858876
     67          1           0       10.251944    0.818961   -2.091935
     68          1           0       11.892095    1.524287   -2.241601
     69          1           0       11.289288   -0.054420   -3.118396
     70          1           0      -11.127560    1.862449   -2.397239
     71          1           0       -9.779495    0.839137   -2.017318
     72          1           0       -9.914001    2.312568   -1.010795
     73          1           0       14.707675   -2.954360    0.598333
     74          1           0      -15.004574    1.834589    1.967518
     75          1           0       10.302110    2.359977    0.004735
     76          1           0       -8.728871    0.420857    0.224637
     77          1           0        8.759956    4.410607   -0.147381
     78          1           0        7.026223    4.568102    0.123682
     79          1           0        7.951790    4.224625    1.580272
     80          1           0       -8.223972   -3.312131   -0.087051
     81          1           0       -8.452446   -2.793497   -1.897234
     82          1           0       -6.804169   -3.284266   -1.343618
     83          1           0        7.058117    0.763250   -0.420158
     84          1           0       -6.292821    0.331565    0.028006
     85          1           0        5.421634    3.180921    0.552206
     86          1           0       -5.011508   -2.176145   -1.105463
     87          1           0        4.711730    0.297763   -0.545710
     88          1           0       -4.171571    0.637635   -0.067161
     89          1           0        3.187386    3.325803    1.290187
     90          1           0        1.708230    3.297910    0.310082
     91          1           0        3.440665    3.756179   -0.376611
     92          1           0       -2.887092   -3.150955   -0.479840
     93          1           0       -2.841182   -2.536440   -2.035195
     94          1           0       -1.162385   -2.393801   -1.132768
     95          1           0        2.307200   -0.333808   -0.802677
     96          1           0       -1.969733    0.950119   -0.238176
     97          1           0        0.255925    1.843446    0.048406
     98          1           0        0.083687   -1.096264   -0.835870
 ---------------------------------------------------------------------

 SCF Done:  E(RCAM-B3LYP) =  -1706.89641374     A.U. after   14 cycles

 Excitation energies and oscillator strengths:

 Excited State   1:      Singlet-A      2.7408 eV  452.36 nm  f=3.5696  <S**2>=0.000
     155 ->158        -0.18849
     156 ->157         0.67409
 This state for optimization and/or second-order correction.
 Total Energy, E(TD-HF/TD-DFT) =  -1706.79569098
 Copying the excited state density for this state as the 1-particle RhoCI density.

 The electronic state is 1-A.
 Alpha  occ. eigenvalues --  -19.22173 -19.20000 -10.31258 -10.30518 -10.29088
 Alpha  occ. eigenvalues --  -10.28149 -10.27829 -10.27750 -10.27702 -10.27617
 Alpha  occ. eigenvalues --  -10.27500 -10.27390 -10.27328 -10.27312 -10.27296
 Alpha  occ. eigenvalues --  -10.27230 -10.27030 -10.26998 -10.26938 -10.26918
 Alpha  occ. eigenvalues --  -10.26878 -10.26808 -10.26741 -10.26718 -10.26525
 Alpha  occ. eigenvalues --  -10.26429 -10.26421 -10.26166 -10.26064 -10.25903
 Alpha  occ. eigenvalues --  -10.25832 -10.25687 -10.25648 -10.25550 -10.25429
 Alpha  occ. eigenvalues --  -10.25118 -10.24896 -10.24700 -10.24510 -10.24376
 Alpha  occ. eigenvalues --  -10.23724 -10.23719  -1.10825  -1.10516  -0.94274
 Alpha  occ. eigenvalues --   -0.93634  -0.92213  -0.91579  -0.91141  -0.89507
 Alpha  occ. eigenvalues --   -0.87740  -0.87156  -0.86669  -0.85115  -0.83920
 Alpha  occ. eigenvalues --   -0.83031  -0.81963  -0.79549  -0.78917  -0.78163
 Alpha  occ. eigenvalues --   -0.77532  -0.76346  -0.76173  -0.76108  -0.75695
 Alpha  occ. eigenvalues --   -0.75430  -0.75240  -0.74407  -0.72719  -0.70930
 Alpha  occ. eigenvalues --   -0.69269  -0.66975  -0.66248  -0.64677  -0.64284
 Alpha  occ. eigenvalues --   -0.63099  -0.63070  -0.62675  -0.61001  -0.59432
 Alpha  occ. eigenvalues --   -0.59264  -0.58578  -0.58287  -0.57637  -0.56750
 Alpha  occ. eigenvalues --   -0.55998  -0.55163  -0.54726  -0.54426  -0.53609
 Alpha  occ. eigenvalues --   -0.52849  -0.52575  -0.52176  -0.51917  -0.51146
 Alpha  occ. eigenvalues --   -0.50757  -0.50516  -0.50259  -0.49989  -0.49599
 Alpha  occ. eigenvalues --   -0.49314  -0.48988  -0.48699  -0.48313  -0.47865
 Alpha  occ. eigenvalues --   -0.47555  -0.47243  -0.46934  -0.46183  -0.46114
 Alpha  occ. eigenvalues --   -0.45995  -0.45529  -0.45151  -0.44940  -0.44829
 Alpha  occ. eigenvalues --   -0.44628  -0.44331  -0.44305  -0.43751  -0.43537
 Alpha  occ. eigenvalues --   -0.43030  -0.42633  -0.42150  -0.42102  -0.41879
 Alpha  occ. eigenvalues --   -0.41538  -0.41387  -0.41073  -0.40755  -0.40432
 Alpha  occ. eigenvalues --   -0.40124  -0.40009  -0.39692  -0.39617  -0.39006
 Alpha  occ. eigenvalues --   -0.38965  -0.38785  -0.38337  -0.38144  -0.38054
 Alpha  occ. eigenvalues --   -0.37469  -0.36807  -0.36610  -0.36444  -0.35828
 Alpha  occ. eigenvalues --   -0.34991  -0.34373  -0.33793  -0.32427  -0.32132
 Alpha  occ. eigenvalues --   -0.30851  -0.30033  -0.29078  -0.26800  -0.24030
 Alpha  occ. eigenvalues --   -0.21091
 Alpha virt. eigenvalues --   -0.04491  -0.00849   0.02803   0.06496   0.08106
 Alpha virt. eigenvalues --    0.09997   0.10623   0.11499   0.11984   0.12043
 Alpha virt. eigenvalues --    0.12129   0.12463   0.12760   0.13419   0.13755

 Mulliken charges:
               1
     1  O   -0.544939
     2  O   -0.539994
     3  C   -0.004355
     4  C    0.006861
     5  C   -0.173797
     6  C   -0.161973
     7  C    0.142341
     8  C    0.155573
     9  C    0.034103
    10  C    0.088937
    11  C   -0.192906
    12  C   -0.211264
    13  C    0.013018
    14  C    0.031210
    15  C   -0.319204
    16  C   -0.286363
    17  C   -0.287423
    18  C   -0.286804
    19  C   -0.147193
    20  C   -0.167185
    21  C   -0.334469
    22  C   -0.354057
    23  C   -0.091024
    24  C   -0.073610
    25  C    0.090788
    26  C    0.089216
    27  C   -0.339338
    28  C   -0.369939
    29  C   -0.114793
    30  C   -0.113202
    31  C   -0.092438
    32  C   -0.058354
    33  C   -0.111966
    34  C   -0.112408
    35  C    0.116747
    36  C    0.083228
    37  C   -0.366072
    38  C   -0.358099
    39  C   -0.120261
    40  C   -0.125524
    41  C   -0.094971
    42  C   -0.083317
    43  H    0.107514
    44  H    0.069369
    45  H    0.084124
    46  H    0.098026
    47  H    0.088865
    48  H    0.056450
    49  H    0.102366
    50  H    0.117549
    51  H    0.101043
    52  H    0.105460
    53  H    0.106198
    54  H    0.095955
    55  H    0.116064
    56  H    0.102813
    57  H    0.082716
    58  H    0.113360
    59  H    0.094140
    60  H    0.100357
    61  H    0.041565
    62  H    0.091977
    63  H    0.103657
    64  H    0.074745
    65  H    0.081376
    66  H    0.058330
    67  H    0.132716
    68  H    0.093641
    69  H    0.083537
    70  H    0.116009
    71  H    0.124566
    72  H    0.114487
    73  H    0.291055
    74  H    0.314505
    75  H    0.093010
    76  H    0.072368
    77  H    0.132777
    78  H    0.054141
    79  H    0.135439
    80  H    0.119585
    81  H    0.135283
    82  H    0.103358
    83  H    0.071544
    84  H    0.086551
    85  H    0.069804
    86  H    0.075355
    87  H    0.077907
    88  H    0.072006
    89  H    0.120631
    90  H    0.115289
    91  H    0.131451
    92  H    0.090377
    93  H    0.139622
    94  H    0.104181
    95  H    0.101786
    96  H    0.064663
    97  H    0.087752
    98  H    0.065808
 Sum of Mulliken charges =  -0.00000

 Dipole moment (field-independent basis, Debye):
    X=             -0.2072    Y=             -0.9772    Z=              1.8169  Tot=              2.0734
 Quadrupole moment (field-independent basis, Debye-Ang):
   XX=           -300.7782   YY=           -247.2237   ZZ=           -258.1948
   XY=              3.7949   XZ=             -1.8905   YZ=              5.9742

 Normal termination of Gaussian 16 at Tue Jul  9 20:46:22 2019.
