 Gaussian 16, Revision A.03,
 Gaussian 16:  ES64L-G16RevA.03 25-Dec-2016

 -------------------------------------
 # td=(NStates=1) CAM-B3LYP/6-31G(d,p)
 -------------------------------------

 --
 TD
 --
 Symbolic Z-matrix:
 Charge =  0 Multiplicity = 1

                         Standard orientation:
 ---------------------------------------------------------------------
 Center     Atomic      Atomic             Coordinates (Angstroms)
 Number     Number       Type             X           Y           Z
 ---------------------------------------------------------------------
      1          8           0       14.656628   -2.291247   -0.370703
      2          8           0      -14.607304    2.166527    0.653929
      3          6           0       11.490450   -0.926643    1.257221
      4          6           0      -12.304017   -0.806421    0.786290
      5          6           0       12.997546   -1.319247    1.126330
      6          6           0      -13.630273   -0.011555    0.935686
      7          6           0       13.359997   -1.899577   -0.265799
      8          6           0      -13.335621    1.412331    0.770563
      9          6           0       10.982105   -0.229666    0.003622
     10          6           0      -11.327605   -0.223289   -0.197268
     11          6           0       13.018954   -0.851757   -1.270579
     12          6           0      -12.690880    1.752007   -0.541895
     13          6           0       11.750351   -0.172569   -1.123511
     14          6           0      -11.525690    0.820402   -0.940135
     15          6           0       11.400371   -0.030460    2.443725
     16          6           0       10.752023   -2.246639    1.552275
     17          6           0      -11.585956   -0.871306    2.185189
     18          6           0      -12.742223   -2.222130    0.531084
     19          6           0        9.627984    0.383834    0.042424
     20          6           0      -10.186511   -1.064231   -0.429550
     21          6           0       11.232228    0.325350   -2.468694
     22          6           0      -10.723634    1.324890   -2.065245
     23          6           0        9.295147    1.677683   -0.173946
     24          6           0       -8.875373   -0.644752   -0.327252
     25          6           0        7.971788    2.169172   -0.028275
     26          6           0       -7.725931   -1.372621   -0.465450
     27          6           0        7.970099    3.595927    0.503920
     28          6           0       -7.718050   -2.898892   -0.809588
     29          6           0        6.868764    1.497518   -0.214744
     30          6           0       -6.467810   -0.604620   -0.332503
     31          6           0        5.564193    1.981691    0.076071
     32          6           0       -5.156704   -1.239482   -0.351319
     33          6           0        4.469445    1.292314   -0.167946
     34          6           0       -4.009939   -0.573186   -0.303686
     35          6           0        3.069791    1.673907    0.148654
     36          6           0       -2.664214   -0.890955   -0.383913
     37          6           0        2.792802    3.003386    0.651135
     38          6           0       -2.338407   -2.381510   -0.773109
     39          6           0        2.063504    0.763756   -0.173848
     40          6           0       -1.739362    0.049664   -0.167118
     41          6           0        0.594645    0.803825   -0.020963
     42          6           0       -0.308722   -0.104760   -0.228848
     43          1           0       13.710664   -0.340915    1.167475
     44          1           0       13.258737   -1.791396    1.922439
     45          1           0      -13.959225   -0.118876    1.889012
     46          1           0      -14.516199   -0.288243    0.176736
     47          1           0       12.685626   -2.859641   -0.485348
     48          1           0      -12.675393    1.999576    1.460076
     49          1           0       13.790907   -0.108750   -1.234804
     50          1           0       13.151451   -1.298605   -2.331973
     51          1           0      -13.511413    1.748247   -1.422153
     52          1           0      -12.331232    2.842039   -0.338991
     53          1           0       12.028885   -0.465108    3.277359
     54          1           0       10.338462    0.000669    2.625357
     55          1           0       11.688111    0.891619    2.246039
     56          1           0       10.657646   -2.959921    0.732807
     57          1           0       10.985549   -2.789135    2.495677
     58          1           0        9.654655   -1.861605    1.607856
     59          1           0      -10.927395    0.227346    2.290159
     60          1           0      -10.702137   -1.575419    2.069816
     61          1           0      -12.334344   -1.120754    2.905506
     62          1           0      -13.309202   -2.474354    1.492172
     63          1           0      -11.958820   -2.955193    0.590152
     64          1           0      -13.329301   -2.475649   -0.318546
     65          1           0        8.852165   -0.294227    0.488587
     66          1           0      -10.349004   -2.165660   -0.258250
     67          1           0       10.241726    0.695775   -2.343872
     68          1           0       11.826455    1.155207   -2.726335
     69          1           0       11.330571   -0.323981   -3.263171
     70          1           0      -11.373748    1.557627   -3.017888
     71          1           0       -9.992104    0.638662   -2.455567
     72          1           0      -10.050547    2.216011   -1.681816
     73          1           0       14.834647   -3.158714    0.122966
     74          1           0      -15.160770    1.784427    1.409250
     75          1           0       10.083334    2.328815   -0.372270
     76          1           0       -8.667794    0.372662   -0.099835
     77          1           0        8.512287    4.269934   -0.532490
     78          1           0        7.022651    4.069979    0.984200
     79          1           0        8.700755    3.731867    1.238763
     80          1           0       -8.175803   -3.439999    0.038311
     81          1           0       -8.536622   -2.981516   -1.631388
     82          1           0       -6.777744   -3.299728   -1.008447
     83          1           0        6.979273    0.625316   -0.792487
     84          1           0       -6.643413    0.431119   -0.247912
     85          1           0        5.398380    3.007101    0.517382
     86          1           0       -5.150511   -2.283200   -0.579631
     87          1           0        4.517965    0.353960   -0.672474
     88          1           0       -4.114794    0.543642    0.035703
     89          1           0        3.342599    3.098845    1.462345
     90          1           0        1.689001    3.001049    0.912274
     91          1           0        3.116032    3.688212   -0.042434
     92          1           0       -2.565831   -3.065239    0.154099
     93          1           0       -2.715283   -2.657937   -1.670969
     94          1           0       -1.345548   -2.304243   -1.173638
     95          1           0        2.618638   -0.154352   -0.592433
     96          1           0       -1.768006    1.063047    0.139556
     97          1           0        0.036114    1.839844    0.179392
     98          1           0        0.202703   -1.220835   -0.336187
 ---------------------------------------------------------------------

 SCF Done:  E(RCAM-B3LYP) =  -1707.00759626     A.U. after   14 cycles

 Excitation energies and oscillator strengths:

 Excited State   1:      Singlet-A      2.7229 eV  455.35 nm  f=3.6624  <S**2>=0.000
     155 ->158        -0.17897
     156 ->157         0.67882
 This state for optimization and/or second-order correction.
 Total Energy, E(TD-HF/TD-DFT) =  -1706.90753311
 Copying the excited state density for this state as the 1-particle RhoCI density.

 The electronic state is 1-A.
 Alpha  occ. eigenvalues --  -19.21697 -19.20399 -10.30817 -10.29423 -10.27867
 Alpha  occ. eigenvalues --  -10.27670 -10.27459 -10.27392 -10.27265 -10.27252
 Alpha  occ. eigenvalues --  -10.27063 -10.26955 -10.26897 -10.26771 -10.26745
 Alpha  occ. eigenvalues --  -10.26553 -10.26518 -10.26462 -10.26205 -10.26204
 Alpha  occ. eigenvalues --  -10.26009 -10.25992 -10.25984 -10.25713 -10.25655
 Alpha  occ. eigenvalues --  -10.25627 -10.25581 -10.25532 -10.25488 -10.25454
 Alpha  occ. eigenvalues --  -10.25382 -10.25353 -10.25338 -10.25249 -10.24771
 Alpha  occ. eigenvalues --  -10.24649 -10.24555 -10.24551 -10.24025 -10.23546
 Alpha  occ. eigenvalues --  -10.23238 -10.23025  -1.10710  -1.06655  -0.94495
 Alpha  occ. eigenvalues --   -0.94040  -0.92633  -0.92239  -0.90869  -0.90221
 Alpha  occ. eigenvalues --   -0.88051  -0.87968  -0.87320  -0.85860  -0.84824
 Alpha  occ. eigenvalues --   -0.83410  -0.82820  -0.80267  -0.79600  -0.78758
 Alpha  occ. eigenvalues --   -0.77055  -0.76940  -0.76592  -0.76424  -0.76161
 Alpha  occ. eigenvalues --   -0.75906  -0.75446  -0.75165  -0.74432  -0.71027
 Alpha  occ. eigenvalues --   -0.69381  -0.67535  -0.65850  -0.64815  -0.64242
 Alpha  occ. eigenvalues --   -0.63718  -0.63032  -0.60749  -0.60346  -0.59952
 Alpha  occ. eigenvalues --   -0.59510  -0.58796  -0.58167  -0.56769  -0.56292
 Alpha  occ. eigenvalues --   -0.56101  -0.55706  -0.55341  -0.55164  -0.53895
 Alpha  occ. eigenvalues --   -0.53505  -0.53014  -0.52631  -0.51931  -0.51663
 Alpha  occ. eigenvalues --   -0.50987  -0.50497  -0.50193  -0.49936  -0.49533
 Alpha  occ. eigenvalues --   -0.49333  -0.49000  -0.48665  -0.48448  -0.47902
 Alpha  occ. eigenvalues --   -0.47664  -0.47456  -0.47222  -0.47031  -0.46917
 Alpha  occ. eigenvalues --   -0.46207  -0.46007  -0.45743  -0.45407  -0.45159
 Alpha  occ. eigenvalues --   -0.44898  -0.44405  -0.44100  -0.43875  -0.43601
 Alpha  occ. eigenvalues --   -0.43428  -0.43016  -0.42723  -0.42135  -0.41720
 Alpha  occ. eigenvalues --   -0.41666  -0.41544  -0.41365  -0.41221  -0.40356
 Alpha  occ. eigenvalues --   -0.40266  -0.40065  -0.39763  -0.39375  -0.39373
 Alpha  occ. eigenvalues --   -0.39080  -0.38705  -0.38450  -0.38251  -0.37898
 Alpha  occ. eigenvalues --   -0.37733  -0.37023  -0.36499  -0.36411  -0.35900
 Alpha  occ. eigenvalues --   -0.35665  -0.35208  -0.34206  -0.32452  -0.31875
 Alpha  occ. eigenvalues --   -0.30990  -0.30100  -0.28543  -0.26847  -0.23716
 Alpha  occ. eigenvalues --   -0.20687
 Alpha virt. eigenvalues --   -0.04386  -0.00728   0.02782   0.06205   0.08575
 Alpha virt. eigenvalues --    0.09601   0.10606   0.11077   0.11793   0.11943
 Alpha virt. eigenvalues --    0.12307   0.12747   0.13019   0.13524   0.13747

 Mulliken charges:
               1
     1  O   -0.554518
     2  O   -0.571011
     3  C   -0.032997
     4  C   -0.056243
     5  C   -0.164935
     6  C   -0.182100
     7  C    0.192166
     8  C    0.148958
     9  C    0.048665
    10  C    0.117037
    11  C   -0.229943
    12  C   -0.205046
    13  C    0.059657
    14  C    0.058420
    15  C   -0.272842
    16  C   -0.302166
    17  C   -0.286424
    18  C   -0.288413
    19  C   -0.139816
    20  C   -0.187712
    21  C   -0.360321
    22  C   -0.356683
    23  C   -0.095446
    24  C   -0.080934
    25  C    0.112504
    26  C    0.103380
    27  C   -0.347832
    28  C   -0.365685
    29  C   -0.116895
    30  C   -0.130409
    31  C   -0.085187
    32  C   -0.095521
    33  C   -0.102743
    34  C   -0.086812
    35  C    0.098929
    36  C    0.087420
    37  C   -0.360952
    38  C   -0.358617
    39  C   -0.143145
    40  C   -0.112174
    41  C   -0.108182
    42  C   -0.059505
    43  H    0.061193
    44  H    0.077552
    45  H    0.092760
    46  H    0.102399
    47  H    0.041018
    48  H    0.093492
    49  H    0.125213
    50  H    0.097809
    51  H    0.095913
    52  H    0.095566
    53  H    0.087693
    54  H    0.095818
    55  H    0.113790
    56  H    0.111051
    57  H    0.104422
    58  H    0.079556
    59  H    0.073333
    60  H    0.112239
    61  H    0.107179
    62  H    0.083897
    63  H    0.097439
    64  H    0.113501
    65  H    0.091742
    66  H    0.075475
    67  H    0.114492
    68  H    0.114649
    69  H    0.120209
    70  H    0.100616
    71  H    0.122090
    72  H    0.101097
    73  H    0.316609
    74  H    0.293753
    75  H    0.089337
    76  H    0.079588
    77  H    0.065321
    78  H    0.107858
    79  H    0.130838
    80  H    0.119313
    81  H    0.116449
    82  H    0.119183
    83  H    0.084449
    84  H    0.084670
    85  H    0.075477
    86  H    0.077170
    87  H    0.073907
    88  H    0.062059
    89  H    0.128493
    90  H    0.104898
    91  H    0.132602
    92  H    0.121434
    93  H    0.129325
    94  H    0.113163
    95  H    0.071579
    96  H    0.083737
    97  H    0.064327
    98  H    0.065332
 Sum of Mulliken charges =  -0.00000

 Dipole moment (field-independent basis, Debye):
    X=              1.7458    Y=             -2.4680    Z=              1.8172  Tot=              3.5272
 Quadrupole moment (field-independent basis, Debye-Ang):
   XX=           -265.6256   YY=           -246.7314   ZZ=           -259.5841
   XY=             16.0031   XZ=             -6.6245   YZ=              1.9384

 Normal termination of Gaussian 16 at Mon Jul  1 08:38:19 2019.
