 Gaussian 16, Revision A.03,
 Gaussian 16:  ES64L-G16RevA.03 25-Dec-2016

 -------------------------------------
 # td=(NStates=1) CAM-B3LYP/6-31G(d,p)
 -------------------------------------

 --
 TD
 --
 Symbolic Z-matrix:
 Charge =  0 Multiplicity = 1

                         Standard orientation:
 ---------------------------------------------------------------------
 Center     Atomic      Atomic             Coordinates (Angstroms)
 Number     Number       Type             X           Y           Z
 ---------------------------------------------------------------------
      1          8           0       14.713859   -2.206287   -0.439287
      2          8           0      -14.769279    2.031524    0.786824
      3          6           0       11.484111   -1.030972    1.225773
      4          6           0      -12.221487   -0.881782    0.753492
      5          6           0       12.904242   -1.315017    1.046915
      6          6           0      -13.644556   -0.084317    0.819165
      7          6           0       13.288618   -1.890011   -0.335229
      8          6           0      -13.492046    1.381006    0.840768
      9          6           0       10.901080   -0.309671    0.002367
     10          6           0      -11.287739   -0.255828   -0.208214
     11          6           0       12.884251   -0.857098   -1.348932
     12          6           0      -12.773324    1.780146   -0.451366
     13          6           0       11.515486   -0.264161   -1.173245
     14          6           0      -11.514808    0.960106   -0.735788
     15          6           0       11.281059   -0.365290    2.578521
     16          6           0       10.714092   -2.354246    1.350843
     17          6           0      -11.662654   -0.964217    2.198214
     18          6           0      -12.598674   -2.412693    0.469022
     19          6           0        9.583108    0.322581    0.266694
     20          6           0      -10.070071   -1.054075   -0.498317
     21          6           0       10.921371    0.430113   -2.418611
     22          6           0      -10.597333    1.516645   -1.755332
     23          6           0        9.376122    1.628447   -0.002667
     24          6           0       -8.821811   -0.593077   -0.293775
     25          6           0        8.061684    2.242368    0.062637
     26          6           0       -7.538325   -1.318569   -0.542541
     27          6           0        8.164181    3.761462    0.444985
     28          6           0       -7.602887   -2.777363   -0.955714
     29          6           0        6.891135    1.589786    0.098762
     30          6           0       -6.375819   -0.699910   -0.450009
     31          6           0        5.548353    2.092790    0.187142
     32          6           0       -5.051740   -1.229955   -0.442866
     33          6           0        4.477530    1.250630    0.006380
     34          6           0       -4.018189   -0.407491   -0.240736
     35          6           0        3.094317    1.635125   -0.030146
     36          6           0       -2.663376   -0.866648   -0.535995
     37          6           0        2.829363    3.069317    0.319698
     38          6           0       -2.317663   -2.236818   -0.823810
     39          6           0        2.119794    0.776847   -0.304341
     40          6           0       -1.671406    0.023207   -0.211688
     41          6           0        0.617593    0.946527   -0.152405
     42          6           0       -0.248130   -0.168539   -0.343076
     43          1           0       13.422114   -0.369494    1.324374
     44          1           0       13.180609   -1.957349    1.857817
     45          1           0      -14.307972   -0.239508    1.691726
     46          1           0      -14.179623   -0.390525   -0.049735
     47          1           0       12.723153   -2.945783   -0.459435
     48          1           0      -12.878100    1.705185    1.801862
     49          1           0       13.650843   -0.161851   -1.156629
     50          1           0       13.204189   -1.163287   -2.480716
     51          1           0      -13.404808    1.683887   -1.237345
     52          1           0      -12.497358    2.849129   -0.618755
     53          1           0       11.677119   -0.866663    3.585275
     54          1           0       10.294554   -0.349778    3.079064
     55          1           0       11.876868    0.677345    2.658195
     56          1           0       10.621127   -2.917221    0.397925
     57          1           0       10.946724   -2.934854    2.371350
     58          1           0        9.628546   -2.035457    1.734196
     59          1           0      -11.709613    0.023827    2.664775
     60          1           0      -10.743391   -1.773204    2.238434
     61          1           0      -12.340429   -1.516829    2.763920
     62          1           0      -13.573635   -2.661219    1.060639
     63          1           0      -11.736901   -3.021197    0.531840
     64          1           0      -12.913543   -2.642905   -0.544102
     65          1           0        8.617115   -0.369300    0.569084
     66          1           0      -10.225746   -2.187783   -0.837002
     67          1           0       10.038678    0.840469   -2.177440
     68          1           0       11.584962    1.263713   -2.443544
     69          1           0       11.132277   -0.009921   -3.354292
     70          1           0      -11.242948    1.837515   -2.685824
     71          1           0       -9.753481    0.917228   -2.060591
     72          1           0      -10.388831    2.477810   -1.181288
     73          1           0       14.957365   -2.560711    0.511621
     74          1           0      -15.117386    1.897368    1.715683
     75          1           0       10.229968    2.122650   -0.272512
     76          1           0       -8.712029    0.336503   -0.150882
     77          1           0        8.919713    4.084661   -0.256083
     78          1           0        7.009041    4.383486    0.486916
     79          1           0        8.466415    3.875492    1.470142
     80          1           0       -7.953684   -3.541010   -0.310400
     81          1           0       -8.341543   -2.860947   -1.877317
     82          1           0       -6.620291   -3.157287   -1.197977
     83          1           0        6.880548    0.398704   -0.103067
     84          1           0       -6.551566    0.384677    0.169755
     85          1           0        5.506201    3.221959    0.500517
     86          1           0       -4.924579   -2.245584   -0.743212
     87          1           0        4.791342    0.252345   -0.281278
     88          1           0       -4.191245    0.562290   -0.007000
     89          1           0        2.882350    3.264087    1.463024
     90          1           0        1.795949    3.407337    0.133044
     91          1           0        3.409126    3.765554   -0.342756
     92          1           0       -2.259645   -2.894779    0.219672
     93          1           0       -3.006640   -2.696739   -1.621174
     94          1           0       -1.233444   -2.344784   -0.887456
     95          1           0        2.445821   -0.292590   -0.694615
     96          1           0       -1.931295    1.036281    0.142148
     97          1           0        0.067473    1.947005   -0.045835
     98          1           0        0.310164   -1.125993   -0.344498
 ---------------------------------------------------------------------

 SCF Done:  E(RCAM-B3LYP) =  -1706.99113022     A.U. after   14 cycles

 Excitation energies and oscillator strengths:

 Excited State   1:      Singlet-A      2.8401 eV  436.56 nm  f=3.4537  <S**2>=0.000
     155 ->158         0.17316
     156 ->157         0.67861
 This state for optimization and/or second-order correction.
 Total Energy, E(TD-HF/TD-DFT) =  -1706.88676024
 Copying the excited state density for this state as the 1-particle RhoCI density.

 The electronic state is 1-A.
 Alpha  occ. eigenvalues --  -19.21873 -19.21868 -10.31757 -10.31147 -10.28336
 Alpha  occ. eigenvalues --  -10.27696 -10.27489 -10.27401 -10.27386 -10.27317
 Alpha  occ. eigenvalues --  -10.27286 -10.27247 -10.27142 -10.27133 -10.27031
 Alpha  occ. eigenvalues --  -10.26910 -10.26794 -10.26788 -10.26780 -10.26763
 Alpha  occ. eigenvalues --  -10.26480 -10.26420 -10.26358 -10.26292 -10.26208
 Alpha  occ. eigenvalues --  -10.26124 -10.26061 -10.26055 -10.25868 -10.25540
 Alpha  occ. eigenvalues --  -10.25512 -10.25466 -10.25400 -10.25222 -10.25033
 Alpha  occ. eigenvalues --  -10.24933 -10.24858 -10.24734 -10.24673 -10.24625
 Alpha  occ. eigenvalues --  -10.24482 -10.23752  -1.09192  -1.07158  -0.94775
 Alpha  occ. eigenvalues --   -0.93328  -0.92358  -0.91647  -0.90420  -0.90068
 Alpha  occ. eigenvalues --   -0.88001  -0.86884  -0.86507  -0.85693  -0.84738
 Alpha  occ. eigenvalues --   -0.83312  -0.82204  -0.80359  -0.80085  -0.77287
 Alpha  occ. eigenvalues --   -0.77116  -0.76475  -0.75941  -0.75756  -0.75731
 Alpha  occ. eigenvalues --   -0.75490  -0.75114  -0.74586  -0.73790  -0.70179
 Alpha  occ. eigenvalues --   -0.68475  -0.66829  -0.65537  -0.64983  -0.64398
 Alpha  occ. eigenvalues --   -0.63731  -0.62895  -0.62058  -0.60865  -0.60051
 Alpha  occ. eigenvalues --   -0.59274  -0.58688  -0.57709  -0.57143  -0.55948
 Alpha  occ. eigenvalues --   -0.55624  -0.54679  -0.54227  -0.53929  -0.53512
 Alpha  occ. eigenvalues --   -0.53219  -0.52530  -0.52083  -0.51535  -0.51377
 Alpha  occ. eigenvalues --   -0.50474  -0.50392  -0.49711  -0.49696  -0.49666
 Alpha  occ. eigenvalues --   -0.48898  -0.48763  -0.48679  -0.48539  -0.48029
 Alpha  occ. eigenvalues --   -0.47389  -0.47101  -0.46970  -0.46565  -0.46353
 Alpha  occ. eigenvalues --   -0.45822  -0.45581  -0.45433  -0.45025  -0.44749
 Alpha  occ. eigenvalues --   -0.44171  -0.43889  -0.43635  -0.43343  -0.43257
 Alpha  occ. eigenvalues --   -0.43141  -0.43060  -0.42211  -0.42187  -0.41785
 Alpha  occ. eigenvalues --   -0.41568  -0.41467  -0.41323  -0.41198  -0.40870
 Alpha  occ. eigenvalues --   -0.40737  -0.40431  -0.40003  -0.39618  -0.39357
 Alpha  occ. eigenvalues --   -0.39153  -0.39106  -0.38225  -0.37966  -0.37482
 Alpha  occ. eigenvalues --   -0.37286  -0.36902  -0.36586  -0.36311  -0.36079
 Alpha  occ. eigenvalues --   -0.35718  -0.34698  -0.33769  -0.32433  -0.32127
 Alpha  occ. eigenvalues --   -0.31880  -0.29535  -0.28487  -0.26676  -0.24294
 Alpha  occ. eigenvalues --   -0.21130
 Alpha virt. eigenvalues --   -0.04030  -0.00144   0.03147   0.06197   0.07882
 Alpha virt. eigenvalues --    0.08941   0.10784   0.10802   0.10971   0.11566
 Alpha virt. eigenvalues --    0.11913   0.12190   0.12267   0.12998   0.13170

 Mulliken charges:
               1
     1  O   -0.575460
     2  O   -0.554078
     3  C    0.019353
     4  C   -0.034528
     5  C   -0.203912
     6  C   -0.175826
     7  C    0.180100
     8  C    0.148447
     9  C    0.016509
    10  C    0.083021
    11  C   -0.229862
    12  C   -0.209847
    13  C    0.064735
    14  C    0.041254
    15  C   -0.316920
    16  C   -0.297155
    17  C   -0.284159
    18  C   -0.319559
    19  C   -0.097985
    20  C   -0.162923
    21  C   -0.351734
    22  C   -0.348708
    23  C   -0.096436
    24  C   -0.038979
    25  C    0.057912
    26  C    0.119029
    27  C   -0.340165
    28  C   -0.375749
    29  C   -0.114880
    30  C   -0.148529
    31  C   -0.059188
    32  C   -0.085695
    33  C   -0.127522
    34  C   -0.067759
    35  C    0.148545
    36  C    0.127226
    37  C   -0.374914
    38  C   -0.373608
    39  C   -0.161817
    40  C   -0.143440
    41  C   -0.103573
    42  C   -0.081193
    43  H    0.094547
    44  H    0.084395
    45  H    0.066876
    46  H    0.112421
    47  H    0.066801
    48  H    0.065261
    49  H    0.135026
    50  H    0.090060
    51  H    0.134432
    52  H    0.092199
    53  H    0.081832
    54  H    0.113202
    55  H    0.085441
    56  H    0.113802
    57  H    0.086817
    58  H    0.081573
    59  H    0.093510
    60  H    0.088219
    61  H    0.108157
    62  H    0.097954
    63  H    0.106545
    64  H    0.098192
    65  H    0.088566
    66  H    0.079272
    67  H    0.127988
    68  H    0.119350
    69  H    0.120598
    70  H    0.094045
    71  H    0.128530
    72  H    0.106611
    73  H    0.311842
    74  H    0.305860
    75  H    0.087074
    76  H    0.063882
    77  H    0.118957
    78  H    0.066401
    79  H    0.138835
    80  H    0.126766
    81  H    0.097738
    82  H    0.104278
    83  H    0.060740
    84  H    0.056088
    85  H    0.082353
    86  H    0.085865
    87  H    0.082394
    88  H    0.081397
    89  H    0.114932
    90  H    0.104626
    91  H    0.120052
    92  H    0.098937
    93  H    0.113573
    94  H    0.119501
    95  H    0.077683
    96  H    0.082688
    97  H    0.091562
    98  H    0.093721
 Sum of Mulliken charges =  -0.00000

 Dipole moment (field-independent basis, Debye):
    X=              0.1429    Y=             -0.5394    Z=              2.5406  Tot=              2.6012
 Quadrupole moment (field-independent basis, Debye-Ang):
   XX=           -274.2319   YY=           -250.7929   ZZ=           -258.0330
   XY=             18.1605   XZ=              4.1830   YZ=              0.7402

 Normal termination of Gaussian 16 at Tue Jul  2 08:27:15 2019.
