 Gaussian 16, Revision A.03,
 Gaussian 16:  ES64L-G16RevA.03 25-Dec-2016

 -------------------------------------
 # td=(NStates=1) CAM-B3LYP/6-31G(d,p)
 -------------------------------------

 --
 TD
 --
 Symbolic Z-matrix:
 Charge =  0 Multiplicity = 1

                         Standard orientation:
 ---------------------------------------------------------------------
 Center     Atomic      Atomic             Coordinates (Angstroms)
 Number     Number       Type             X           Y           Z
 ---------------------------------------------------------------------
      1          8           0       14.756159   -2.111979   -0.262075
      2          8           0      -14.844258    1.786204    0.821533
      3          6           0       11.368993   -1.238175    1.206703
      4          6           0      -12.295106   -0.894168    0.860051
      5          6           0       12.817215   -1.490580    1.062706
      6          6           0      -13.661241   -0.290573    0.943948
      7          6           0       13.344957   -2.071087   -0.253659
      8          6           0      -13.600482    1.151846    0.779135
      9          6           0       11.004927   -0.340363   -0.019946
     10          6           0      -11.392285   -0.362976   -0.205616
     11          6           0       12.946542   -0.996969   -1.315736
     12          6           0      -12.989589    1.547246   -0.563363
     13          6           0       11.667095   -0.315425   -1.203418
     14          6           0      -11.640296    0.805251   -0.820836
     15          6           0       11.194847   -0.362135    2.491894
     16          6           0       10.505089   -2.467032    1.200500
     17          6           0      -11.531045   -0.898567    2.353735
     18          6           0      -12.411500   -2.457594    0.606841
     19          6           0        9.704656    0.374367    0.164193
     20          6           0      -10.058526   -0.992376   -0.475487
     21          6           0       11.205823    0.447998   -2.401260
     22          6           0      -10.851295    1.426416   -1.973346
     23          6           0        9.298833    1.621508   -0.035982
     24          6           0       -8.840952   -0.433523   -0.262634
     25          6           0        8.017951    2.284875    0.127164
     26          6           0       -7.591914   -1.149684   -0.582878
     27          6           0        8.151956    3.785743    0.451508
     28          6           0       -7.580701   -2.590401   -1.089980
     29          6           0        6.847149    1.598023   -0.064507
     30          6           0       -6.416649   -0.484894   -0.508397
     31          6           0        5.504684    2.147332    0.272733
     32          6           0       -5.016511   -1.117337   -0.545981
     33          6           0        4.452300    1.351649    0.102916
     34          6           0       -4.036951   -0.339157   -0.267473
     35          6           0        3.095590    1.665460    0.127869
     36          6           0       -2.608227   -0.651525   -0.337453
     37          6           0        2.870864    3.138794    0.465899
     38          6           0       -2.369130   -2.033724   -1.000187
     39          6           0        2.163510    0.775713   -0.113366
     40          6           0       -1.569876    0.129206   -0.213744
     41          6           0        0.702716    1.016627    0.053858
     42          6           0       -0.181817    0.088584   -0.312925
     43          1           0       13.343218   -0.583582    1.205126
     44          1           0       12.907395   -2.173235    1.981370
     45          1           0      -14.178136   -0.822204    1.977405
     46          1           0      -14.204967   -0.581435    0.138922
     47          1           0       12.840541   -3.004749   -0.095305
     48          1           0      -12.850904    1.719769    1.512690
     49          1           0       13.815361   -0.144860   -1.110687
     50          1           0       13.114517   -1.381168   -2.277951
     51          1           0      -13.933898    1.541440   -1.140903
     52          1           0      -12.589249    2.716221   -0.653341
     53          1           0       11.533004   -0.810832    3.495905
     54          1           0       10.073956   -0.113084    2.728961
     55          1           0       11.573200    0.533315    2.395962
     56          1           0       10.647349   -2.922822    0.222136
     57          1           0       11.092516   -3.106235    1.948369
     58          1           0        9.369915   -2.184419    1.694047
     59          1           0      -11.524570    0.134094    2.555084
     60          1           0      -10.575196   -1.303537    2.200549
     61          1           0      -12.013541   -1.419351    2.940297
     62          1           0      -13.243213   -2.892306    1.186961
     63          1           0      -11.522893   -3.183038    0.839382
     64          1           0      -12.582023   -2.580200   -0.520342
     65          1           0        8.887063   -0.405756    0.544746
     66          1           0       -9.989523   -2.100430   -0.731114
     67          1           0       10.203806    0.842424   -2.434495
     68          1           0       12.063212    1.225748   -2.814024
     69          1           0       11.331910   -0.376797   -3.196933
     70          1           0      -11.487308    1.770584   -2.895825
     71          1           0       -9.783311    0.871057   -2.145776
     72          1           0      -10.580364    2.311011   -1.769574
     73          1           0       15.080314   -3.216075    0.052454
     74          1           0      -15.231475    1.491706    1.622146
     75          1           0       10.113602    2.278608   -0.296731
     76          1           0       -8.595448    0.572206    0.028334
     77          1           0        8.650323    4.217681   -0.495911
     78          1           0        7.179069    4.400232    0.877133
     79          1           0        8.842553    3.662615    1.404478
     80          1           0       -8.075884   -3.442632   -0.643733
     81          1           0       -8.173447   -2.906377   -2.016847
     82          1           0       -6.602201   -3.110977   -1.355594
     83          1           0        7.097980    0.644906   -0.576580
     84          1           0       -6.360933    0.460672   -0.189752
     85          1           0        5.493937    3.121926    0.679046
     86          1           0       -4.971025   -2.086198   -1.076140
     87          1           0        4.557414    0.444060   -0.249428
     88          1           0       -4.320042    0.694017    0.195251
     89          1           0        3.593017    3.482583    1.143798
     90          1           0        1.761379    3.418934    0.914535
     91          1           0        3.106975    3.868082   -0.241638
     92          1           0       -2.778267   -2.990207   -0.545236
     93          1           0       -2.866706   -2.280370   -1.857031
     94          1           0       -1.248458   -2.135942   -0.951342
     95          1           0        2.579749   -0.159362   -0.406496
     96          1           0       -1.927307    1.095453   -0.007180
     97          1           0        0.495727    2.120954    0.119397
     98          1           0        0.236470   -0.886143   -0.605122
 ---------------------------------------------------------------------

 SCF Done:  E(RCAM-B3LYP) =  -1706.86627826     A.U. after   14 cycles

 Excitation energies and oscillator strengths:

 Excited State   1:      Singlet-A      3.1617 eV  392.14 nm  f=3.5446  <S**2>=0.000
     155 ->158        -0.18402
     156 ->157         0.67015
 This state for optimization and/or second-order correction.
 Total Energy, E(TD-HF/TD-DFT) =  -1706.75008680
 Copying the excited state density for this state as the 1-particle RhoCI density.

 The electronic state is 1-A.
 Alpha  occ. eigenvalues --  -19.23635 -19.21344 -10.30809 -10.30681 -10.28485
 Alpha  occ. eigenvalues --  -10.27934 -10.27861 -10.27090 -10.27064 -10.27006
 Alpha  occ. eigenvalues --  -10.26985 -10.26976 -10.26936 -10.26909 -10.26721
 Alpha  occ. eigenvalues --  -10.26611 -10.26528 -10.26524 -10.26442 -10.26394
 Alpha  occ. eigenvalues --  -10.26350 -10.26295 -10.26208 -10.26181 -10.26162
 Alpha  occ. eigenvalues --  -10.26160 -10.26107 -10.25932 -10.25857 -10.25684
 Alpha  occ. eigenvalues --  -10.25682 -10.25488 -10.25363 -10.25254 -10.25108
 Alpha  occ. eigenvalues --  -10.24898 -10.24664 -10.24508 -10.24417 -10.23831
 Alpha  occ. eigenvalues --  -10.23779 -10.22189  -1.11503  -1.07727  -0.94116
 Alpha  occ. eigenvalues --   -0.93809  -0.92882  -0.92064  -0.90507  -0.89943
 Alpha  occ. eigenvalues --   -0.87962  -0.87764  -0.86281  -0.85346  -0.84526
 Alpha  occ. eigenvalues --   -0.83444  -0.81954  -0.80150  -0.79582  -0.78283
 Alpha  occ. eigenvalues --   -0.77342  -0.76733  -0.76706  -0.76526  -0.76183
 Alpha  occ. eigenvalues --   -0.75423  -0.75087  -0.74804  -0.74626  -0.70737
 Alpha  occ. eigenvalues --   -0.68733  -0.67713  -0.65911  -0.64838  -0.64585
 Alpha  occ. eigenvalues --   -0.63745  -0.62233  -0.62018  -0.61796  -0.60936
 Alpha  occ. eigenvalues --   -0.59507  -0.59485  -0.59316  -0.57557  -0.56792
 Alpha  occ. eigenvalues --   -0.56394  -0.55218  -0.54846  -0.54240  -0.53794
 Alpha  occ. eigenvalues --   -0.53299  -0.52945  -0.52319  -0.51659  -0.50827
 Alpha  occ. eigenvalues --   -0.50790  -0.49916  -0.49396  -0.49325  -0.48818
 Alpha  occ. eigenvalues --   -0.48689  -0.48350  -0.48010  -0.47915  -0.47561
 Alpha  occ. eigenvalues --   -0.47267  -0.47034  -0.46417  -0.46030  -0.45659
 Alpha  occ. eigenvalues --   -0.45609  -0.45366  -0.45320  -0.44939  -0.44879
 Alpha  occ. eigenvalues --   -0.44358  -0.44260  -0.43976  -0.43858  -0.43547
 Alpha  occ. eigenvalues --   -0.43454  -0.43247  -0.42741  -0.42687  -0.42423
 Alpha  occ. eigenvalues --   -0.41605  -0.41515  -0.41301  -0.41086  -0.40991
 Alpha  occ. eigenvalues --   -0.40901  -0.40342  -0.40311  -0.39905  -0.39560
 Alpha  occ. eigenvalues --   -0.39154  -0.38335  -0.37978  -0.37940  -0.37667
 Alpha  occ. eigenvalues --   -0.37651  -0.37363  -0.36894  -0.36003  -0.35507
 Alpha  occ. eigenvalues --   -0.35322  -0.34597  -0.33950  -0.32109  -0.31911
 Alpha  occ. eigenvalues --   -0.31207  -0.29332  -0.28109  -0.26735  -0.24630
 Alpha  occ. eigenvalues --   -0.21866
 Alpha virt. eigenvalues --   -0.03226   0.00448   0.03067   0.05718   0.06287
 Alpha virt. eigenvalues --    0.07445   0.09350   0.10491   0.11170   0.11388
 Alpha virt. eigenvalues --    0.12404   0.12537   0.13049   0.13430   0.13589

 Mulliken charges:
               1
     1  O   -0.545657
     2  O   -0.547251
     3  C   -0.013439
     4  C   -0.030212
     5  C   -0.181498
     6  C   -0.163921
     7  C    0.166114
     8  C    0.158032
     9  C    0.015539
    10  C    0.078539
    11  C   -0.232534
    12  C   -0.228592
    13  C    0.106827
    14  C    0.052190
    15  C   -0.298367
    16  C   -0.279210
    17  C   -0.286932
    18  C   -0.317263
    19  C   -0.115437
    20  C   -0.159511
    21  C   -0.349568
    22  C   -0.356228
    23  C   -0.114812
    24  C   -0.071004
    25  C    0.068134
    26  C    0.150120
    27  C   -0.345809
    28  C   -0.406905
    29  C   -0.127737
    30  C   -0.156201
    31  C   -0.088131
    32  C   -0.052320
    33  C   -0.085697
    34  C   -0.105846
    35  C    0.166815
    36  C    0.111734
    37  C   -0.388139
    38  C   -0.381494
    39  C   -0.154625
    40  C   -0.118403
    41  C   -0.090620
    42  C   -0.062950
    43  H    0.103985
    44  H    0.060582
    45  H    0.064831
    46  H    0.116157
    47  H    0.085109
    48  H    0.058756
    49  H    0.110251
    50  H    0.104331
    51  H    0.124924
    52  H    0.077392
    53  H    0.088817
    54  H    0.086823
    55  H    0.123119
    56  H    0.114153
    57  H    0.086493
    58  H    0.096894
    59  H    0.101990
    60  H    0.113443
    61  H    0.103776
    62  H    0.096228
    63  H    0.093347
    64  H    0.093280
    65  H    0.066195
    66  H    0.088595
    67  H    0.131649
    68  H    0.093669
    69  H    0.097578
    70  H    0.100909
    71  H    0.103487
    72  H    0.130902
    73  H    0.301155
    74  H    0.301774
    75  H    0.076332
    76  H    0.090001
    77  H    0.127037
    78  H    0.095783
    79  H    0.114833
    80  H    0.121063
    81  H    0.107823
    82  H    0.104768
    83  H    0.086541
    84  H    0.070858
    85  H    0.080963
    86  H    0.086011
    87  H    0.061761
    88  H    0.073408
    89  H    0.117726
    90  H    0.081648
    91  H    0.130888
    92  H    0.090135
    93  H    0.130080
    94  H    0.094818
    95  H    0.077014
    96  H    0.065050
    97  H    0.095438
    98  H    0.081696
 Sum of Mulliken charges =  -0.00000

 Dipole moment (field-independent basis, Debye):
    X=              1.3032    Y=             -2.0738    Z=              0.7221  Tot=              2.5535
 Quadrupole moment (field-independent basis, Debye-Ang):
   XX=           -254.1283   YY=           -240.1159   ZZ=           -261.9115
   XY=             -1.1928   XZ=            -12.7723   YZ=              2.4254

 Normal termination of Gaussian 16 at Fri Jul  5 21:54:18 2019.
