 Gaussian 16, Revision A.03,
 Gaussian 16:  ES64L-G16RevA.03 25-Dec-2016

 -------------------------------------
 # td=(NStates=1) CAM-B3LYP/6-31G(d,p)
 -------------------------------------

 --
 TD
 --
 Symbolic Z-matrix:
 Charge =  0 Multiplicity = 1

                         Standard orientation:
 ---------------------------------------------------------------------
 Center     Atomic      Atomic             Coordinates (Angstroms)
 Number     Number       Type             X           Y           Z
 ---------------------------------------------------------------------
      1          8           0       14.599087   -2.333731   -0.286148
      2          8           0      -14.620589    2.066854    1.067860
      3          6           0       11.400905   -1.090517    1.270647
      4          6           0      -12.326929   -0.849672    0.899005
      5          6           0       12.911475   -1.421026    1.253785
      6          6           0      -13.604102   -0.110169    0.863657
      7          6           0       13.226294   -2.008860   -0.151803
      8          6           0      -13.390094    1.359651    0.852822
      9          6           0       10.873317   -0.326665   -0.011310
     10          6           0      -11.296728   -0.330759   -0.187963
     11          6           0       13.017524   -0.912994   -1.257185
     12          6           0      -12.670244    1.733265   -0.532555
     13          6           0       11.695470   -0.206234   -1.098584
     14          6           0      -11.503781    0.839896   -0.820100
     15          6           0       11.050583   -0.358037    2.540859
     16          6           0       10.602616   -2.402794    1.350791
     17          6           0      -11.596886   -0.804585    2.311206
     18          6           0      -12.617180   -2.367372    0.558077
     19          6           0        9.634293    0.429881    0.174540
     20          6           0      -10.126850   -1.106024   -0.343372
     21          6           0       11.347617    0.630358   -2.311308
     22          6           0      -10.709839    1.469675   -1.828743
     23          6           0        9.390880    1.746552   -0.031606
     24          6           0       -8.837021   -0.571171   -0.174171
     25          6           0        8.063926    2.383439    0.123625
     26          6           0       -7.581293   -1.332392   -0.608703
     27          6           0        8.064131    3.869627    0.527628
     28          6           0       -7.706553   -2.810828   -0.887382
     29          6           0        6.869738    1.655757   -0.056700
     30          6           0       -6.365826   -0.665086   -0.546351
     31          6           0        5.526846    2.059027    0.182129
     32          6           0       -5.090818   -1.256565   -0.689658
     33          6           0        4.455098    1.252254   -0.025090
     34          6           0       -4.093317   -0.462771   -0.595832
     35          6           0        2.996919    1.643489    0.006737
     36          6           0       -2.610795   -0.844519   -0.698349
     37          6           0        2.669948    3.098855    0.353703
     38          6           0       -2.330082   -2.250089   -1.122557
     39          6           0        2.165460    0.728426   -0.125315
     40          6           0       -1.683077    0.014095   -0.465238
     41          6           0        0.711871    0.885540   -0.084960
     42          6           0       -0.202464   -0.118937   -0.417164
     43          1           0       13.682311   -0.633729    1.481156
     44          1           0       12.969406   -2.279711    2.115654
     45          1           0      -14.042568   -0.602232    1.762044
     46          1           0      -14.095172   -0.483130    0.164164
     47          1           0       12.694543   -3.058173   -0.347140
     48          1           0      -12.557085    1.665679    1.632391
     49          1           0       13.915429   -0.298387   -0.987108
     50          1           0       13.042824   -1.412901   -2.159449
     51          1           0      -13.332227    1.795823   -1.462893
     52          1           0      -12.373208    2.923293   -0.546857
     53          1           0       11.172999   -1.000264    3.492728
     54          1           0       10.007323    0.135929    2.438049
     55          1           0       11.791498    0.479738    2.379509
     56          1           0       10.341121   -2.796293    0.317495
     57          1           0       10.994776   -3.204626    2.176078
     58          1           0        9.572237   -2.060965    1.508579
     59          1           0      -11.328664    0.376663    2.390864
     60          1           0      -10.805757   -1.658687    2.447944
     61          1           0      -12.366677   -0.952303    3.031445
     62          1           0      -13.600960   -2.619738    1.114961
     63          1           0      -11.762776   -2.956956    1.122691
     64          1           0      -12.834113   -2.555089   -0.606367
     65          1           0        8.889638   -0.260448    0.612424
     66          1           0      -10.227891   -2.188304   -0.570664
     67          1           0       10.321658    0.838267   -2.355227
     68          1           0       12.028782    1.520238   -2.655356
     69          1           0       11.411660   -0.093709   -3.266655
     70          1           0      -11.229650    1.850256   -2.647205
     71          1           0      -10.101702    0.842779   -2.396110
     72          1           0      -10.194181    2.297963   -1.392262
     73          1           0       14.923998   -2.927397    0.516785
     74          1           0      -14.902125    1.595778    1.784836
     75          1           0       10.302369    2.289965   -0.489687
     76          1           0       -8.586221    0.512259    0.297742
     77          1           0        8.825718    4.496871   -0.125064
     78          1           0        7.054186    4.265367    0.201057
     79          1           0        8.317022    3.906161    1.595360
     80          1           0       -8.401448   -3.290514   -0.077885
     81          1           0       -8.247699   -2.941426   -1.901262
     82          1           0       -6.711292   -3.159786   -1.064232
     83          1           0        7.114559    0.533582   -0.524485
     84          1           0       -6.219152    0.441573   -0.203406
     85          1           0        5.261831    3.112983    0.685711
     86          1           0       -4.914879   -2.242858   -0.875410
     87          1           0        4.604333    0.176190   -0.509784
     88          1           0       -4.425720    0.626212   -0.405824
     89          1           0        3.334367    3.354494    1.133908
     90          1           0        1.573157    3.259392    0.648445
     91          1           0        3.008913    3.860028   -0.428368
     92          1           0       -2.555544   -2.858914   -0.105653
     93          1           0       -3.084395   -2.792801   -1.839015
     94          1           0       -1.292533   -2.485914   -1.124777
     95          1           0        2.587706   -0.174596   -0.595051
     96          1           0       -2.032844    0.932258   -0.256839
     97          1           0        0.321549    2.005171    0.091906
     98          1           0        0.346394   -1.120360   -0.660864
 ---------------------------------------------------------------------

 SCF Done:  E(RCAM-B3LYP) =  -1706.95762835     A.U. after   13 cycles

 Excitation energies and oscillator strengths:

 Excited State   1:      Singlet-A      3.2029 eV  387.10 nm  f=3.4890  <S**2>=0.000
     154 ->159        -0.10049
     155 ->157        -0.13249
     155 ->158         0.23625
     156 ->157         0.63861
 This state for optimization and/or second-order correction.
 Total Energy, E(TD-HF/TD-DFT) =  -1706.83992293
 Copying the excited state density for this state as the 1-particle RhoCI density.

 The electronic state is 1-A.
 Alpha  occ. eigenvalues --  -19.20951 -19.20929 -10.31808 -10.30979 -10.28229
 Alpha  occ. eigenvalues --  -10.28137 -10.27981 -10.27914 -10.27846 -10.27704
 Alpha  occ. eigenvalues --  -10.27626 -10.27622 -10.27495 -10.27459 -10.27373
 Alpha  occ. eigenvalues --  -10.27218 -10.27171 -10.27146 -10.27054 -10.26999
 Alpha  occ. eigenvalues --  -10.26976 -10.26877 -10.26742 -10.26582 -10.26579
 Alpha  occ. eigenvalues --  -10.26533 -10.26467 -10.26431 -10.26380 -10.26171
 Alpha  occ. eigenvalues --  -10.26119 -10.25989 -10.25772 -10.25665 -10.25256
 Alpha  occ. eigenvalues --  -10.25158 -10.25064 -10.25061 -10.24770 -10.24414
 Alpha  occ. eigenvalues --  -10.23606 -10.22601  -1.11017  -1.07670  -0.94085
 Alpha  occ. eigenvalues --   -0.93234  -0.92650  -0.92235  -0.89857  -0.89530
 Alpha  occ. eigenvalues --   -0.88421  -0.87045  -0.86624  -0.85703  -0.84096
 Alpha  occ. eigenvalues --   -0.83311  -0.81830  -0.79983  -0.79351  -0.78158
 Alpha  occ. eigenvalues --   -0.76549  -0.76368  -0.75536  -0.75454  -0.75114
 Alpha  occ. eigenvalues --   -0.74888  -0.74842  -0.74153  -0.73800  -0.69572
 Alpha  occ. eigenvalues --   -0.68559  -0.67292  -0.65534  -0.64188  -0.63398
 Alpha  occ. eigenvalues --   -0.62834  -0.62426  -0.61656  -0.60375  -0.59452
 Alpha  occ. eigenvalues --   -0.58179  -0.58059  -0.57475  -0.57233  -0.56207
 Alpha  occ. eigenvalues --   -0.55604  -0.55364  -0.54402  -0.53932  -0.53011
 Alpha  occ. eigenvalues --   -0.52807  -0.52521  -0.51705  -0.51393  -0.51151
 Alpha  occ. eigenvalues --   -0.50846  -0.50191  -0.49705  -0.49401  -0.49115
 Alpha  occ. eigenvalues --   -0.48870  -0.48419  -0.48283  -0.47738  -0.47391
 Alpha  occ. eigenvalues --   -0.47076  -0.47000  -0.46905  -0.46531  -0.46176
 Alpha  occ. eigenvalues --   -0.45925  -0.45416  -0.45350  -0.44878  -0.44809
 Alpha  occ. eigenvalues --   -0.44742  -0.44654  -0.44208  -0.43901  -0.43598
 Alpha  occ. eigenvalues --   -0.43322  -0.43152  -0.42799  -0.42475  -0.42393
 Alpha  occ. eigenvalues --   -0.42285  -0.41660  -0.41157  -0.40986  -0.40567
 Alpha  occ. eigenvalues --   -0.40334  -0.39873  -0.39741  -0.39373  -0.39128
 Alpha  occ. eigenvalues --   -0.38778  -0.38733  -0.38515  -0.38231  -0.37568
 Alpha  occ. eigenvalues --   -0.37403  -0.36984  -0.36738  -0.36438  -0.35715
 Alpha  occ. eigenvalues --   -0.35344  -0.34428  -0.33112  -0.32465  -0.32233
 Alpha  occ. eigenvalues --   -0.31118  -0.29235  -0.28283  -0.26697  -0.23929
 Alpha  occ. eigenvalues --   -0.22102
 Alpha virt. eigenvalues --   -0.03101  -0.00489   0.02604   0.05742   0.07580
 Alpha virt. eigenvalues --    0.09564   0.10403   0.10643   0.11224   0.11358
 Alpha virt. eigenvalues --    0.12025   0.12474   0.12610   0.13330   0.13522

 Mulliken charges:
               1
     1  O   -0.579226
     2  O   -0.540680
     3  C   -0.009373
     4  C   -0.040556
     5  C   -0.180070
     6  C   -0.169246
     7  C    0.164733
     8  C    0.165609
     9  C    0.047307
    10  C    0.075401
    11  C   -0.204252
    12  C   -0.243594
    13  C    0.044564
    14  C    0.079836
    15  C   -0.282225
    16  C   -0.295550
    17  C   -0.290022
    18  C   -0.308733
    19  C   -0.122467
    20  C   -0.166083
    21  C   -0.367334
    22  C   -0.363445
    23  C   -0.108440
    24  C   -0.089136
    25  C    0.053197
    26  C    0.075187
    27  C   -0.354550
    28  C   -0.359016
    29  C   -0.109102
    30  C   -0.140413
    31  C   -0.097633
    32  C   -0.006270
    33  C   -0.115563
    34  C   -0.135752
    35  C    0.152055
    36  C    0.144254
    37  C   -0.375537
    38  C   -0.384936
    39  C   -0.129847
    40  C   -0.127259
    41  C   -0.094440
    42  C   -0.106588
    43  H    0.100711
    44  H    0.059264
    45  H    0.077681
    46  H    0.113268
    47  H    0.071862
    48  H    0.069019
    49  H    0.128229
    50  H    0.124843
    51  H    0.111873
    52  H    0.087624
    53  H    0.095084
    54  H    0.101515
    55  H    0.093790
    56  H    0.097177
    57  H    0.086642
    58  H    0.096714
    59  H    0.092730
    60  H    0.106329
    61  H    0.101774
    62  H    0.085825
    63  H    0.093299
    64  H    0.102602
    65  H    0.093258
    66  H    0.094984
    67  H    0.130173
    68  H    0.112020
    69  H    0.079580
    70  H    0.108487
    71  H    0.115126
    72  H    0.120968
    73  H    0.303340
    74  H    0.298295
    75  H    0.098157
    76  H    0.084909
    77  H    0.103272
    78  H    0.111246
    79  H    0.134628
    80  H    0.117765
    81  H    0.114132
    82  H    0.111743
    83  H    0.078116
    84  H    0.078447
    85  H    0.084771
    86  H    0.074667
    87  H    0.075441
    88  H    0.072777
    89  H    0.125218
    90  H    0.107690
    91  H    0.118589
    92  H    0.097681
    93  H    0.120505
    94  H    0.121522
    95  H    0.081212
    96  H    0.072271
    97  H    0.076705
    98  H    0.079647
 Sum of Mulliken charges =  -0.00000

 Dipole moment (field-independent basis, Debye):
    X=             -0.0263    Y=             -1.5579    Z=              1.1703  Tot=              1.9487
 Quadrupole moment (field-independent basis, Debye-Ang):
   XX=           -281.4058   YY=           -249.1163   ZZ=           -261.0946
   XY=             23.3716   XZ=              6.2642   YZ=             -2.3211

 Normal termination of Gaussian 16 at Sat Jul  6 23:04:39 2019.
