 Gaussian 16, Revision A.03,
 Gaussian 16:  ES64L-G16RevA.03 25-Dec-2016

 -------------------------------------
 # td=(NStates=1) CAM-B3LYP/6-31G(d,p)
 -------------------------------------

 --
 TD
 --
 Symbolic Z-matrix:
 Charge =  0 Multiplicity = 1

                         Standard orientation:
 ---------------------------------------------------------------------
 Center     Atomic      Atomic             Coordinates (Angstroms)
 Number     Number       Type             X           Y           Z
 ---------------------------------------------------------------------
      1          8           0       14.639006   -2.221581   -0.233916
      2          8           0      -14.636561    2.183899    0.779538
      3          6           0       11.509349   -0.925538    1.307634
      4          6           0      -12.227648   -0.768156    0.893427
      5          6           0       13.011275   -1.339891    1.274444
      6          6           0      -13.448033    0.010101    0.879519
      7          6           0       13.284303   -1.976380   -0.124634
      8          6           0      -13.318762    1.485865    0.780270
      9          6           0       11.058259   -0.239658    0.031526
     10          6           0      -11.253622   -0.267434   -0.089867
     11          6           0       12.972121   -1.047037   -1.389015
     12          6           0      -12.719990    1.747046   -0.630177
     13          6           0       11.584984   -0.476295   -1.214800
     14          6           0      -11.509021    0.828294   -0.872828
     15          6           0       11.366774    0.137410    2.455197
     16          6           0       10.571616   -2.087420    1.604238
     17          6           0      -11.666001   -0.614586    2.316182
     18          6           0      -12.712912   -2.376068    0.637233
     19          6           0        9.673023    0.438613    0.183758
     20          6           0      -10.152258   -1.125751   -0.368606
     21          6           0       11.042251    0.116234   -2.522928
     22          6           0      -10.670419    1.312433   -1.981532
     23          6           0        9.345012    1.658628   -0.170382
     24          6           0       -8.835682   -0.751302   -0.342695
     25          6           0        7.997750    2.268664   -0.006109
     26          6           0       -7.548422   -1.476645   -0.591754
     27          6           0        8.074542    3.748335    0.182092
     28          6           0       -7.644370   -2.988870   -0.606491
     29          6           0        6.891052    1.613283   -0.242730
     30          6           0       -6.424481   -0.737168   -0.421133
     31          6           0        5.563844    2.069932    0.072496
     32          6           0       -5.123617   -1.264197   -0.541714
     33          6           0        4.465577    1.308499   -0.019406
     34          6           0       -3.974269   -0.436838   -0.491891
     35          6           0        3.058625    1.670394    0.056079
     36          6           0       -2.665230   -0.917690   -0.478373
     37          6           0        2.723342    3.030190    0.547286
     38          6           0       -2.363395   -2.345463   -0.781114
     39          6           0        2.086046    0.804526   -0.197437
     40          6           0       -1.569214    0.050807   -0.284595
     41          6           0        0.554333    0.877888   -0.128175
     42          6           0       -0.274215   -0.124730   -0.317005
     43          1           0       13.775922   -0.458654    1.285169
     44          1           0       13.186413   -1.977544    2.010753
     45          1           0      -14.251958   -0.216084    1.722610
     46          1           0      -14.121157   -0.185081   -0.103028
     47          1           0       12.861054   -3.060502   -0.196044
     48          1           0      -12.768548    2.035133    1.464577
     49          1           0       13.628789   -0.414545   -1.546923
     50          1           0       12.740150   -1.930392   -2.268914
     51          1           0      -13.411569    1.350387   -1.437375
     52          1           0      -12.507702    2.777628   -0.701658
     53          1           0       11.491249   -0.381035    3.456006
     54          1           0       10.337532    0.443160    2.759691
     55          1           0       11.980285    1.005369    2.422207
     56          1           0       10.589597   -2.899595    0.661053
     57          1           0       10.861307   -2.794116    2.308171
     58          1           0        9.425381   -1.848407    1.998808
     59          1           0      -11.553125    0.407263    2.574046
     60          1           0      -10.755545   -0.878209    2.285143
     61          1           0      -12.287796   -1.351720    3.010430
     62          1           0      -13.489830   -2.543465    1.371018
     63          1           0      -11.700473   -3.049884    0.861256
     64          1           0      -13.076720   -2.465865   -0.241300
     65          1           0        9.082329   -0.247479    0.894684
     66          1           0      -10.359497   -2.274293   -0.747349
     67          1           0       10.089714    0.517459   -2.399563
     68          1           0       11.700977    1.056846   -2.744766
     69          1           0       11.089012   -0.850723   -3.147005
     70          1           0      -11.180377    1.715955   -2.815752
     71          1           0      -10.032962    0.581127   -2.431577
     72          1           0      -10.077563    2.186124   -1.765275
     73          1           0       14.860326   -2.943256    0.492736
     74          1           0      -15.196583    1.748994    1.403022
     75          1           0       10.137754    2.460009   -0.471420
     76          1           0       -8.700311    0.308352    0.179127
     77          1           0        9.010939    4.131807   -0.390186
     78          1           0        7.263985    4.403729   -0.135337
     79          1           0        8.356663    3.909404    1.274843
     80          1           0       -8.269296   -3.305498    0.082416
     81          1           0       -8.370983   -3.125262   -1.535892
     82          1           0       -6.762592   -3.635597   -0.571870
     83          1           0        7.013908    0.521145   -0.463987
     84          1           0       -6.675749    0.165346   -0.213941
     85          1           0        5.435162    3.135949    0.353041
     86          1           0       -5.002537   -2.245246   -0.843813
     87          1           0        4.722921    0.240737   -0.297051
     88          1           0       -4.225682    0.537568   -0.290093
     89          1           0        2.980281    3.471548    1.540977
     90          1           0        1.734203    3.251968    0.818423
     91          1           0        3.104551    3.885402   -0.165506
     92          1           0       -2.579956   -2.900719    0.265411
     93          1           0       -3.375782   -2.767680   -1.591055
     94          1           0       -1.534293   -2.398420   -1.219557
     95          1           0        2.406856   -0.075390   -0.594044
     96          1           0       -1.929880    1.248436   -0.358330
     97          1           0        0.078102    1.871967    0.108825
     98          1           0       -0.161566   -1.182835   -0.716760
 ---------------------------------------------------------------------

 SCF Done:  E(RCAM-B3LYP) =  -1706.84132585     A.U. after   15 cycles

 Excitation energies and oscillator strengths:

 Excited State   1:      Singlet-A      2.5381 eV  488.50 nm  f=3.4295  <S**2>=0.000
     155 ->158        -0.13093
     156 ->157         0.69475
 This state for optimization and/or second-order correction.
 Total Energy, E(TD-HF/TD-DFT) =  -1706.74805345
 Copying the excited state density for this state as the 1-particle RhoCI density.

 The electronic state is 1-A.
 Alpha  occ. eigenvalues --  -19.21156 -19.19842 -10.31095 -10.29576 -10.28217
 Alpha  occ. eigenvalues --  -10.27899 -10.27840 -10.27516 -10.27420 -10.27268
 Alpha  occ. eigenvalues --  -10.27204 -10.27194 -10.27175 -10.27086 -10.27086
 Alpha  occ. eigenvalues --  -10.26935 -10.26401 -10.26305 -10.26291 -10.26246
 Alpha  occ. eigenvalues --  -10.26233 -10.26181 -10.25960 -10.25856 -10.25845
 Alpha  occ. eigenvalues --  -10.25770 -10.25732 -10.25694 -10.25630 -10.25543
 Alpha  occ. eigenvalues --  -10.25527 -10.25501 -10.25456 -10.25326 -10.25265
 Alpha  occ. eigenvalues --  -10.25229 -10.25193 -10.24984 -10.24583 -10.24323
 Alpha  occ. eigenvalues --  -10.23636 -10.23360  -1.09490  -1.07196  -0.94652
 Alpha  occ. eigenvalues --   -0.92840  -0.92657  -0.91634  -0.91096  -0.89988
 Alpha  occ. eigenvalues --   -0.87994  -0.87136  -0.86703  -0.85575  -0.84813
 Alpha  occ. eigenvalues --   -0.82792  -0.82208  -0.80203  -0.79303  -0.78212
 Alpha  occ. eigenvalues --   -0.77773  -0.77365  -0.76297  -0.76189  -0.76095
 Alpha  occ. eigenvalues --   -0.75802  -0.75235  -0.75005  -0.73950  -0.71342
 Alpha  occ. eigenvalues --   -0.68230  -0.67474  -0.65856  -0.65032  -0.64441
 Alpha  occ. eigenvalues --   -0.64067  -0.63067  -0.62568  -0.60770  -0.60135
 Alpha  occ. eigenvalues --   -0.59047  -0.58435  -0.57969  -0.57323  -0.56159
 Alpha  occ. eigenvalues --   -0.55775  -0.55592  -0.54540  -0.54175  -0.54013
 Alpha  occ. eigenvalues --   -0.53296  -0.52531  -0.52163  -0.51766  -0.51297
 Alpha  occ. eigenvalues --   -0.51186  -0.51025  -0.50369  -0.49783  -0.49463
 Alpha  occ. eigenvalues --   -0.48842  -0.48589  -0.48437  -0.48228  -0.47766
 Alpha  occ. eigenvalues --   -0.47438  -0.47330  -0.47162  -0.46700  -0.46469
 Alpha  occ. eigenvalues --   -0.46290  -0.46033  -0.45662  -0.45218  -0.44669
 Alpha  occ. eigenvalues --   -0.44387  -0.43760  -0.43725  -0.43469  -0.43317
 Alpha  occ. eigenvalues --   -0.43020  -0.42926  -0.42575  -0.42401  -0.42068
 Alpha  occ. eigenvalues --   -0.41875  -0.41655  -0.41411  -0.41093  -0.41018
 Alpha  occ. eigenvalues --   -0.40325  -0.40294  -0.39910  -0.39808  -0.39384
 Alpha  occ. eigenvalues --   -0.39084  -0.38892  -0.38077  -0.37882  -0.37535
 Alpha  occ. eigenvalues --   -0.37234  -0.36907  -0.36723  -0.35888  -0.35159
 Alpha  occ. eigenvalues --   -0.35049  -0.34337  -0.33382  -0.32305  -0.31965
 Alpha  occ. eigenvalues --   -0.30651  -0.29486  -0.27771  -0.26723  -0.24472
 Alpha  occ. eigenvalues --   -0.20062
 Alpha virt. eigenvalues --   -0.05015   0.00280   0.03338   0.05719   0.07088
 Alpha virt. eigenvalues --    0.09009   0.09975   0.10409   0.11252   0.11693
 Alpha virt. eigenvalues --    0.11761   0.12367   0.12395   0.12885   0.13390

 Mulliken charges:
               1
     1  O   -0.556544
     2  O   -0.580502
     3  C   -0.014033
     4  C   -0.018789
     5  C   -0.169405
     6  C   -0.194956
     7  C    0.152326
     8  C    0.174703
     9  C    0.060428
    10  C    0.041374
    11  C   -0.159053
    12  C   -0.215730
    13  C    0.001793
    14  C    0.064961
    15  C   -0.310878
    16  C   -0.305236
    17  C   -0.277604
    18  C   -0.296171
    19  C   -0.106234
    20  C   -0.150889
    21  C   -0.322424
    22  C   -0.374968
    23  C   -0.116025
    24  C   -0.111444
    25  C    0.109756
    26  C    0.089043
    27  C   -0.377859
    28  C   -0.363130
    29  C   -0.121134
    30  C   -0.068750
    31  C   -0.070327
    32  C   -0.096205
    33  C   -0.129413
    34  C   -0.085246
    35  C    0.163160
    36  C    0.065801
    37  C   -0.390963
    38  C   -0.317865
    39  C   -0.146238
    40  C   -0.124090
    41  C   -0.132509
    42  C    0.000943
    43  H    0.101972
    44  H    0.089512
    45  H    0.057909
    46  H    0.078235
    47  H    0.060334
    48  H    0.097514
    49  H    0.121425
    50  H    0.076227
    51  H    0.120854
    52  H    0.113092
    53  H    0.079690
    54  H    0.098041
    55  H    0.114281
    56  H    0.080410
    57  H    0.114047
    58  H    0.093386
    59  H    0.101970
    60  H    0.111290
    61  H    0.084233
    62  H    0.105850
    63  H    0.081833
    64  H    0.122065
    65  H    0.090833
    66  H    0.073965
    67  H    0.125268
    68  H    0.103783
    69  H    0.100972
    70  H    0.110672
    71  H    0.121855
    72  H    0.118518
    73  H    0.299511
    74  H    0.296546
    75  H    0.085089
    76  H    0.076730
    77  H    0.100212
    78  H    0.120423
    79  H    0.118385
    80  H    0.142248
    81  H    0.097952
    82  H    0.116136
    83  H    0.077798
    84  H    0.058221
    85  H    0.081602
    86  H    0.070867
    87  H    0.072619
    88  H    0.078834
    89  H    0.110567
    90  H    0.112616
    91  H    0.101081
    92  H    0.123556
    93  H    0.068386
    94  H    0.118725
    95  H    0.073749
    96  H    0.057339
    97  H    0.090784
    98  H    0.080315
 Sum of Mulliken charges =  -0.00000

 Dipole moment (field-independent basis, Debye):
    X=              0.9157    Y=             -1.9343    Z=              2.1281  Tot=              3.0181
 Quadrupole moment (field-independent basis, Debye-Ang):
   XX=           -272.8924   YY=           -244.2133   ZZ=           -261.2515
   XY=             12.8504   XZ=             12.1101   YZ=             -1.7960

 Normal termination of Gaussian 16 at Wed Jun 26 19:40:48 2019.
