 Gaussian 16, Revision A.03,
 Gaussian 16:  ES64L-G16RevA.03 25-Dec-2016

 -------------------------------------
 # td=(NStates=1) CAM-B3LYP/6-31G(d,p)
 -------------------------------------

 --
 TD
 --
 Symbolic Z-matrix:
 Charge =  0 Multiplicity = 1

                         Standard orientation:
 ---------------------------------------------------------------------
 Center     Atomic      Atomic             Coordinates (Angstroms)
 Number     Number       Type             X           Y           Z
 ---------------------------------------------------------------------
      1          8           0       14.831217   -2.162962   -0.329924
      2          8           0      -14.868302    1.844291    0.838072
      3          6           0       11.591946   -1.017508    1.295467
      4          6           0      -12.309344   -0.872141    0.832161
      5          6           0       13.016025   -1.379971    1.149214
      6          6           0      -13.688819   -0.201083    0.850583
      7          6           0       13.460643   -1.854136   -0.285668
      8          6           0      -13.601145    1.263441    0.873233
      9          6           0       11.189544   -0.330700    0.050941
     10          6           0      -11.381400   -0.279655   -0.158101
     11          6           0       13.026554   -0.858667   -1.353988
     12          6           0      -12.824530    1.696638   -0.363507
     13          6           0       11.684397   -0.248175   -1.153195
     14          6           0      -11.581324    0.955036   -0.626793
     15          6           0       11.484551   -0.114780    2.616641
     16          6           0       10.752084   -2.348366    1.529388
     17          6           0      -11.633214   -0.749940    2.148467
     18          6           0      -12.523575   -2.415171    0.532162
     19          6           0        9.818556    0.397299    0.287027
     20          6           0      -10.118992   -1.070488   -0.553177
     21          6           0       11.079097    0.443940   -2.400185
     22          6           0      -10.834660    1.555626   -1.769429
     23          6           0        9.317397    1.639260   -0.098098
     24          6           0       -8.922676   -0.564749   -0.406338
     25          6           0        8.082420    2.233595    0.042150
     26          6           0       -7.644548   -1.214192   -0.573812
     27          6           0        8.043213    3.650293    0.521665
     28          6           0       -7.714903   -2.672080   -0.889331
     29          6           0        6.940706    1.497565   -0.250579
     30          6           0       -6.454911   -0.583749   -0.389072
     31          6           0        5.462598    1.977044    0.152668
     32          6           0       -5.105640   -1.143459   -0.445096
     33          6           0        4.373226    1.244017   -0.125314
     34          6           0       -3.996730   -0.442997   -0.362009
     35          6           0        2.958526    1.724883    0.046285
     36          6           0       -2.658861   -0.873649   -0.536438
     37          6           0        2.763296    3.053299    0.326533
     38          6           0       -2.378832   -2.271655   -0.917497
     39          6           0        2.082961    0.692369   -0.296930
     40          6           0       -1.664599    0.056997   -0.288199
     41          6           0        0.699181    0.860626   -0.202424
     42          6           0       -0.262626   -0.165824   -0.377390
     43          1           0       13.716576   -0.490563    1.151172
     44          1           0       13.657630   -2.072991    1.883291
     45          1           0      -14.460725   -0.631797    1.693998
     46          1           0      -14.056730   -0.380549   -0.224265
     47          1           0       12.827890   -2.796619   -0.579241
     48          1           0      -13.034057    1.662041    1.735557
     49          1           0       13.849069   -0.098646   -1.623271
     50          1           0       12.775535   -1.550893   -2.399289
     51          1           0      -13.344104    1.582802   -1.375318
     52          1           0      -12.310803    2.753786   -0.034170
     53          1           0       12.040550   -0.732800    3.310480
     54          1           0       10.475039    0.146359    3.132274
     55          1           0       12.052384    0.821419    2.612251
     56          1           0       10.999851   -2.959188    0.677318
     57          1           0       11.036185   -2.786530    2.433268
     58          1           0        9.686213   -2.216726    1.683559
     59          1           0      -11.685068    0.110925    2.621175
     60          1           0      -10.790762   -1.226707    2.271665
     61          1           0      -12.445062   -1.206310    2.675575
     62          1           0      -13.203339   -2.817166    1.385911
     63          1           0      -11.445457   -2.858442    0.555657
     64          1           0      -13.011191   -2.642568   -0.433906
     65          1           0        9.020720   -0.248792    0.815953
     66          1           0      -10.307806   -2.013872   -1.012646
     67          1           0       10.004988    0.526015   -2.146274
     68          1           0       11.558517    1.424686   -2.350082
     69          1           0       11.447504    0.046936   -3.401572
     70          1           0      -11.462796    1.699560   -2.693146
     71          1           0      -10.049154    0.856921   -2.108155
     72          1           0      -10.450557    2.408283   -1.238324
     73          1           0       15.096022   -2.778797    0.398143
     74          1           0      -15.256756    1.800297    1.755085
     75          1           0        9.932337    2.340404   -0.584881
     76          1           0       -9.063408    0.488910   -0.237333
     77          1           0        8.164096    4.323089   -0.521910
     78          1           0        6.859720    3.584458    0.809930
     79          1           0        8.717000    3.937202    1.496227
     80          1           0       -8.634444   -3.157787   -0.206130
     81          1           0       -8.242102   -2.650437   -1.809615
     82          1           0       -6.813721   -3.183036   -1.032057
     83          1           0        6.949244    0.421797   -0.608231
     84          1           0       -6.674738    0.406817   -0.034742
     85          1           0        5.366916    2.897747    0.470073
     86          1           0       -4.968588   -2.235414   -0.617986
     87          1           0        4.476376    0.259571   -0.307801
     88          1           0       -4.305851    0.539389   -0.234478
     89          1           0        2.873306    2.995145    1.585389
     90          1           0        1.733238    3.439709    0.215538
     91          1           0        3.567541    3.704661   -0.054687
     92          1           0       -2.650862   -3.153826   -0.220230
     93          1           0       -2.842065   -2.455773   -1.994348
     94          1           0       -1.273169   -2.285838   -1.030963
     95          1           0        2.389254   -0.262001   -0.492988
     96          1           0       -1.896237    0.921559    0.026981
     97          1           0        0.327789    1.864979    0.020702
     98          1           0        0.221179   -1.134789   -0.466432
 ---------------------------------------------------------------------

 SCF Done:  E(RCAM-B3LYP) =  -1706.94020708     A.U. after   14 cycles

 Excitation energies and oscillator strengths:

 Excited State   1:      Singlet-A      2.7147 eV  456.71 nm  f=3.5206  <S**2>=0.000
     155 ->158         0.14457
     156 ->157         0.68830
 This state for optimization and/or second-order correction.
 Total Energy, E(TD-HF/TD-DFT) =  -1706.84044358
 Copying the excited state density for this state as the 1-particle RhoCI density.

 The electronic state is 1-A.
 Alpha  occ. eigenvalues --  -19.21876 -19.21093 -10.31453 -10.29801 -10.29181
 Alpha  occ. eigenvalues --  -10.28583 -10.27747 -10.27640 -10.27376 -10.27159
 Alpha  occ. eigenvalues --  -10.27141 -10.26886 -10.26880 -10.26663 -10.26586
 Alpha  occ. eigenvalues --  -10.26555 -10.26467 -10.26357 -10.26308 -10.26304
 Alpha  occ. eigenvalues --  -10.26048 -10.25998 -10.25963 -10.25881 -10.25797
 Alpha  occ. eigenvalues --  -10.25714 -10.25580 -10.25540 -10.25416 -10.25363
 Alpha  occ. eigenvalues --  -10.25268 -10.25265 -10.25170 -10.25076 -10.24908
 Alpha  occ. eigenvalues --  -10.24865 -10.24736 -10.24539 -10.24499 -10.24248
 Alpha  occ. eigenvalues --  -10.24180 -10.21074  -1.09700  -1.09620  -0.94538
 Alpha  occ. eigenvalues --   -0.94151  -0.92886  -0.92070  -0.90854  -0.90640
 Alpha  occ. eigenvalues --   -0.87861  -0.87394  -0.87194  -0.85489  -0.84025
 Alpha  occ. eigenvalues --   -0.83133  -0.82277  -0.80782  -0.79184  -0.79046
 Alpha  occ. eigenvalues --   -0.77087  -0.76585  -0.76408  -0.76381  -0.75475
 Alpha  occ. eigenvalues --   -0.75115  -0.74844  -0.74203  -0.73369  -0.70480
 Alpha  occ. eigenvalues --   -0.68882  -0.67508  -0.65671  -0.65492  -0.64548
 Alpha  occ. eigenvalues --   -0.63380  -0.63088  -0.62698  -0.61213  -0.60381
 Alpha  occ. eigenvalues --   -0.59605  -0.59413  -0.58236  -0.57964  -0.56910
 Alpha  occ. eigenvalues --   -0.55898  -0.55418  -0.54650  -0.54117  -0.53697
 Alpha  occ. eigenvalues --   -0.53424  -0.53122  -0.52073  -0.51905  -0.51683
 Alpha  occ. eigenvalues --   -0.50829  -0.50423  -0.50280  -0.49616  -0.49447
 Alpha  occ. eigenvalues --   -0.49060  -0.48849  -0.48602  -0.48456  -0.47758
 Alpha  occ. eigenvalues --   -0.47635  -0.47557  -0.47003  -0.46785  -0.46317
 Alpha  occ. eigenvalues --   -0.45994  -0.45537  -0.45190  -0.45084  -0.44688
 Alpha  occ. eigenvalues --   -0.44403  -0.44376  -0.44039  -0.43954  -0.43423
 Alpha  occ. eigenvalues --   -0.43227  -0.42840  -0.42724  -0.42640  -0.42406
 Alpha  occ. eigenvalues --   -0.42271  -0.41985  -0.41471  -0.41361  -0.40952
 Alpha  occ. eigenvalues --   -0.40460  -0.40206  -0.39885  -0.39870  -0.39246
 Alpha  occ. eigenvalues --   -0.38860  -0.38739  -0.38485  -0.37839  -0.37682
 Alpha  occ. eigenvalues --   -0.37404  -0.36525  -0.36296  -0.35830  -0.35565
 Alpha  occ. eigenvalues --   -0.35199  -0.34430  -0.32768  -0.31847  -0.31496
 Alpha  occ. eigenvalues --   -0.31322  -0.29234  -0.28037  -0.26196  -0.24504
 Alpha  occ. eigenvalues --   -0.20404
 Alpha virt. eigenvalues --   -0.04223   0.00473   0.02775   0.06737   0.08460
 Alpha virt. eigenvalues --    0.09269   0.10566   0.11125   0.11309   0.12184
 Alpha virt. eigenvalues --    0.12252   0.12648   0.12723   0.12868   0.13099

 Mulliken charges:
               1
     1  O   -0.563079
     2  O   -0.557055
     3  C   -0.004026
     4  C   -0.047435
     5  C   -0.213297
     6  C   -0.180047
     7  C    0.190041
     8  C    0.186242
     9  C    0.068719
    10  C    0.070304
    11  C   -0.221060
    12  C   -0.207601
    13  C    0.063858
    14  C    0.000682
    15  C   -0.308366
    16  C   -0.298045
    17  C   -0.261607
    18  C   -0.296279
    19  C   -0.135910
    20  C   -0.165109
    21  C   -0.349939
    22  C   -0.335105
    23  C   -0.105823
    24  C   -0.078164
    25  C    0.062422
    26  C    0.121228
    27  C   -0.334126
    28  C   -0.370594
    29  C   -0.117856
    30  C   -0.141726
    31  C   -0.107920
    32  C   -0.103435
    33  C   -0.093065
    34  C   -0.072697
    35  C    0.143715
    36  C    0.102248
    37  C   -0.388262
    38  C   -0.372802
    39  C   -0.107837
    40  C   -0.071851
    41  C   -0.094961
    42  C   -0.110781
    43  H    0.106322
    44  H    0.058344
    45  H    0.061739
    46  H    0.096299
    47  H    0.059372
    48  H    0.071238
    49  H    0.112305
    50  H    0.065969
    51  H    0.118879
    52  H    0.078503
    53  H    0.101768
    54  H    0.097860
    55  H    0.108282
    56  H    0.109173
    57  H    0.109286
    58  H    0.108089
    59  H    0.101902
    60  H    0.114188
    61  H    0.082588
    62  H    0.089521
    63  H    0.091983
    64  H    0.105275
    65  H    0.073181
    66  H    0.093114
    67  H    0.134268
    68  H    0.124936
    69  H    0.108779
    70  H    0.105511
    71  H    0.113083
    72  H    0.113941
    73  H    0.313448
    74  H    0.306080
    75  H    0.078373
    76  H    0.085119
    77  H    0.108312
    78  H    0.098594
    79  H    0.117977
    80  H    0.092873
    81  H    0.128177
    82  H    0.112825
    83  H    0.088316
    84  H    0.077791
    85  H    0.069163
    86  H    0.071524
    87  H    0.074624
    88  H    0.070449
    89  H    0.104834
    90  H    0.124406
    91  H    0.136330
    92  H    0.118642
    93  H    0.108182
    94  H    0.107983
    95  H    0.079503
    96  H    0.064834
    97  H    0.069877
    98  H    0.082462
 Sum of Mulliken charges =  -0.00000

 Dipole moment (field-independent basis, Debye):
    X=              1.1762    Y=             -0.3773    Z=              2.4243  Tot=              2.7208
 Quadrupole moment (field-independent basis, Debye-Ang):
   XX=           -275.7702   YY=           -248.8055   ZZ=           -257.3771
   XY=              6.2043   XZ=              0.1421   YZ=              2.5682

 Normal termination of Gaussian 16 at Sat Jul  6 11:23:06 2019.
