 Gaussian 16, Revision A.03,
 Gaussian 16:  ES64L-G16RevA.03 25-Dec-2016

 -------------------------------------
 # td=(NStates=1) CAM-B3LYP/6-31G(d,p)
 -------------------------------------

 --
 TD
 --
 Symbolic Z-matrix:
 Charge =  0 Multiplicity = 1

                         Standard orientation:
 ---------------------------------------------------------------------
 Center     Atomic      Atomic             Coordinates (Angstroms)
 Number     Number       Type             X           Y           Z
 ---------------------------------------------------------------------
      1          8           0       14.803550   -2.213277   -0.172817
      2          8           0      -14.901651    1.821089    0.867402
      3          6           0       11.383762   -1.034221    1.350062
      4          6           0      -12.290438   -0.950854    0.862529
      5          6           0       12.880088   -1.356434    1.159792
      6          6           0      -13.643283   -0.377137    0.775041
      7          6           0       13.273059   -1.968498   -0.130453
      8          6           0      -13.621391    1.177260    0.919939
      9          6           0       10.944397   -0.361063   -0.022025
     10          6           0      -11.262991   -0.221738   -0.140665
     11          6           0       13.068941   -0.900093   -1.249401
     12          6           0      -12.894303    1.747073   -0.313429
     13          6           0       11.680063   -0.319617   -1.187152
     14          6           0      -11.515457    0.974360   -0.664870
     15          6           0       11.303556   -0.147443    2.558594
     16          6           0       10.658215   -2.314071    1.578650
     17          6           0      -11.738855   -0.838302    2.211552
     18          6           0      -12.434360   -2.408943    0.441416
     19          6           0        9.663067    0.311780    0.203310
     20          6           0      -10.123581   -1.014008   -0.505709
     21          6           0       11.143582    0.440665   -2.411107
     22          6           0      -10.742226    1.715014   -1.672358
     23          6           0        9.401223    1.696909   -0.258284
     24          6           0       -8.892269   -0.509722   -0.353144
     25          6           0        8.091313    2.215763   -0.144644
     26          6           0       -7.599338   -1.282455   -0.524803
     27          6           0        8.086014    3.729613    0.443748
     28          6           0       -7.766830   -2.608030   -1.154800
     29          6           0        6.999818    1.496169   -0.273682
     30          6           0       -6.408523   -0.694311   -0.377415
     31          6           0        5.583179    1.958336    0.090475
     32          6           0       -5.159712   -1.081166   -0.549690
     33          6           0        4.542555    1.290158   -0.214734
     34          6           0       -3.937836   -0.386026   -0.376550
     35          6           0        3.130542    1.604727   -0.010477
     36          6           0       -2.632820   -0.733322   -0.520282
     37          6           0        2.861511    2.946298    0.615890
     38          6           0       -2.321591   -2.162214   -1.071348
     39          6           0        2.176893    0.755948   -0.209378
     40          6           0       -1.625336    0.152504   -0.257079
     41          6           0        0.731843    0.897323   -0.090830
     42          6           0       -0.222119   -0.039709   -0.424585
     43          1           0       13.604022   -0.403809    1.253231
     44          1           0       12.970816   -2.139634    1.964964
     45          1           0      -14.398051   -0.743673    1.529666
     46          1           0      -14.271443   -0.578674   -0.059430
     47          1           0       12.958823   -2.988820   -0.522851
     48          1           0      -13.075209    1.530514    1.751243
     49          1           0       13.696507   -0.049174   -1.444278
     50          1           0       12.869408   -1.351156   -2.234374
     51          1           0      -13.502775    1.557180   -1.081263
     52          1           0      -12.746693    2.777580   -0.060189
     53          1           0       11.600329   -0.862627    3.569210
     54          1           0       10.243095    0.153822    2.725237
     55          1           0       11.686048    0.800653    2.480417
     56          1           0       10.906639   -3.065397    0.963074
     57          1           0       10.897588   -2.858756    2.622105
     58          1           0        9.605381   -2.103328    1.755186
     59          1           0      -11.899007    0.156164    2.611957
     60          1           0      -10.789837   -1.358144    2.127532
     61          1           0      -12.263993   -1.695283    2.963619
     62          1           0      -13.268447   -2.820115    0.808481
     63          1           0      -11.514709   -3.014313    0.667233
     64          1           0      -12.690811   -2.490772   -0.680776
     65          1           0        8.922114   -0.266239    0.842486
     66          1           0      -10.210252   -2.150610   -0.717632
     67          1           0        9.996706    0.481797   -2.377943
     68          1           0       11.497869    1.470443   -2.615813
     69          1           0       11.309696   -0.362118   -3.186173
     70          1           0      -11.440030    1.991698   -2.520218
     71          1           0       -9.917423    1.089902   -1.992593
     72          1           0      -10.060707    2.586231   -1.159150
     73          1           0       14.882421   -2.932117    0.251122
     74          1           0      -15.261266    1.821903    1.825193
     75          1           0       10.139903    2.276428   -0.453811
     76          1           0       -8.732835    0.489912   -0.097112
     77          1           0        9.016920    4.374913    0.046896
     78          1           0        7.120732    4.279622    0.195756
     79          1           0        8.296890    3.796154    1.678819
     80          1           0       -8.435957   -3.229275   -0.548232
     81          1           0       -8.351422   -2.674983   -2.063707
     82          1           0       -6.769389   -3.184840   -1.504954
     83          1           0        7.009069    0.496333   -0.884086
     84          1           0       -6.575838    0.326732    0.067247
     85          1           0        5.554013    2.963995    0.464674
     86          1           0       -5.056725   -2.102985   -0.748261
     87          1           0        4.634338    0.217100   -0.615098
     88          1           0       -4.147266    0.576188    0.016970
     89          1           0        3.423679    3.227055    1.431741
     90          1           0        1.829700    3.135092    1.065932
     91          1           0        2.690376    3.810439   -0.051160
     92          1           0       -2.418398   -3.067820   -0.243247
     93          1           0       -3.175546   -2.359605   -1.807804
     94          1           0       -1.204684   -2.260944   -1.320929
     95          1           0        2.650873   -0.225950   -0.764670
     96          1           0       -1.939961    1.074753    0.192101
     97          1           0        0.046066    1.662677    0.608599
     98          1           0        0.221276   -1.049749   -0.894240
 ---------------------------------------------------------------------

 SCF Done:  E(RCAM-B3LYP) =  -1706.91413321     A.U. after   15 cycles

 Excitation energies and oscillator strengths:

 Excited State   1:      Singlet-A      2.6342 eV  470.67 nm  f=3.6611  <S**2>=0.000
     155 ->158        -0.15702
     156 ->157         0.68423
 This state for optimization and/or second-order correction.
 Total Energy, E(TD-HF/TD-DFT) =  -1706.81732874
 Copying the excited state density for this state as the 1-particle RhoCI density.

 The electronic state is 1-A.
 Alpha  occ. eigenvalues --  -19.21690 -19.18832 -10.32125 -10.29571 -10.28875
 Alpha  occ. eigenvalues --  -10.28468 -10.27839 -10.27728 -10.27652 -10.27534
 Alpha  occ. eigenvalues --  -10.27476 -10.27394 -10.27347 -10.27332 -10.26914
 Alpha  occ. eigenvalues --  -10.26903 -10.26872 -10.26579 -10.26568 -10.26388
 Alpha  occ. eigenvalues --  -10.26225 -10.26216 -10.26197 -10.26027 -10.25995
 Alpha  occ. eigenvalues --  -10.25968 -10.25945 -10.25931 -10.25837 -10.25782
 Alpha  occ. eigenvalues --  -10.25741 -10.25596 -10.25595 -10.25569 -10.25557
 Alpha  occ. eigenvalues --  -10.25394 -10.25281 -10.24891 -10.24762 -10.24467
 Alpha  occ. eigenvalues --  -10.24340 -10.23670  -1.08908  -1.08160  -0.94060
 Alpha  occ. eigenvalues --   -0.93895  -0.92711  -0.92209  -0.90962  -0.89947
 Alpha  occ. eigenvalues --   -0.88159  -0.87994  -0.86905  -0.85713  -0.84646
 Alpha  occ. eigenvalues --   -0.83493  -0.82360  -0.79961  -0.79278  -0.77995
 Alpha  occ. eigenvalues --   -0.77031  -0.76973  -0.76296  -0.75689  -0.75617
 Alpha  occ. eigenvalues --   -0.75572  -0.75341  -0.74650  -0.74187  -0.71353
 Alpha  occ. eigenvalues --   -0.69346  -0.67441  -0.66120  -0.65408  -0.64246
 Alpha  occ. eigenvalues --   -0.63022  -0.62704  -0.61274  -0.60578  -0.59966
 Alpha  occ. eigenvalues --   -0.59455  -0.59098  -0.57996  -0.57899  -0.56141
 Alpha  occ. eigenvalues --   -0.55604  -0.55266  -0.55047  -0.54282  -0.53542
 Alpha  occ. eigenvalues --   -0.53431  -0.53315  -0.52548  -0.51868  -0.51286
 Alpha  occ. eigenvalues --   -0.50820  -0.50288  -0.50222  -0.49659  -0.49192
 Alpha  occ. eigenvalues --   -0.49169  -0.49066  -0.49012  -0.48476  -0.48083
 Alpha  occ. eigenvalues --   -0.47667  -0.47098  -0.46666  -0.46107  -0.45959
 Alpha  occ. eigenvalues --   -0.45703  -0.45622  -0.45353  -0.45061  -0.44770
 Alpha  occ. eigenvalues --   -0.44271  -0.44040  -0.43826  -0.43644  -0.43189
 Alpha  occ. eigenvalues --   -0.42763  -0.42634  -0.42569  -0.42385  -0.41968
 Alpha  occ. eigenvalues --   -0.41537  -0.41358  -0.41181  -0.40881  -0.40666
 Alpha  occ. eigenvalues --   -0.40279  -0.40161  -0.39715  -0.39444  -0.39080
 Alpha  occ. eigenvalues --   -0.38997  -0.38742  -0.38483  -0.37888  -0.37689
 Alpha  occ. eigenvalues --   -0.37476  -0.37168  -0.37052  -0.36416  -0.35636
 Alpha  occ. eigenvalues --   -0.35247  -0.34448  -0.33680  -0.32752  -0.31997
 Alpha  occ. eigenvalues --   -0.31560  -0.30370  -0.28783  -0.26912  -0.24001
 Alpha  occ. eigenvalues --   -0.20836
 Alpha virt. eigenvalues --   -0.05234  -0.01131   0.02573   0.06069   0.08327
 Alpha virt. eigenvalues --    0.09878   0.10303   0.10953   0.11377   0.11501
 Alpha virt. eigenvalues --    0.12133   0.12519   0.12598   0.13357   0.13702

 Mulliken charges:
               1
     1  O   -0.549975
     2  O   -0.566274
     3  C   -0.010751
     4  C    0.009084
     5  C   -0.166160
     6  C   -0.185311
     7  C    0.112259
     8  C    0.125469
     9  C    0.060883
    10  C    0.057826
    11  C   -0.192667
    12  C   -0.193412
    13  C    0.006463
    14  C    0.029321
    15  C   -0.276011
    16  C   -0.295644
    17  C   -0.268620
    18  C   -0.311703
    19  C   -0.139279
    20  C   -0.145793
    21  C   -0.358289
    22  C   -0.354588
    23  C   -0.099145
    24  C   -0.077777
    25  C    0.098478
    26  C    0.119161
    27  C   -0.349852
    28  C   -0.394025
    29  C   -0.135143
    30  C   -0.109559
    31  C   -0.089429
    32  C   -0.085925
    33  C   -0.095785
    34  C   -0.127583
    35  C    0.180814
    36  C    0.153562
    37  C   -0.400225
    38  C   -0.357684
    39  C   -0.166789
    40  C   -0.139500
    41  C   -0.096341
    42  C   -0.064495
    43  H    0.109362
    44  H    0.077499
    45  H    0.071655
    46  H    0.103529
    47  H    0.101012
    48  H    0.080670
    49  H    0.137502
    50  H    0.101048
    51  H    0.126463
    52  H    0.105760
    53  H    0.075091
    54  H    0.094211
    55  H    0.116225
    56  H    0.114943
    57  H    0.071906
    58  H    0.109888
    59  H    0.107818
    60  H    0.114486
    61  H    0.056953
    62  H    0.113555
    63  H    0.090556
    64  H    0.093196
    65  H    0.099003
    66  H    0.090194
    67  H    0.128011
    68  H    0.124298
    69  H    0.097611
    70  H    0.113262
    71  H    0.118594
    72  H    0.093743
    73  H    0.277903
    74  H    0.306254
    75  H    0.074766
    76  H    0.085173
    77  H    0.095950
    78  H    0.112802
    79  H    0.095661
    80  H    0.114525
    81  H    0.131317
    82  H    0.094944
    83  H    0.084778
    84  H    0.062217
    85  H    0.086839
    86  H    0.071079
    87  H    0.068543
    88  H    0.069953
    89  H    0.126261
    90  H    0.099081
    91  H    0.120835
    92  H    0.094964
    93  H    0.116549
    94  H    0.108870
    95  H    0.069527
    96  H    0.084807
    97  H    0.081571
    98  H    0.077201
 Sum of Mulliken charges =  -0.00000

 Dipole moment (field-independent basis, Debye):
    X=             -0.9038    Y=             -1.0393    Z=              1.8289  Tot=              2.2895
 Quadrupole moment (field-independent basis, Debye-Ang):
   XX=           -287.6493   YY=           -243.2105   ZZ=           -260.2305
   XY=              7.1194   XZ=            -10.1534   YZ=              5.4210

 Normal termination of Gaussian 16 at Fri Jul  5 14:33:38 2019.
