 Gaussian 16, Revision A.03,
 Gaussian 16:  ES64L-G16RevA.03 25-Dec-2016

 -------------------------------------
 # td=(NStates=1) CAM-B3LYP/6-31G(d,p)
 -------------------------------------

 --
 TD
 --
 Symbolic Z-matrix:
 Charge =  0 Multiplicity = 1

                         Standard orientation:
 ---------------------------------------------------------------------
 Center     Atomic      Atomic             Coordinates (Angstroms)
 Number     Number       Type             X           Y           Z
 ---------------------------------------------------------------------
      1          8           0       14.918117   -2.043952   -0.412392
      2          8           0      -14.843712    2.038728    0.567469
      3          6           0       11.574578   -1.021516    1.154489
      4          6           0      -12.382576   -0.844209    0.885045
      5          6           0       13.112232   -1.303576    1.057666
      6          6           0      -13.721354   -0.254810    0.802015
      7          6           0       13.567252   -1.764469   -0.327772
      8          6           0      -13.582564    1.288282    0.652828
      9          6           0       11.032093   -0.280316    0.034876
     10          6           0      -11.397127   -0.286972   -0.205045
     11          6           0       13.148630   -0.683162   -1.436878
     12          6           0      -12.889844    1.718930   -0.598504
     13          6           0       11.673329   -0.205227   -1.230062
     14          6           0      -11.707807    0.835864   -0.875446
     15          6           0       11.279345   -0.350370    2.452952
     16          6           0       10.758004   -2.478309    1.255131
     17          6           0      -11.876595   -0.671735    2.234956
     18          6           0      -12.644872   -2.308938    0.612095
     19          6           0        9.771984    0.348497    0.096225
     20          6           0      -10.115922   -1.106260   -0.338189
     21          6           0       11.203974    0.403085   -2.499341
     22          6           0      -10.836501    1.317141   -2.060467
     23          6           0        9.365161    1.561765   -0.142740
     24          6           0       -8.805051   -0.631215   -0.377473
     25          6           0        7.991121    2.171795    0.048713
     26          6           0       -7.634152   -1.347450   -0.513405
     27          6           0        8.013970    3.659184    0.390530
     28          6           0       -7.691930   -2.751694   -0.983652
     29          6           0        6.856664    1.475650   -0.049780
     30          6           0       -6.497908   -0.587238   -0.387138
     31          6           0        5.552919    1.967755    0.262127
     32          6           0       -5.092928   -1.157951   -0.428316
     33          6           0        4.518102    1.243150   -0.023672
     34          6           0       -4.046083   -0.427690   -0.304316
     35          6           0        3.083932    1.621459    0.232136
     36          6           0       -2.598132   -0.833431   -0.351179
     37          6           0        2.787690    3.015913    0.749427
     38          6           0       -2.438398   -2.268962   -0.698611
     39          6           0        2.114139    0.750192    0.054971
     40          6           0       -1.611011    0.083188   -0.106157
     41          6           0        0.656124    0.983837    0.039978
     42          6           0       -0.186603   -0.020861   -0.163089
     43          1           0       13.658928   -0.353006    1.327931
     44          1           0       13.422151   -1.935325    1.793615
     45          1           0      -14.307714   -0.639974    1.564429
     46          1           0      -14.229024   -0.641901   -0.088089
     47          1           0       12.917317   -2.698448   -0.461582
     48          1           0      -12.957321    1.761304    1.517410
     49          1           0       13.817574    0.176050   -1.113474
     50          1           0       13.197572   -1.370835   -2.465062
     51          1           0      -13.580827    1.974058   -1.487112
     52          1           0      -12.312923    2.760891   -0.567683
     53          1           0       11.786619   -0.810007    3.310992
     54          1           0       10.162195   -0.605011    2.827537
     55          1           0       11.662819    0.655888    2.719414
     56          1           0       10.966258   -3.058917    0.335663
     57          1           0       11.069863   -3.008299    2.159765
     58          1           0        9.713910   -2.382354    1.440991
     59          1           0      -11.582756    0.461593    2.553605
     60          1           0      -10.945136   -1.177586    2.302983
     61          1           0      -12.405854   -0.930727    3.032141
     62          1           0      -13.343884   -2.643165    1.393967
     63          1           0      -11.796888   -2.878270    0.686718
     64          1           0      -13.065135   -2.480485   -0.528362
     65          1           0        8.939052   -0.263818    0.732580
     66          1           0      -10.129661   -2.114321   -0.528756
     67          1           0       10.081869    0.659289   -2.553183
     68          1           0       11.928439    1.396300   -2.462308
     69          1           0       11.392301   -0.268735   -3.303511
     70          1           0      -11.391920    1.872777   -2.987667
     71          1           0      -10.192875    0.471242   -2.524711
     72          1           0      -10.156261    2.164369   -1.710136
     73          1           0       15.019309   -2.677493    0.320969
     74          1           0      -15.132867    1.846953    1.459644
     75          1           0       10.027466    2.389625   -0.560113
     76          1           0       -8.587638    0.505917   -0.444713
     77          1           0        8.826624    4.194144   -0.221937
     78          1           0        6.890771    4.101798    0.215261
     79          1           0        8.261010    3.870406    1.299882
     80          1           0       -8.033298   -3.357132   -0.082056
     81          1           0       -8.481829   -2.812501   -1.798477
     82          1           0       -6.572610   -3.236648   -1.084157
     83          1           0        6.973208    0.454953   -0.530682
     84          1           0       -6.636150    0.313798    0.009827
     85          1           0        5.553966    2.952808    0.921065
     86          1           0       -5.072504   -2.173788   -0.555201
     87          1           0        4.267891    0.051839   -0.602537
     88          1           0       -4.201156    0.723027   -0.172178
     89          1           0        3.093130    2.880033    2.048829
     90          1           0        1.721697    3.297808    0.715453
     91          1           0        3.553347    3.561463    0.141439
     92          1           0       -2.762199   -2.871888    0.146960
     93          1           0       -3.148876   -2.591003   -1.586469
     94          1           0       -1.318902   -2.479846   -0.972924
     95          1           0        2.335582   -0.286441   -0.441386
     96          1           0       -1.998126    1.078312    0.206933
     97          1           0        0.093502    1.985853    0.412077
     98          1           0        0.591419   -0.928741   -0.493807
 ---------------------------------------------------------------------

 SCF Done:  E(RCAM-B3LYP) =  -1706.92261959     A.U. after   13 cycles

 Excitation energies and oscillator strengths:

 Excited State   1:      Singlet-A      3.2403 eV  382.64 nm  f=3.6595  <S**2>=0.000
     155 ->158         0.21003
     156 ->157         0.65961
 This state for optimization and/or second-order correction.
 Total Energy, E(TD-HF/TD-DFT) =  -1706.80354257
 Copying the excited state density for this state as the 1-particle RhoCI density.

 The electronic state is 1-A.
 Alpha  occ. eigenvalues --  -19.22190 -19.20655 -10.30956 -10.30910 -10.28317
 Alpha  occ. eigenvalues --  -10.28283 -10.27947 -10.27859 -10.27842 -10.27731
 Alpha  occ. eigenvalues --  -10.27487 -10.27407 -10.27312 -10.27096 -10.26941
 Alpha  occ. eigenvalues --  -10.26857 -10.26806 -10.26760 -10.26728 -10.26710
 Alpha  occ. eigenvalues --  -10.26609 -10.26546 -10.26468 -10.26381 -10.26342
 Alpha  occ. eigenvalues --  -10.26323 -10.26299 -10.26132 -10.26088 -10.26012
 Alpha  occ. eigenvalues --  -10.25893 -10.25825 -10.25811 -10.25674 -10.25411
 Alpha  occ. eigenvalues --  -10.25403 -10.25284 -10.25279 -10.25022 -10.24955
 Alpha  occ. eigenvalues --  -10.24154 -10.23558  -1.11479  -1.08425  -0.94422
 Alpha  occ. eigenvalues --   -0.93619  -0.92496  -0.92026  -0.90959  -0.89856
 Alpha  occ. eigenvalues --   -0.87806  -0.87518  -0.86634  -0.85526  -0.84361
 Alpha  occ. eigenvalues --   -0.83211  -0.82282  -0.80216  -0.79110  -0.77735
 Alpha  occ. eigenvalues --   -0.77193  -0.76836  -0.76457  -0.75870  -0.75482
 Alpha  occ. eigenvalues --   -0.75351  -0.74888  -0.74688  -0.74269  -0.69948
 Alpha  occ. eigenvalues --   -0.68285  -0.66780  -0.65581  -0.64944  -0.64012
 Alpha  occ. eigenvalues --   -0.63700  -0.62726  -0.60933  -0.59923  -0.58988
 Alpha  occ. eigenvalues --   -0.58865  -0.58417  -0.58037  -0.57140  -0.55804
 Alpha  occ. eigenvalues --   -0.55433  -0.55096  -0.54493  -0.54234  -0.53301
 Alpha  occ. eigenvalues --   -0.53116  -0.52495  -0.52409  -0.52021  -0.50964
 Alpha  occ. eigenvalues --   -0.50138  -0.49936  -0.49747  -0.49350  -0.49123
 Alpha  occ. eigenvalues --   -0.48885  -0.48733  -0.48234  -0.48078  -0.47989
 Alpha  occ. eigenvalues --   -0.47651  -0.47547  -0.46853  -0.46382  -0.46365
 Alpha  occ. eigenvalues --   -0.46140  -0.45752  -0.45393  -0.45238  -0.44879
 Alpha  occ. eigenvalues --   -0.44584  -0.43902  -0.43569  -0.43314  -0.43218
 Alpha  occ. eigenvalues --   -0.43169  -0.42847  -0.42706  -0.42429  -0.42011
 Alpha  occ. eigenvalues --   -0.41112  -0.41033  -0.40932  -0.40732  -0.40550
 Alpha  occ. eigenvalues --   -0.40381  -0.40210  -0.39625  -0.39414  -0.39227
 Alpha  occ. eigenvalues --   -0.38804  -0.38595  -0.38184  -0.38029  -0.37755
 Alpha  occ. eigenvalues --   -0.37637  -0.37416  -0.37059  -0.36034  -0.35732
 Alpha  occ. eigenvalues --   -0.35669  -0.34802  -0.34230  -0.32461  -0.32004
 Alpha  occ. eigenvalues --   -0.31623  -0.29724  -0.28126  -0.25973  -0.24288
 Alpha  occ. eigenvalues --   -0.22232
 Alpha virt. eigenvalues --   -0.03176  -0.00114   0.02574   0.05591   0.07850
 Alpha virt. eigenvalues --    0.08497   0.09760   0.11132   0.11502   0.11688
 Alpha virt. eigenvalues --    0.11917   0.12024   0.12217   0.12673   0.12948

 Mulliken charges:
               1
     1  O   -0.534062
     2  O   -0.556225
     3  C   -0.018264
     4  C   -0.025425
     5  C   -0.198032
     6  C   -0.176201
     7  C    0.157537
     8  C    0.136064
     9  C    0.120726
    10  C    0.058022
    11  C   -0.216831
    12  C   -0.213246
    13  C    0.017624
    14  C    0.067827
    15  C   -0.312351
    16  C   -0.323545
    17  C   -0.287502
    18  C   -0.291979
    19  C   -0.128590
    20  C   -0.169494
    21  C   -0.325153
    22  C   -0.359384
    23  C   -0.089146
    24  C   -0.104167
    25  C    0.067758
    26  C    0.154414
    27  C   -0.361651
    28  C   -0.377306
    29  C   -0.101553
    30  C   -0.132712
    31  C   -0.137611
    32  C   -0.070453
    33  C   -0.063098
    34  C   -0.104213
    35  C    0.111999
    36  C    0.131947
    37  C   -0.327815
    38  C   -0.378785
    39  C   -0.162414
    40  C   -0.164727
    41  C   -0.068343
    42  C   -0.056066
    43  H    0.088787
    44  H    0.086890
    45  H    0.090621
    46  H    0.102894
    47  H    0.057753
    48  H    0.080498
    49  H    0.128616
    50  H    0.100321
    51  H    0.125349
    52  H    0.097751
    53  H    0.093932
    54  H    0.086360
    55  H    0.107603
    56  H    0.107254
    57  H    0.099873
    58  H    0.113633
    59  H    0.076269
    60  H    0.107827
    61  H    0.108425
    62  H    0.093797
    63  H    0.104890
    64  H    0.085052
    65  H    0.065188
    66  H    0.084430
    67  H    0.112849
    68  H    0.100618
    69  H    0.117599
    70  H    0.086086
    71  H    0.114281
    72  H    0.106649
    73  H    0.308611
    74  H    0.299085
    75  H    0.069899
    76  H    0.083387
    77  H    0.102978
    78  H    0.085514
    79  H    0.142465
    80  H    0.121680
    81  H    0.129401
    82  H    0.096123
    83  H    0.086081
    84  H    0.080598
    85  H    0.114435
    86  H    0.068259
    87  H    0.066675
    88  H    0.070015
    89  H    0.076263
    90  H    0.119094
    91  H    0.119600
    92  H    0.132137
    93  H    0.107353
    94  H    0.104657
    95  H    0.066836
    96  H    0.086701
    97  H    0.072594
    98  H    0.069889
 Sum of Mulliken charges =  -0.00000

 Dipole moment (field-independent basis, Debye):
    X=              1.1922    Y=             -1.8344    Z=              2.7661  Tot=              3.5267
 Quadrupole moment (field-independent basis, Debye-Ang):
   XX=           -285.3004   YY=           -248.4958   ZZ=           -258.9007
   XY=             12.1447   XZ=              1.2610   YZ=              0.9103

 Normal termination of Gaussian 16 at Tue Jul  9 06:22:47 2019.
