 Gaussian 16, Revision A.03,
 Gaussian 16:  ES64L-G16RevA.03 25-Dec-2016

 -------------------------------------
 # td=(NStates=1) CAM-B3LYP/6-31G(d,p)
 -------------------------------------

 --
 TD
 --
 Symbolic Z-matrix:
 Charge =  0 Multiplicity = 1

                         Standard orientation:
 ---------------------------------------------------------------------
 Center     Atomic      Atomic             Coordinates (Angstroms)
 Number     Number       Type             X           Y           Z
 ---------------------------------------------------------------------
      1          8           0       14.645583   -2.300405   -0.448510
      2          8           0      -14.687387    2.107017    0.892393
      3          6           0       11.338568   -1.119909    1.291275
      4          6           0      -12.287152   -0.841188    0.796493
      5          6           0       12.892397   -1.547912    1.030433
      6          6           0      -13.564614   -0.117876    0.768630
      7          6           0       13.314193   -1.960463   -0.372120
      8          6           0      -13.431550    1.454907    0.832260
      9          6           0       10.972628   -0.280985    0.088671
     10          6           0      -11.294388   -0.264152   -0.175928
     11          6           0       12.962069   -0.714727   -1.217793
     12          6           0      -12.732130    1.759209   -0.527288
     13          6           0       11.639402   -0.128829   -1.135025
     14          6           0      -11.453467    0.864660   -0.771873
     15          6           0       11.248931   -0.366443    2.588231
     16          6           0       10.495528   -2.478027    1.242743
     17          6           0      -11.719242   -0.981388    2.256237
     18          6           0      -12.689707   -2.360995    0.385328
     19          6           0        9.609928    0.290395    0.295776
     20          6           0      -10.087840   -1.091857   -0.383611
     21          6           0       11.237201    0.647768   -2.283084
     22          6           0      -10.631057    1.498035   -1.878409
     23          6           0        9.403320    1.543019    0.045624
     24          6           0       -8.860418   -0.574811   -0.243025
     25          6           0        8.091276    2.247649    0.182665
     26          6           0       -7.623824   -1.313712   -0.480215
     27          6           0        8.100798    3.798020    0.586092
     28          6           0       -7.786862   -2.795717   -0.915676
     29          6           0        6.855888    1.608965   -0.072009
     30          6           0       -6.434433   -0.751799   -0.218712
     31          6           0        5.640790    2.158671    0.084149
     32          6           0       -5.087038   -1.308583   -0.398273
     33          6           0        4.473490    1.393599   -0.186770
     34          6           0       -3.966653   -0.519144   -0.317154
     35          6           0        3.006860    1.777946   -0.025083
     36          6           0       -2.567380   -0.901709   -0.637518
     37          6           0        2.775468    3.140159    0.502940
     38          6           0       -2.335695   -2.388806   -0.922503
     39          6           0        2.081069    0.845434   -0.307858
     40          6           0       -1.630615    0.035007   -0.304621
     41          6           0        0.615855    0.992008   -0.253469
     42          6           0       -0.105365   -0.077092   -0.500116
     43          1           0       13.362698   -0.627141    1.310323
     44          1           0       13.267209   -2.419312    1.617093
     45          1           0      -14.322131   -0.420418    1.506057
     46          1           0      -14.096532   -0.361672   -0.297865
     47          1           0       12.568771   -2.936472   -0.578062
     48          1           0      -12.671478    1.688694    1.710439
     49          1           0       13.651667    0.112948   -1.025012
     50          1           0       13.201218   -1.057851   -2.200543
     51          1           0      -13.321913    1.606350   -1.241513
     52          1           0      -12.401500    2.882725   -0.511282
     53          1           0       11.636969   -1.182728    3.328030
     54          1           0       10.078450   -0.339732    2.747443
     55          1           0       11.885018    0.471024    2.473614
     56          1           0       10.588859   -3.123168    0.424667
     57          1           0       10.736728   -3.043384    2.109481
     58          1           0        9.442797   -2.289478    1.654746
     59          1           0      -11.637099    0.053764    2.611127
     60          1           0      -10.651577   -1.457524    2.014945
     61          1           0      -12.536979   -1.517963    2.782803
     62          1           0      -13.622126   -2.569406    0.938645
     63          1           0      -11.846071   -2.933319    0.451212
     64          1           0      -13.068044   -2.246432   -0.587108
     65          1           0        9.029619   -0.362132    0.851554
     66          1           0       -9.934041   -2.072586   -0.664092
     67          1           0       10.179707    0.922544   -2.391831
     68          1           0       11.927474    1.517558   -2.432421
     69          1           0       11.573884    0.000496   -3.140169
     70          1           0      -11.269542    1.796217   -2.583478
     71          1           0       -9.956195    0.908582   -2.420734
     72          1           0      -10.106341    2.468986   -1.491668
     73          1           0       15.026333   -2.909188    0.303932
     74          1           0      -15.141679    1.688335    1.618124
     75          1           0       10.373629    2.142040   -0.108453
     76          1           0       -9.034545    0.446085    0.059326
     77          1           0        8.705554    4.479431    0.014272
     78          1           0        7.135698    4.237889    0.471629
     79          1           0        8.358913    3.808860    1.516990
     80          1           0       -8.344345   -3.308310    0.006021
     81          1           0       -8.453408   -2.951447   -1.747904
     82          1           0       -6.641121   -3.331510   -0.933174
     83          1           0        6.777737    0.681192   -0.572169
     84          1           0       -6.284075    0.176822    0.107800
     85          1           0        5.330385    3.171680    0.433249
     86          1           0       -5.053583   -2.344138   -0.644107
     87          1           0        4.611278    0.432099   -0.604947
     88          1           0       -4.052035    0.435593    0.278149
     89          1           0        3.180646    3.341383    1.439007
     90          1           0        1.705474    3.279945    0.609081
     91          1           0        3.367911    3.905964   -0.005574
     92          1           0       -2.652432   -3.065663   -0.177675
     93          1           0       -2.725887   -2.556689   -1.832638
     94          1           0       -1.245077   -2.421593   -0.817114
     95          1           0        2.368133   -0.248894   -0.541566
     96          1           0       -1.900145    1.011014    0.092409
     97          1           0        0.178511    1.937688    0.404322
     98          1           0        0.255696   -0.976625   -0.582929
 ---------------------------------------------------------------------

 SCF Done:  E(RCAM-B3LYP) =  -1706.96825453     A.U. after   14 cycles

 Excitation energies and oscillator strengths:

 Excited State   1:      Singlet-A      2.9549 eV  419.58 nm  f=3.3597  <S**2>=0.000
     155 ->158        -0.20033
     156 ->157         0.66745
 This state for optimization and/or second-order correction.
 Total Energy, E(TD-HF/TD-DFT) =  -1706.85966265
 Copying the excited state density for this state as the 1-particle RhoCI density.

 The electronic state is 1-A.
 Alpha  occ. eigenvalues --  -19.22314 -19.21753 -10.31647 -10.31271 -10.28332
 Alpha  occ. eigenvalues --  -10.28166 -10.27866 -10.27721 -10.27530 -10.27500
 Alpha  occ. eigenvalues --  -10.27369 -10.26867 -10.26737 -10.26734 -10.26388
 Alpha  occ. eigenvalues --  -10.26354 -10.26289 -10.26132 -10.26070 -10.26017
 Alpha  occ. eigenvalues --  -10.25901 -10.25741 -10.25658 -10.25605 -10.25309
 Alpha  occ. eigenvalues --  -10.25237 -10.25234 -10.25182 -10.25061 -10.24917
 Alpha  occ. eigenvalues --  -10.24888 -10.24864 -10.24807 -10.24798 -10.24482
 Alpha  occ. eigenvalues --  -10.24469 -10.24383 -10.24200 -10.24154 -10.24006
 Alpha  occ. eigenvalues --  -10.23928 -10.23502  -1.10127  -1.09747  -0.94002
 Alpha  occ. eigenvalues --   -0.93536  -0.91662  -0.91027  -0.90203  -0.89269
 Alpha  occ. eigenvalues --   -0.87946  -0.87282  -0.86751  -0.85839  -0.85002
 Alpha  occ. eigenvalues --   -0.82460  -0.82143  -0.80592  -0.79636  -0.78651
 Alpha  occ. eigenvalues --   -0.76963  -0.76891  -0.76430  -0.76103  -0.75635
 Alpha  occ. eigenvalues --   -0.75453  -0.75164  -0.74637  -0.73979  -0.69945
 Alpha  occ. eigenvalues --   -0.68542  -0.66981  -0.65904  -0.64794  -0.64353
 Alpha  occ. eigenvalues --   -0.63802  -0.62577  -0.62197  -0.61113  -0.60635
 Alpha  occ. eigenvalues --   -0.59839  -0.58780  -0.57684  -0.57462  -0.56735
 Alpha  occ. eigenvalues --   -0.55757  -0.55495  -0.54863  -0.54008  -0.53365
 Alpha  occ. eigenvalues --   -0.53262  -0.52907  -0.52573  -0.52046  -0.51727
 Alpha  occ. eigenvalues --   -0.50953  -0.50610  -0.50455  -0.50185  -0.49536
 Alpha  occ. eigenvalues --   -0.49113  -0.48919  -0.48151  -0.47962  -0.47795
 Alpha  occ. eigenvalues --   -0.47361  -0.47241  -0.47129  -0.46911  -0.46824
 Alpha  occ. eigenvalues --   -0.46545  -0.46245  -0.46003  -0.45842  -0.45364
 Alpha  occ. eigenvalues --   -0.45252  -0.44666  -0.44410  -0.44123  -0.43936
 Alpha  occ. eigenvalues --   -0.43580  -0.43316  -0.43061  -0.42885  -0.42649
 Alpha  occ. eigenvalues --   -0.41921  -0.41836  -0.41668  -0.41141  -0.40494
 Alpha  occ. eigenvalues --   -0.40440  -0.40326  -0.40090  -0.39738  -0.39254
 Alpha  occ. eigenvalues --   -0.39187  -0.38971  -0.38842  -0.38055  -0.37240
 Alpha  occ. eigenvalues --   -0.37007  -0.36596  -0.36504  -0.35836  -0.35097
 Alpha  occ. eigenvalues --   -0.34525  -0.33975  -0.33136  -0.32427  -0.31700
 Alpha  occ. eigenvalues --   -0.31511  -0.29778  -0.28097  -0.26525  -0.23526
 Alpha  occ. eigenvalues --   -0.21116
 Alpha virt. eigenvalues --   -0.03423  -0.00379   0.03583   0.06154   0.08198
 Alpha virt. eigenvalues --    0.09727   0.10068   0.10456   0.11423   0.11975
 Alpha virt. eigenvalues --    0.12138   0.12622   0.12911   0.13837   0.14226

 Mulliken charges:
               1
     1  O   -0.565140
     2  O   -0.547339
     3  C   -0.051404
     4  C   -0.039187
     5  C   -0.190578
     6  C   -0.205212
     7  C    0.217861
     8  C    0.167543
     9  C    0.029180
    10  C    0.092233
    11  C   -0.236469
    12  C   -0.197719
    13  C    0.090134
    14  C    0.015033
    15  C   -0.274974
    16  C   -0.310551
    17  C   -0.277811
    18  C   -0.295650
    19  C   -0.072699
    20  C   -0.147455
    21  C   -0.367953
    22  C   -0.346449
    23  C   -0.123925
    24  C   -0.065511
    25  C    0.026959
    26  C    0.086040
    27  C   -0.363743
    28  C   -0.370905
    29  C   -0.108144
    30  C   -0.088341
    31  C   -0.048868
    32  C   -0.094499
    33  C   -0.147135
    34  C   -0.120482
    35  C    0.128245
    36  C    0.073125
    37  C   -0.385442
    38  C   -0.350121
    39  C   -0.155039
    40  C   -0.141424
    41  C   -0.073739
    42  C   -0.065170
    43  H    0.088752
    44  H    0.050852
    45  H    0.065408
    46  H    0.072917
    47  H    0.033557
    48  H    0.063717
    49  H    0.118265
    50  H    0.101805
    51  H    0.127092
    52  H    0.088013
    53  H    0.096549
    54  H    0.098737
    55  H    0.121198
    56  H    0.124354
    57  H    0.101031
    58  H    0.083692
    59  H    0.096658
    60  H    0.100471
    61  H    0.100179
    62  H    0.097774
    63  H    0.107890
    64  H    0.105262
    65  H    0.084945
    66  H    0.061346
    67  H    0.131698
    68  H    0.114172
    69  H    0.103991
    70  H    0.121010
    71  H    0.119444
    72  H    0.100306
    73  H    0.319684
    74  H    0.306686
    75  H    0.090373
    76  H    0.080797
    77  H    0.115763
    78  H    0.109159
    79  H    0.137341
    80  H    0.110328
    81  H    0.137985
    82  H    0.089543
    83  H    0.091147
    84  H    0.068104
    85  H    0.072194
    86  H    0.068288
    87  H    0.068951
    88  H    0.083954
    89  H    0.135729
    90  H    0.103854
    91  H    0.121418
    92  H    0.133085
    93  H    0.136572
    94  H    0.100873
    95  H    0.084972
    96  H    0.084217
    97  H    0.086482
    98  H    0.084140
 Sum of Mulliken charges =  -0.00000

 Dipole moment (field-independent basis, Debye):
    X=              1.7232    Y=             -1.5354    Z=              2.1990  Tot=              3.1878
 Quadrupole moment (field-independent basis, Debye-Ang):
   XX=           -261.1024   YY=           -247.1246   ZZ=           -261.0624
   XY=             13.4300   XZ=              9.8013   YZ=              0.9012

 Normal termination of Gaussian 16 at Wed Jul 10 22:39:04 2019.
