 Gaussian 16, Revision A.03,
 Gaussian 16:  ES64L-G16RevA.03 25-Dec-2016

 -------------------------------------
 # td=(NStates=1) CAM-B3LYP/6-31G(d,p)
 -------------------------------------

 --
 TD
 --
 Symbolic Z-matrix:
 Charge =  0 Multiplicity = 1

                         Standard orientation:
 ---------------------------------------------------------------------
 Center     Atomic      Atomic             Coordinates (Angstroms)
 Number     Number       Type             X           Y           Z
 ---------------------------------------------------------------------
      1          8           0       14.747252   -2.135813   -0.202432
      2          8           0      -14.847852    1.971244    0.548509
      3          6           0       11.399978   -1.031134    1.190569
      4          6           0      -12.306907   -0.937999    0.838846
      5          6           0       12.879176   -1.221311    1.133160
      6          6           0      -13.683630   -0.152923    0.798246
      7          6           0       13.398684   -1.918904   -0.145318
      8          6           0      -13.564011    1.303899    0.713960
      9          6           0       10.928092   -0.337716   -0.115194
     10          6           0      -11.284435   -0.298963   -0.176524
     11          6           0       13.065722   -0.981741   -1.330167
     12          6           0      -12.768945    1.717222   -0.559668
     13          6           0       11.755802   -0.244128   -1.122222
     14          6           0      -11.499641    0.822599   -0.776319
     15          6           0       11.148378   -0.133456    2.487030
     16          6           0       10.740929   -2.307701    1.569560
     17          6           0      -11.863673   -0.699559    2.247050
     18          6           0      -12.622871   -2.400896    0.578885
     19          6           0        9.614556    0.286764   -0.030339
     20          6           0      -10.112877   -1.053722   -0.278229
     21          6           0       11.331072    0.454012   -2.401969
     22          6           0      -10.512125    1.482154   -1.786779
     23          6           0        9.286137    1.589890   -0.152504
     24          6           0       -8.869508   -0.560524   -0.091145
     25          6           0        8.033770    2.245242    0.038890
     26          6           0       -7.597854   -1.316018   -0.447587
     27          6           0        8.011269    3.731018    0.521852
     28          6           0       -7.708851   -2.787026   -1.091312
     29          6           0        6.846941    1.556262   -0.097267
     30          6           0       -6.356265   -0.634035   -0.126458
     31          6           0        5.519874    1.930256    0.139533
     32          6           0       -5.057738   -1.151984   -0.465821
     33          6           0        4.425963    1.187259   -0.243316
     34          6           0       -4.007973   -0.397786   -0.245357
     35          6           0        3.023498    1.550642    0.096651
     36          6           0       -2.614325   -0.830392   -0.429291
     37          6           0        2.866258    2.967532    0.411309
     38          6           0       -2.293233   -2.028315   -1.256297
     39          6           0        2.099299    0.698902   -0.027070
     40          6           0       -1.625019    0.040209   -0.229175
     41          6           0        0.653791    0.831803   -0.016938
     42          6           0       -0.180708   -0.106659   -0.389758
     43          1           0       13.408756   -0.278748    1.338942
     44          1           0       13.189347   -2.048944    1.830918
     45          1           0      -14.078628   -0.667666    1.696933
     46          1           0      -14.295447   -0.341893   -0.064440
     47          1           0       12.759386   -2.780876   -0.243601
     48          1           0      -12.937455    1.882188    1.624132
     49          1           0       13.873746   -0.304169   -1.559632
     50          1           0       13.073073   -1.564560   -2.198426
     51          1           0      -13.319048    1.466003   -1.519989
     52          1           0      -12.512664    2.716651   -0.475290
     53          1           0       11.810772   -0.322615    3.384360
     54          1           0       10.000768   -0.049813    2.696043
     55          1           0       11.417809    1.010053    2.207245
     56          1           0       10.362372   -3.124546    0.782872
     57          1           0       11.354544   -2.561194    2.502326
     58          1           0        9.702086   -2.407676    1.949726
     59          1           0      -11.758840    0.216840    2.376677
     60          1           0      -11.057540   -1.360613    2.582214
     61          1           0      -12.519853   -1.036192    2.954503
     62          1           0      -13.259633   -2.776734    1.511079
     63          1           0      -11.631669   -3.081683    0.432254
     64          1           0      -12.950771   -2.665100   -0.470313
     65          1           0        8.823717   -0.293748    0.335788
     66          1           0      -10.329345   -1.879324   -0.787459
     67          1           0       10.273604    0.809972   -2.253815
     68          1           0       12.019381    1.240125   -2.500059
     69          1           0       11.331327   -0.318405   -3.141463
     70          1           0      -10.902892    1.895771   -2.640561
     71          1           0       -9.678778    0.818244   -1.999127
     72          1           0       -9.774157    2.248185   -1.520897
     73          1           0       14.886050   -2.839337    0.507854
     74          1           0      -15.583265    2.060160    1.243072
     75          1           0       10.192462    2.142148   -0.593804
     76          1           0       -8.695268    0.448377    0.305225
     77          1           0        8.774630    4.368183    0.050459
     78          1           0        7.035658    4.233490    0.442085
     79          1           0        8.526831    3.647973    1.579473
     80          1           0       -8.252233   -3.434984   -0.417482
     81          1           0       -8.345281   -2.655327   -1.950154
     82          1           0       -6.594816   -3.135494   -1.423311
     83          1           0        6.920958    0.608336   -0.494033
     84          1           0       -6.467421    0.360652    0.714627
     85          1           0        5.196383    2.967059    0.526963
     86          1           0       -4.953091   -2.099990   -0.935477
     87          1           0        4.593885    0.121579   -0.532558
     88          1           0       -4.100664    0.637334    0.420834
     89          1           0        3.141107    3.180744    1.497228
     90          1           0        1.707376    3.265782    0.230566
     91          1           0        3.261511    3.708437   -0.303269
     92          1           0       -2.454337   -2.897471   -0.486623
     93          1           0       -2.842946   -2.261504   -2.108312
     94          1           0       -1.240570   -2.121298   -1.509491
     95          1           0        2.251249   -0.369363   -0.432443
     96          1           0       -1.935211    1.000223    0.381159
     97          1           0        0.208243    1.810226    0.255477
     98          1           0        0.187969   -1.045562   -0.968726
 ---------------------------------------------------------------------

 SCF Done:  E(RCAM-B3LYP) =  -1706.95933429     A.U. after   14 cycles

 Excitation energies and oscillator strengths:

 Excited State   1:      Singlet-A      3.0431 eV  407.43 nm  f=3.6600  <S**2>=0.000
     155 ->158        -0.22413
     156 ->157         0.65914
 This state for optimization and/or second-order correction.
 Total Energy, E(TD-HF/TD-DFT) =  -1706.84750392
 Copying the excited state density for this state as the 1-particle RhoCI density.

 The electronic state is 1-A.
 Alpha  occ. eigenvalues --  -19.22443 -19.20145 -10.31970 -10.29573 -10.28840
 Alpha  occ. eigenvalues --  -10.28623 -10.27817 -10.27582 -10.27532 -10.27081
 Alpha  occ. eigenvalues --  -10.27017 -10.26955 -10.26817 -10.26738 -10.26737
 Alpha  occ. eigenvalues --  -10.26684 -10.26590 -10.26498 -10.26455 -10.26310
 Alpha  occ. eigenvalues --  -10.26283 -10.26269 -10.26225 -10.26032 -10.25981
 Alpha  occ. eigenvalues --  -10.25859 -10.25720 -10.25709 -10.25577 -10.25507
 Alpha  occ. eigenvalues --  -10.25446 -10.25378 -10.25006 -10.24995 -10.24545
 Alpha  occ. eigenvalues --  -10.24155 -10.24102 -10.24065 -10.23948 -10.23621
 Alpha  occ. eigenvalues --  -10.23476 -10.21502  -1.11266  -1.06014  -0.94037
 Alpha  occ. eigenvalues --   -0.93811  -0.92690  -0.91650  -0.90517  -0.89004
 Alpha  occ. eigenvalues --   -0.87935  -0.87535  -0.86483  -0.85618  -0.84800
 Alpha  occ. eigenvalues --   -0.83053  -0.82347  -0.79911  -0.79653  -0.77811
 Alpha  occ. eigenvalues --   -0.77295  -0.76513  -0.76191  -0.75890  -0.75554
 Alpha  occ. eigenvalues --   -0.75277  -0.74881  -0.74131  -0.74064  -0.70424
 Alpha  occ. eigenvalues --   -0.69212  -0.67181  -0.65846  -0.64998  -0.64284
 Alpha  occ. eigenvalues --   -0.63542  -0.62545  -0.61029  -0.60447  -0.59751
 Alpha  occ. eigenvalues --   -0.59613  -0.59525  -0.57387  -0.56899  -0.56442
 Alpha  occ. eigenvalues --   -0.56097  -0.55930  -0.55402  -0.54701  -0.53521
 Alpha  occ. eigenvalues --   -0.53003  -0.52313  -0.52101  -0.51891  -0.51601
 Alpha  occ. eigenvalues --   -0.50555  -0.50224  -0.49934  -0.49880  -0.49703
 Alpha  occ. eigenvalues --   -0.48819  -0.48578  -0.48350  -0.48150  -0.47929
 Alpha  occ. eigenvalues --   -0.47804  -0.47446  -0.47125  -0.46562  -0.46197
 Alpha  occ. eigenvalues --   -0.45783  -0.45711  -0.45409  -0.45227  -0.44415
 Alpha  occ. eigenvalues --   -0.44221  -0.44005  -0.43939  -0.43775  -0.43377
 Alpha  occ. eigenvalues --   -0.42880  -0.42415  -0.42020  -0.41787  -0.41525
 Alpha  occ. eigenvalues --   -0.41454  -0.41053  -0.40975  -0.40683  -0.40500
 Alpha  occ. eigenvalues --   -0.40325  -0.39715  -0.39424  -0.39317  -0.38772
 Alpha  occ. eigenvalues --   -0.38668  -0.38626  -0.38300  -0.38174  -0.37992
 Alpha  occ. eigenvalues --   -0.37694  -0.37141  -0.35758  -0.35625  -0.35119
 Alpha  occ. eigenvalues --   -0.34435  -0.34055  -0.33058  -0.32170  -0.31624
 Alpha  occ. eigenvalues --   -0.31399  -0.29735  -0.29082  -0.27351  -0.23782
 Alpha  occ. eigenvalues --   -0.21512
 Alpha virt. eigenvalues --   -0.03389  -0.00551   0.03400   0.07016   0.08794
 Alpha virt. eigenvalues --    0.10014   0.10714   0.11250   0.11592   0.11752
 Alpha virt. eigenvalues --    0.12095   0.12392   0.12758   0.12937   0.13731

 Mulliken charges:
               1
     1  O   -0.539201
     2  O   -0.600707
     3  C    0.002034
     4  C   -0.032972
     5  C   -0.183643
     6  C   -0.158385
     7  C    0.161871
     8  C    0.183168
     9  C    0.079437
    10  C    0.042839
    11  C   -0.221711
    12  C   -0.197541
    13  C    0.015205
    14  C    0.027890
    15  C   -0.305641
    16  C   -0.296371
    17  C   -0.274693
    18  C   -0.303762
    19  C   -0.129640
    20  C   -0.110316
    21  C   -0.353616
    22  C   -0.382088
    23  C   -0.104730
    24  C   -0.087046
    25  C    0.088225
    26  C    0.053049
    27  C   -0.362295
    28  C   -0.355619
    29  C   -0.116504
    30  C   -0.132152
    31  C   -0.072856
    32  C   -0.070292
    33  C   -0.129137
    34  C   -0.094054
    35  C    0.161074
    36  C    0.108396
    37  C   -0.394126
    38  C   -0.371794
    39  C   -0.144233
    40  C   -0.135974
    41  C   -0.073815
    42  C   -0.080728
    43  H    0.102452
    44  H    0.056625
    45  H    0.079953
    46  H    0.103070
    47  H    0.082384
    48  H    0.046940
    49  H    0.116585
    50  H    0.114765
    51  H    0.114298
    52  H    0.121115
    53  H    0.107699
    54  H    0.101058
    55  H    0.081555
    56  H    0.083818
    57  H    0.098383
    58  H    0.099276
    59  H    0.109065
    60  H    0.099646
    61  H    0.098211
    62  H    0.092390
    63  H    0.075287
    64  H    0.108408
    65  H    0.082780
    66  H    0.089539
    67  H    0.109265
    68  H    0.118737
    69  H    0.112921
    70  H    0.113005
    71  H    0.114748
    72  H    0.106052
    73  H    0.305147
    74  H    0.311134
    75  H    0.078372
    76  H    0.091098
    77  H    0.118024
    78  H    0.119678
    79  H    0.112628
    80  H    0.136431
    81  H    0.130368
    82  H    0.096245
    83  H    0.077030
    84  H    0.074109
    85  H    0.079553
    86  H    0.091055
    87  H    0.075669
    88  H    0.069923
    89  H    0.127006
    90  H    0.083840
    91  H    0.134371
    92  H    0.099722
    93  H    0.128543
    94  H    0.109918
    95  H    0.071228
    96  H    0.064381
    97  H    0.083435
    98  H    0.083518
 Sum of Mulliken charges =  -0.00000

 Dipole moment (field-independent basis, Debye):
    X=             -0.0128    Y=             -1.4361    Z=              1.4680  Tot=              2.0537
 Quadrupole moment (field-independent basis, Debye-Ang):
   XX=           -266.5062   YY=           -244.2128   ZZ=           -258.6941
   XY=              3.6739   XZ=             -2.9525   YZ=              4.6035

 Normal termination of Gaussian 16 at Tue Jul  2 12:39:13 2019.
