 Gaussian 16, Revision A.03,
 Gaussian 16:  ES64L-G16RevA.03 25-Dec-2016

 -------------------------------------
 # td=(NStates=1) CAM-B3LYP/6-31G(d,p)
 -------------------------------------

 --
 TD
 --
 Symbolic Z-matrix:
 Charge =  0 Multiplicity = 1

                         Standard orientation:
 ---------------------------------------------------------------------
 Center     Atomic      Atomic             Coordinates (Angstroms)
 Number     Number       Type             X           Y           Z
 ---------------------------------------------------------------------
      1          8           0       14.769514   -2.098543   -0.628315
      2          8           0      -14.915659    2.026504    0.333517
      3          6           0       11.530832   -1.176080    1.102546
      4          6           0      -12.336814   -0.827333    0.785817
      5          6           0       13.052691   -1.436324    0.849478
      6          6           0      -13.759182   -0.190849    0.606729
      7          6           0       13.372792   -1.869531   -0.562908
      8          6           0      -13.678936    1.412977    0.545383
      9          6           0       11.000988   -0.212413   -0.030924
     10          6           0      -11.373428   -0.200597   -0.255382
     11          6           0       12.961770   -0.671669   -1.522992
     12          6           0      -12.787102    1.725370   -0.711241
     13          6           0       11.655020    0.001102   -1.206534
     14          6           0      -11.537084    0.962518   -0.873408
     15          6           0       11.375007   -0.607771    2.531853
     16          6           0       10.847098   -2.652880    1.003576
     17          6           0      -11.757699   -0.689978    2.262620
     18          6           0      -12.530645   -2.426315    0.515341
     19          6           0        9.723997    0.396909    0.281906
     20          6           0      -10.032063   -1.072730   -0.351402
     21          6           0       11.037581    0.756661   -2.375785
     22          6           0      -10.549173    1.526747   -1.975271
     23          6           0        9.263205    1.713879    0.024822
     24          6           0       -8.856399   -0.594780   -0.148588
     25          6           0        7.948692    2.343196    0.246583
     26          6           0       -7.568530   -1.401964   -0.374760
     27          6           0        8.000384    3.770495    0.402006
     28          6           0       -7.715672   -2.775482   -0.822646
     29          6           0        6.906412    1.528955    0.266695
     30          6           0       -6.464472   -0.755132   -0.214210
     31          6           0        5.585870    2.033243    0.427545
     32          6           0       -5.094308   -1.315415   -0.381593
     33          6           0        4.465637    1.253409    0.112555
     34          6           0       -4.003526   -0.496717   -0.264612
     35          6           0        3.085273    1.611408    0.374193
     36          6           0       -2.570041   -0.913273   -0.375516
     37          6           0        2.731587    3.025076    0.845117
     38          6           0       -2.360490   -2.321337   -0.615138
     39          6           0        2.067200    0.742198    0.002435
     40          6           0       -1.713463    0.062543   -0.234194
     41          6           0        0.720424    0.797935    0.098044
     42          6           0       -0.211041   -0.092885   -0.242637
     43          1           0       13.564363   -0.503727    0.883374
     44          1           0       13.410691   -2.177139    1.809890
     45          1           0      -14.171532   -0.653724    1.567374
     46          1           0      -13.909094   -0.579009   -0.258398
     47          1           0       12.925823   -2.627611   -0.921096
     48          1           0      -13.245452    1.751875    1.345890
     49          1           0       13.716090    0.122007   -1.347980
     50          1           0       13.112535   -0.822516   -2.500344
     51          1           0      -13.412902    1.702990   -1.685267
     52          1           0      -12.515071    2.902514   -0.793359
     53          1           0       11.962852   -1.273216    3.021406
     54          1           0       10.363775   -0.718987    3.067171
     55          1           0       11.910836    0.395749    2.617922
     56          1           0       10.959518   -2.944742   -0.154484
     57          1           0       11.235789   -3.363752    1.599608
     58          1           0        9.780257   -2.484151    0.829582
     59          1           0      -11.498668    0.371667    2.479882
     60          1           0      -10.907569   -1.223501    2.507807
     61          1           0      -12.307936   -1.165585    3.144820
     62          1           0      -13.192588   -2.891408    1.313599
     63          1           0      -11.523031   -2.738947    0.698199
     64          1           0      -12.799099   -2.719563   -0.480973
     65          1           0        8.885604   -0.342452    0.859848
     66          1           0      -10.209075   -2.141705   -0.756752
     67          1           0        9.953151    0.813636   -2.063470
     68          1           0       11.364243    1.897841   -2.714103
     69          1           0       11.150432    0.211523   -3.276781
     70          1           0      -10.998438    1.541385   -3.113416
     71          1           0       -9.568247    0.787452   -1.804165
     72          1           0      -10.289455    2.624960   -1.616106
     73          1           0       14.835535   -2.738469    0.020168
     74          1           0      -15.399273    1.492943    0.886183
     75          1           0       10.061754    2.305233   -0.343553
     76          1           0       -8.714610    0.373140    0.228000
     77          1           0        8.406533    4.120290   -0.619083
     78          1           0        6.903520    4.349880    0.888101
     79          1           0        8.921580    4.075620    1.066244
     80          1           0       -8.569294   -3.031452   -0.137425
     81          1           0       -8.272471   -2.836804   -1.844450
     82          1           0       -6.732478   -3.202708   -0.784451
     83          1           0        6.933867    0.483113    0.090035
     84          1           0       -6.350544    0.390331    0.174735
     85          1           0        5.297138    3.053367    0.769841
     86          1           0       -5.079603   -2.275190   -1.001907
     87          1           0        4.889938    0.149927    0.008193
     88          1           0       -4.336481    0.630647   -0.174859
     89          1           0        2.865828    3.142193    1.888895
     90          1           0        1.725326    3.314728    0.731235
     91          1           0        3.164638    3.851144    0.258261
     92          1           0       -3.052024   -2.895276   -0.037197
     93          1           0       -2.500355   -2.723557   -1.673129
     94          1           0       -1.153950   -2.711756   -0.318614
     95          1           0        2.604011   -0.126262   -0.471744
     96          1           0       -2.015873    1.134187    0.073680
     97          1           0        0.271099    1.696691    0.642951
     98          1           0        0.123196   -0.976495   -0.694411
 ---------------------------------------------------------------------

 SCF Done:  E(RCAM-B3LYP) =  -1706.89674135     A.U. after   14 cycles

 Excitation energies and oscillator strengths:

 Excited State   1:      Singlet-A      2.8157 eV  440.33 nm  f=3.2143  <S**2>=0.000
     155 ->158        -0.16066
     156 ->157         0.68306
 This state for optimization and/or second-order correction.
 Total Energy, E(TD-HF/TD-DFT) =  -1706.79326638
 Copying the excited state density for this state as the 1-particle RhoCI density.

 The electronic state is 1-A.
 Alpha  occ. eigenvalues --  -19.20617 -19.20592 -10.29803 -10.29439 -10.29111
 Alpha  occ. eigenvalues --  -10.28743 -10.28636 -10.28266 -10.28086 -10.28048
 Alpha  occ. eigenvalues --  -10.27723 -10.27479 -10.27441 -10.27239 -10.27189
 Alpha  occ. eigenvalues --  -10.26905 -10.26882 -10.26712 -10.26650 -10.26638
 Alpha  occ. eigenvalues --  -10.26564 -10.26554 -10.26423 -10.26367 -10.26328
 Alpha  occ. eigenvalues --  -10.26292 -10.26232 -10.26164 -10.26100 -10.26053
 Alpha  occ. eigenvalues --  -10.25970 -10.25715 -10.25677 -10.25572 -10.25258
 Alpha  occ. eigenvalues --  -10.25214 -10.25209 -10.24947 -10.24942 -10.24858
 Alpha  occ. eigenvalues --  -10.24835 -10.24533  -1.11817  -1.11340  -0.93275
 Alpha  occ. eigenvalues --   -0.92841  -0.92235  -0.92002  -0.91229  -0.90334
 Alpha  occ. eigenvalues --   -0.87070  -0.86764  -0.85934  -0.85241  -0.84758
 Alpha  occ. eigenvalues --   -0.83017  -0.81971  -0.79744  -0.79671  -0.78424
 Alpha  occ. eigenvalues --   -0.76755  -0.76640  -0.76461  -0.76207  -0.75810
 Alpha  occ. eigenvalues --   -0.75335  -0.75203  -0.74647  -0.73562  -0.70202
 Alpha  occ. eigenvalues --   -0.69109  -0.68369  -0.66289  -0.65317  -0.63784
 Alpha  occ. eigenvalues --   -0.63405  -0.61913  -0.60922  -0.60787  -0.59928
 Alpha  occ. eigenvalues --   -0.59322  -0.58974  -0.58571  -0.57473  -0.56459
 Alpha  occ. eigenvalues --   -0.55735  -0.55424  -0.54954  -0.53969  -0.53400
 Alpha  occ. eigenvalues --   -0.52348  -0.52212  -0.51519  -0.51290  -0.50868
 Alpha  occ. eigenvalues --   -0.50555  -0.50221  -0.50080  -0.49596  -0.49434
 Alpha  occ. eigenvalues --   -0.49168  -0.48975  -0.48354  -0.48202  -0.47762
 Alpha  occ. eigenvalues --   -0.47717  -0.47568  -0.47309  -0.46994  -0.46296
 Alpha  occ. eigenvalues --   -0.45905  -0.45801  -0.45492  -0.45224  -0.44954
 Alpha  occ. eigenvalues --   -0.44885  -0.44663  -0.44279  -0.44022  -0.43418
 Alpha  occ. eigenvalues --   -0.43053  -0.42622  -0.42512  -0.42325  -0.42206
 Alpha  occ. eigenvalues --   -0.41903  -0.41701  -0.41395  -0.41166  -0.40323
 Alpha  occ. eigenvalues --   -0.40167  -0.39820  -0.39734  -0.39397  -0.39261
 Alpha  occ. eigenvalues --   -0.38917  -0.38666  -0.38400  -0.38005  -0.37866
 Alpha  occ. eigenvalues --   -0.37542  -0.37006  -0.36655  -0.36448  -0.35646
 Alpha  occ. eigenvalues --   -0.35023  -0.34308  -0.33236  -0.32759  -0.32292
 Alpha  occ. eigenvalues --   -0.32000  -0.30150  -0.28652  -0.26855  -0.24747
 Alpha  occ. eigenvalues --   -0.21045
 Alpha virt. eigenvalues --   -0.04099   0.00159   0.02928   0.05767   0.07405
 Alpha virt. eigenvalues --    0.09175   0.10194   0.10990   0.11644   0.12004
 Alpha virt. eigenvalues --    0.12067   0.12689   0.13035   0.13260   0.13928

 Mulliken charges:
               1
     1  O   -0.544872
     2  O   -0.529100
     3  C   -0.013473
     4  C   -0.041171
     5  C   -0.199341
     6  C   -0.200546
     7  C    0.184157
     8  C    0.178932
     9  C    0.036418
    10  C    0.029556
    11  C   -0.251100
    12  C   -0.247589
    13  C    0.076286
    14  C    0.080298
    15  C   -0.290822
    16  C   -0.307419
    17  C   -0.319564
    18  C   -0.320679
    19  C   -0.115700
    20  C   -0.171926
    21  C   -0.368591
    22  C   -0.333845
    23  C   -0.143069
    24  C   -0.057234
    25  C    0.155126
    26  C    0.104966
    27  C   -0.368240
    28  C   -0.361010
    29  C   -0.116355
    30  C   -0.127632
    31  C   -0.077451
    32  C   -0.118584
    33  C   -0.140965
    34  C   -0.125190
    35  C    0.094055
    36  C    0.167095
    37  C   -0.388312
    38  C   -0.378122
    39  C   -0.112060
    40  C   -0.138688
    41  C   -0.066321
    42  C   -0.095237
    43  H    0.116101
    44  H    0.049864
    45  H    0.087668
    46  H    0.113322
    47  H    0.089769
    48  H    0.091773
    49  H    0.123420
    50  H    0.110523
    51  H    0.113996
    52  H    0.079902
    53  H    0.105653
    54  H    0.101089
    55  H    0.102308
    56  H    0.081236
    57  H    0.116554
    58  H    0.109890
    59  H    0.104099
    60  H    0.118875
    61  H    0.086520
    62  H    0.097823
    63  H    0.111357
    64  H    0.110649
    65  H    0.065486
    66  H    0.090097
    67  H    0.126251
    68  H    0.088334
    69  H    0.115806
    70  H    0.102476
    71  H    0.105326
    72  H    0.099031
    73  H    0.296883
    74  H    0.298716
    75  H    0.086991
    76  H    0.094082
    77  H    0.126070
    78  H    0.091180
    79  H    0.118628
    80  H    0.120782
    81  H    0.117711
    82  H    0.109726
    83  H    0.089499
    84  H    0.066278
    85  H    0.080529
    86  H    0.089643
    87  H    0.072810
    88  H    0.085829
    89  H    0.127332
    90  H    0.116476
    91  H    0.119036
    92  H    0.133779
    93  H    0.124032
    94  H    0.077701
    95  H    0.074367
    96  H    0.084087
    97  H    0.070642
    98  H    0.075314
 Sum of Mulliken charges =  -0.00000

 Dipole moment (field-independent basis, Debye):
    X=              0.9789    Y=             -1.7237    Z=              1.4149  Tot=              2.4355
 Quadrupole moment (field-independent basis, Debye-Ang):
   XX=           -286.3409   YY=           -246.6077   ZZ=           -259.6720
   XY=             19.7211   XZ=             -2.0138   YZ=              1.6190

 Normal termination of Gaussian 16 at Fri Jun 28 14:59:11 2019.
