 Gaussian 16, Revision A.03,
 Gaussian 16:  ES64L-G16RevA.03 25-Dec-2016

 -------------------------------------
 # td=(NStates=1) CAM-B3LYP/6-31G(d,p)
 -------------------------------------

 --
 TD
 --
 Symbolic Z-matrix:
 Charge =  0 Multiplicity = 1

                         Standard orientation:
 ---------------------------------------------------------------------
 Center     Atomic      Atomic             Coordinates (Angstroms)
 Number     Number       Type             X           Y           Z
 ---------------------------------------------------------------------
      1          8           0       14.772828   -2.234185   -0.394874
      2          8           0      -14.833384    1.865808    0.655636
      3          6           0       11.454305   -1.091147    1.241798
      4          6           0      -12.351467   -1.021820    0.725888
      5          6           0       13.000357   -1.386955    1.109965
      6          6           0      -13.690844   -0.258708    0.598513
      7          6           0       13.374494   -1.901986   -0.242570
      8          6           0      -13.463955    1.267697    0.756834
      9          6           0       10.971641   -0.325245   -0.034109
     10          6           0      -11.293101   -0.338035   -0.172465
     11          6           0       13.032977   -1.006090   -1.345050
     12          6           0      -12.741512    1.760596   -0.490729
     13          6           0       11.650381   -0.273012   -1.197759
     14          6           0      -11.491337    0.854932   -0.791902
     15          6           0       11.425089   -0.220261    2.539556
     16          6           0       10.703896   -2.360965    1.284481
     17          6           0      -11.871521   -1.087901    2.205840
     18          6           0      -12.719205   -2.480875    0.169031
     19          6           0        9.686391    0.319947    0.160830
     20          6           0      -10.100036   -1.044114   -0.397276
     21          6           0       11.124354    0.249224   -2.483722
     22          6           0      -10.514252    1.503395   -1.716188
     23          6           0        9.346260    1.530450   -0.179020
     24          6           0       -8.887986   -0.585944   -0.171422
     25          6           0        8.021384    2.251226    0.069414
     26          6           0       -7.560703   -1.240333   -0.357091
     27          6           0        8.005423    3.672300    0.472541
     28          6           0       -7.690621   -2.685236   -0.881887
     29          6           0        6.892850    1.477257   -0.060920
     30          6           0       -6.459542   -0.607402   -0.138949
     31          6           0        5.534514    1.953487    0.117189
     32          6           0       -5.054931   -1.048650   -0.411842
     33          6           0        4.430678    1.231932   -0.137717
     34          6           0       -4.027644   -0.207501   -0.139926
     35          6           0        3.128149    1.691832    0.029567
     36          6           0       -2.608300   -0.618620   -0.361528
     37          6           0        2.895246    3.019768    0.620380
     38          6           0       -2.488467   -1.985906   -0.857929
     39          6           0        2.125537    0.822860   -0.179654
     40          6           0       -1.626692    0.353565   -0.156205
     41          6           0        0.680820    1.072614   -0.043774
     42          6           0       -0.232435    0.132542   -0.290985
     43          1           0       13.377109   -0.476561    1.344928
     44          1           0       13.136285   -1.990781    1.863850
     45          1           0      -14.477773   -0.840789    1.254893
     46          1           0      -14.136818   -0.327204   -0.390995
     47          1           0       12.782962   -2.713663   -0.487740
     48          1           0      -13.057526    1.430790    1.584327
     49          1           0       13.889780   -0.119682   -1.444839
     50          1           0       13.068541   -1.507901   -2.206194
     51          1           0      -13.435610    1.799059   -1.351700
     52          1           0      -12.378562    2.816602   -0.388004
     53          1           0       11.702677   -0.708426    3.344536
     54          1           0       10.318055   -0.000172    2.828119
     55          1           0       11.901872    0.699929    2.437894
     56          1           0       10.753536   -2.876686    0.369754
     57          1           0       11.290088   -3.004427    2.131129
     58          1           0        9.557480   -2.210330    1.645696
     59          1           0      -11.400700   -0.157387    2.745303
     60          1           0      -10.867625   -1.740969    2.321088
     61          1           0      -12.810563   -1.453541    2.814422
     62          1           0      -13.673632   -2.714244    0.956399
     63          1           0      -11.984082   -3.301746    0.466834
     64          1           0      -13.188353   -2.528139   -0.777520
     65          1           0        8.810667   -0.289178    0.806936
     66          1           0      -10.241406   -2.176632   -0.902719
     67          1           0       10.046019    0.574881   -2.346189
     68          1           0       11.723003    1.105163   -2.884329
     69          1           0       11.093729   -0.418613   -3.356352
     70          1           0      -11.075276    2.417570   -2.413121
     71          1           0       -9.959897    0.777378   -2.439942
     72          1           0       -9.773565    2.118723   -1.034689
     73          1           0       15.031430   -2.621089    0.536133
     74          1           0      -15.235577    1.715883    1.571444
     75          1           0       10.151463    2.340748   -0.597318
     76          1           0       -8.696318    0.472627    0.098892
     77          1           0        8.642160    4.147094    0.039838
     78          1           0        7.082381    4.120498    0.245559
     79          1           0        8.350808    3.695126    1.635332
     80          1           0       -8.640744   -3.331328   -0.537129
     81          1           0       -7.665071   -2.640898   -2.122073
     82          1           0       -6.603986   -3.267457   -0.805190
     83          1           0        7.038233    0.406306   -0.441706
     84          1           0       -6.530974    0.533563    0.101859
     85          1           0        5.277958    2.917749    0.594807
     86          1           0       -4.836821   -1.924960   -0.735877
     87          1           0        4.520857    0.244582   -0.464325
     88          1           0       -4.137678    0.784373    0.110439
     89          1           0        2.923601    3.065692    1.744796
     90          1           0        1.661061    3.252472    0.269999
     91          1           0        3.831868    3.560940    0.060414
     92          1           0       -2.585630   -2.737307    0.097303
     93          1           0       -3.136681   -2.227997   -1.802390
     94          1           0       -1.315231   -2.147111   -1.164423
     95          1           0        2.426487   -0.296122   -0.442562
     96          1           0       -2.025411    1.314143    0.228632
     97          1           0        0.206912    1.986798    0.553162
     98          1           0        0.097768   -0.933846   -0.520732
 ---------------------------------------------------------------------

 SCF Done:  E(RCAM-B3LYP) =  -1706.89932504     A.U. after   13 cycles

 Excitation energies and oscillator strengths:

 Excited State   1:      Singlet-A      2.9381 eV  421.99 nm  f=3.4971  <S**2>=0.000
     155 ->158         0.16307
     156 ->157         0.68149
 This state for optimization and/or second-order correction.
 Total Energy, E(TD-HF/TD-DFT) =  -1706.79135243
 Copying the excited state density for this state as the 1-particle RhoCI density.

 The electronic state is 1-A.
 Alpha  occ. eigenvalues --  -19.21370 -19.20668 -10.29136 -10.29043 -10.28942
 Alpha  occ. eigenvalues --  -10.28674 -10.28372 -10.27992 -10.27869 -10.27679
 Alpha  occ. eigenvalues --  -10.27654 -10.27595 -10.27369 -10.27338 -10.26990
 Alpha  occ. eigenvalues --  -10.26906 -10.26893 -10.26852 -10.26842 -10.26752
 Alpha  occ. eigenvalues --  -10.26740 -10.26737 -10.26681 -10.26590 -10.26353
 Alpha  occ. eigenvalues --  -10.26339 -10.26171 -10.26033 -10.25976 -10.25872
 Alpha  occ. eigenvalues --  -10.25836 -10.25817 -10.25732 -10.25384 -10.25324
 Alpha  occ. eigenvalues --  -10.25245 -10.25076 -10.24973 -10.24609 -10.24491
 Alpha  occ. eigenvalues --  -10.24049 -10.23142  -1.07527  -1.06161  -0.93984
 Alpha  occ. eigenvalues --   -0.93285  -0.92789  -0.91874  -0.90391  -0.90003
 Alpha  occ. eigenvalues --   -0.87824  -0.87419  -0.86193  -0.85696  -0.85055
 Alpha  occ. eigenvalues --   -0.83377  -0.81750  -0.81135  -0.79309  -0.77978
 Alpha  occ. eigenvalues --   -0.77612  -0.76850  -0.76527  -0.75255  -0.75013
 Alpha  occ. eigenvalues --   -0.74831  -0.74490  -0.74081  -0.73798  -0.70325
 Alpha  occ. eigenvalues --   -0.68360  -0.67599  -0.66177  -0.64760  -0.64183
 Alpha  occ. eigenvalues --   -0.63198  -0.62653  -0.61404  -0.60264  -0.59891
 Alpha  occ. eigenvalues --   -0.59076  -0.57923  -0.57497  -0.56589  -0.56570
 Alpha  occ. eigenvalues --   -0.55368  -0.55299  -0.54320  -0.54110  -0.53873
 Alpha  occ. eigenvalues --   -0.53100  -0.52839  -0.52054  -0.51330  -0.51121
 Alpha  occ. eigenvalues --   -0.50786  -0.49799  -0.49507  -0.49460  -0.49057
 Alpha  occ. eigenvalues --   -0.48725  -0.48278  -0.48061  -0.47714  -0.47651
 Alpha  occ. eigenvalues --   -0.47422  -0.47112  -0.46898  -0.46467  -0.46068
 Alpha  occ. eigenvalues --   -0.45700  -0.45557  -0.45380  -0.44871  -0.44502
 Alpha  occ. eigenvalues --   -0.44412  -0.43954  -0.43702  -0.43429  -0.43070
 Alpha  occ. eigenvalues --   -0.42746  -0.42674  -0.42580  -0.42412  -0.41975
 Alpha  occ. eigenvalues --   -0.41809  -0.41717  -0.41541  -0.40973  -0.40650
 Alpha  occ. eigenvalues --   -0.40257  -0.39980  -0.39760  -0.39556  -0.39492
 Alpha  occ. eigenvalues --   -0.39089  -0.38671  -0.38557  -0.38163  -0.37721
 Alpha  occ. eigenvalues --   -0.37476  -0.37409  -0.36785  -0.36459  -0.35313
 Alpha  occ. eigenvalues --   -0.35231  -0.34454  -0.33949  -0.32286  -0.32045
 Alpha  occ. eigenvalues --   -0.31192  -0.29860  -0.28206  -0.26795  -0.24712
 Alpha  occ. eigenvalues --   -0.21346
 Alpha virt. eigenvalues --   -0.03875   0.00418   0.03277   0.05733   0.07916
 Alpha virt. eigenvalues --    0.09624   0.10489   0.10591   0.11227   0.11493
 Alpha virt. eigenvalues --    0.11721   0.12251   0.12346   0.12653   0.12818

 Mulliken charges:
               1
     1  O   -0.574238
     2  O   -0.573597
     3  C   -0.045080
     4  C   -0.010287
     5  C   -0.180461
     6  C   -0.185285
     7  C    0.184404
     8  C    0.162652
     9  C    0.056063
    10  C    0.066339
    11  C   -0.202697
    12  C   -0.220470
    13  C    0.054845
    14  C    0.063809
    15  C   -0.308226
    16  C   -0.273964
    17  C   -0.295329
    18  C   -0.294592
    19  C   -0.108625
    20  C   -0.152521
    21  C   -0.377049
    22  C   -0.350568
    23  C   -0.108834
    24  C   -0.076969
    25  C    0.054292
    26  C    0.170458
    27  C   -0.324797
    28  C   -0.362841
    29  C   -0.119801
    30  C   -0.165917
    31  C   -0.129796
    32  C   -0.060341
    33  C   -0.061031
    34  C   -0.090778
    35  C    0.130664
    36  C    0.123434
    37  C   -0.347200
    38  C   -0.382147
    39  C   -0.146784
    40  C   -0.132329
    41  C   -0.104019
    42  C   -0.068103
    43  H    0.108092
    44  H    0.082718
    45  H    0.068760
    46  H    0.110225
    47  H    0.082350
    48  H    0.091306
    49  H    0.082775
    50  H    0.117071
    51  H    0.129195
    52  H    0.105144
    53  H    0.112838
    54  H    0.083684
    55  H    0.120491
    56  H    0.124354
    57  H    0.069285
    58  H    0.088369
    59  H    0.100053
    60  H    0.098074
    61  H    0.091533
    62  H    0.057767
    63  H    0.102612
    64  H    0.126753
    65  H    0.078725
    66  H    0.077348
    67  H    0.116731
    68  H    0.110485
    69  H    0.111659
    70  H    0.070963
    71  H    0.121340
    72  H    0.110197
    73  H    0.303556
    74  H    0.299091
    75  H    0.072646
    76  H    0.073215
    77  H    0.120987
    78  H    0.117542
    79  H    0.102928
    80  H    0.114486
    81  H    0.098390
    82  H    0.086223
    83  H    0.085733
    84  H    0.073534
    85  H    0.086890
    86  H    0.067256
    87  H    0.069804
    88  H    0.072492
    89  H    0.132145
    90  H    0.081226
    91  H    0.094740
    92  H    0.118606
    93  H    0.127836
    94  H    0.083619
    95  H    0.075331
    96  H    0.083294
    97  H    0.088945
    98  H    0.086304
 Sum of Mulliken charges =  -0.00000

 Dipole moment (field-independent basis, Debye):
    X=              0.5319    Y=             -0.8932    Z=              2.6743  Tot=              2.8693
 Quadrupole moment (field-independent basis, Debye-Ang):
   XX=           -294.7471   YY=           -252.7417   ZZ=           -256.8377
   XY=             12.6045   XZ=              7.1411   YZ=              3.4495

 Normal termination of Gaussian 16 at Sun Jul  7 19:24:08 2019.
