 Gaussian 16, Revision A.03,
 Gaussian 16:  ES64L-G16RevA.03 25-Dec-2016

 -------------------------------------
 # td=(NStates=1) CAM-B3LYP/6-31G(d,p)
 -------------------------------------

 --
 TD
 --
 Symbolic Z-matrix:
 Charge =  0 Multiplicity = 1

                         Standard orientation:
 ---------------------------------------------------------------------
 Center     Atomic      Atomic             Coordinates (Angstroms)
 Number     Number       Type             X           Y           Z
 ---------------------------------------------------------------------
      1          8           0       14.616151   -2.364896   -0.473724
      2          8           0      -14.691860    1.993658    0.825236
      3          6           0       11.383518   -1.066640    1.194896
      4          6           0      -12.243533   -1.052729    0.624097
      5          6           0       12.827022   -1.464659    1.021417
      6          6           0      -13.637259   -0.210630    0.721373
      7          6           0       13.218034   -1.964421   -0.300694
      8          6           0      -13.446442    1.330232    0.821424
      9          6           0       10.884390   -0.375199   -0.013351
     10          6           0      -11.279967   -0.332444   -0.195756
     11          6           0       12.957449   -0.876371   -1.296219
     12          6           0      -12.710608    1.708810   -0.439203
     13          6           0       11.539998   -0.283394   -1.174286
     14          6           0      -11.401608    0.799409   -0.823943
     15          6           0       11.228580   -0.357517    2.457973
     16          6           0       10.507482   -2.354870    1.326979
     17          6           0      -11.597168   -1.036356    2.063060
     18          6           0      -12.645475   -2.405616    0.296818
     19          6           0        9.588983    0.241708    0.228637
     20          6           0      -10.060398   -1.091227   -0.501264
     21          6           0       11.188570    0.369655   -2.410976
     22          6           0      -10.583059    1.535255   -1.789491
     23          6           0        9.352305    1.482010   -0.120782
     24          6           0       -8.892977   -0.579279   -0.301338
     25          6           0        8.062187    2.192842    0.087467
     26          6           0       -7.643292   -1.323133   -0.573323
     27          6           0        8.156210    3.676501    0.468374
     28          6           0       -7.675822   -2.749083   -1.080802
     29          6           0        6.872293    1.581705   -0.119004
     30          6           0       -6.417527   -0.675679   -0.328852
     31          6           0        5.556719    2.112591    0.201074
     32          6           0       -5.033768   -1.151458   -0.299725
     33          6           0        4.459904    1.413814   -0.084290
     34          6           0       -4.017023   -0.396072   -0.161552
     35          6           0        3.030975    1.887607    0.073876
     36          6           0       -2.593116   -0.720121   -0.248964
     37          6           0        2.853325    3.315768    0.483790
     38          6           0       -2.313824   -2.194949   -0.423036
     39          6           0        2.098145    0.919502   -0.105668
     40          6           0       -1.578493    0.254012   -0.201019
     41          6           0        0.688870    1.000294   -0.038001
     42          6           0       -0.217633    0.018181   -0.248387
     43          1           0       13.467164   -0.683173    1.393371
     44          1           0       12.944559   -2.236078    1.834621
     45          1           0      -14.233707   -0.732384    1.447033
     46          1           0      -14.368993   -0.437230   -0.157370
     47          1           0       12.625914   -2.889891   -0.694107
     48          1           0      -12.954528    1.488285    1.736359
     49          1           0       13.703741    0.027877   -1.166017
     50          1           0       13.008763   -1.253990   -2.286343
     51          1           0      -13.219861    1.751436   -1.281768
     52          1           0      -12.109667    2.760877   -0.537133
     53          1           0       11.575405   -0.841144    3.456238
     54          1           0       10.124866   -0.053063    2.617119
     55          1           0       11.663058    0.608504    2.706159
     56          1           0       10.837463   -2.742241    0.391578
     57          1           0       11.078694   -2.922660    2.073717
     58          1           0        9.458337   -2.147834    1.453023
     59          1           0      -11.349623   -0.049590    2.349151
     60          1           0      -10.766532   -1.604798    2.069564
     61          1           0      -12.556591   -1.338457    2.729979
     62          1           0      -13.576207   -2.676535    0.869782
     63          1           0      -11.920593   -3.267510    0.887634
     64          1           0      -12.767152   -2.393537   -0.868701
     65          1           0        8.791431   -0.291870    0.793060
     66          1           0      -10.102431   -2.142012   -0.633711
     67          1           0       10.281282    0.778859   -2.448242
     68          1           0       11.751238    1.298615   -2.280420
     69          1           0       11.351188   -0.286893   -3.330594
     70          1           0      -11.371578    1.905932   -2.612544
     71          1           0       -9.828556    1.015555   -2.429299
     72          1           0       -9.960438    2.363444   -1.450409
     73          1           0       14.729866   -3.083209    0.171150
     74          1           0      -15.295806    1.778729    1.553428
     75          1           0       10.031469    2.086877   -0.390131
     76          1           0       -8.778987    0.529063   -0.232981
     77          1           0        8.622414    4.236412   -0.362739
     78          1           0        6.990107    3.863177    0.621455
     79          1           0        8.835443    3.909706    1.313360
     80          1           0       -8.106168   -3.265593   -0.434934
     81          1           0       -8.058590   -2.662647   -2.153340
     82          1           0       -6.652153   -2.921119   -1.091607
     83          1           0        6.841820    0.608551   -0.613299
     84          1           0       -6.587112    0.310417    0.293690
     85          1           0        5.399376    3.145608    0.601861
     86          1           0       -4.787505   -2.263506   -0.502468
     87          1           0        4.518441    0.200888   -0.364322
     88          1           0       -4.326180    0.655225   -0.072345
     89          1           0        3.353018    3.369612    1.463298
     90          1           0        1.763118    3.528226    0.514013
     91          1           0        3.518033    4.128715   -0.105209
     92          1           0       -2.697948   -2.856811    0.400788
     93          1           0       -2.771937   -2.519590   -1.426282
     94          1           0       -1.216623   -2.328621   -0.686962
     95          1           0        2.665117    0.015073   -0.348697
     96          1           0       -2.011724    1.324208    0.082922
     97          1           0        0.144760    1.999741    0.114661
     98          1           0        0.110972   -0.896009   -0.537106
 ---------------------------------------------------------------------

 SCF Done:  E(RCAM-B3LYP) =  -1706.98293417     A.U. after   14 cycles

 Excitation energies and oscillator strengths:

 Excited State   1:      Singlet-A      2.9175 eV  424.97 nm  f=3.5820  <S**2>=0.000
     155 ->158         0.16096
     156 ->157         0.68370
 This state for optimization and/or second-order correction.
 Total Energy, E(TD-HF/TD-DFT) =  -1706.87571777
 Copying the excited state density for this state as the 1-particle RhoCI density.

 The electronic state is 1-A.
 Alpha  occ. eigenvalues --  -19.21020 -19.20657 -10.30818 -10.30733 -10.27811
 Alpha  occ. eigenvalues --  -10.27643 -10.27369 -10.27319 -10.27295 -10.27081
 Alpha  occ. eigenvalues --  -10.27076 -10.26973 -10.26784 -10.26693 -10.26688
 Alpha  occ. eigenvalues --  -10.26640 -10.26557 -10.26449 -10.26347 -10.26251
 Alpha  occ. eigenvalues --  -10.26111 -10.26027 -10.25990 -10.25981 -10.25570
 Alpha  occ. eigenvalues --  -10.25463 -10.25413 -10.25278 -10.25188 -10.25181
 Alpha  occ. eigenvalues --  -10.25000 -10.24982 -10.24923 -10.24832 -10.24822
 Alpha  occ. eigenvalues --  -10.24542 -10.24470 -10.24236 -10.24216 -10.24025
 Alpha  occ. eigenvalues --  -10.23754 -10.23705  -1.08994  -1.08172  -0.95493
 Alpha  occ. eigenvalues --   -0.94471  -0.92128  -0.91436  -0.90562  -0.89872
 Alpha  occ. eigenvalues --   -0.88653  -0.88088  -0.87207  -0.86253  -0.85009
 Alpha  occ. eigenvalues --   -0.83759  -0.82473  -0.81005  -0.80756  -0.78424
 Alpha  occ. eigenvalues --   -0.77279  -0.77217  -0.76421  -0.76378  -0.75696
 Alpha  occ. eigenvalues --   -0.75656  -0.75372  -0.74248  -0.74019  -0.70223
 Alpha  occ. eigenvalues --   -0.68859  -0.67948  -0.65934  -0.65215  -0.64957
 Alpha  occ. eigenvalues --   -0.64434  -0.62695  -0.61751  -0.59874  -0.59593
 Alpha  occ. eigenvalues --   -0.59192  -0.59092  -0.58170  -0.57591  -0.56592
 Alpha  occ. eigenvalues --   -0.56113  -0.55590  -0.55074  -0.54831  -0.53901
 Alpha  occ. eigenvalues --   -0.53702  -0.52917  -0.52455  -0.52157  -0.51348
 Alpha  occ. eigenvalues --   -0.51123  -0.50994  -0.50691  -0.50005  -0.49701
 Alpha  occ. eigenvalues --   -0.49520  -0.49307  -0.49247  -0.48686  -0.48215
 Alpha  occ. eigenvalues --   -0.47717  -0.47563  -0.47084  -0.46875  -0.46567
 Alpha  occ. eigenvalues --   -0.46473  -0.46237  -0.46050  -0.45235  -0.44977
 Alpha  occ. eigenvalues --   -0.44680  -0.44456  -0.43923  -0.43639  -0.43170
 Alpha  occ. eigenvalues --   -0.42910  -0.42760  -0.42543  -0.42109  -0.41968
 Alpha  occ. eigenvalues --   -0.41737  -0.41383  -0.41242  -0.40582  -0.40336
 Alpha  occ. eigenvalues --   -0.40139  -0.40076  -0.39936  -0.39686  -0.39169
 Alpha  occ. eigenvalues --   -0.38987  -0.38652  -0.38297  -0.38102  -0.37953
 Alpha  occ. eigenvalues --   -0.37689  -0.37206  -0.36519  -0.36308  -0.35869
 Alpha  occ. eigenvalues --   -0.35720  -0.34714  -0.33726  -0.32671  -0.32342
 Alpha  occ. eigenvalues --   -0.31127  -0.29664  -0.28357  -0.26522  -0.24511
 Alpha  occ. eigenvalues --   -0.21073
 Alpha virt. eigenvalues --   -0.03797   0.00775   0.03325   0.06728   0.08890
 Alpha virt. eigenvalues --    0.10338   0.11245   0.11616   0.12176   0.12232
 Alpha virt. eigenvalues --    0.12472   0.12984   0.13061   0.13221   0.13843

 Mulliken charges:
               1
     1  O   -0.568514
     2  O   -0.571240
     3  C   -0.044250
     4  C   -0.019130
     5  C   -0.196313
     6  C   -0.220049
     7  C    0.160083
     8  C    0.195890
     9  C    0.100058
    10  C    0.083728
    11  C   -0.195969
    12  C   -0.204543
    13  C    0.012076
    14  C    0.054476
    15  C   -0.304425
    16  C   -0.277524
    17  C   -0.286508
    18  C   -0.289233
    19  C   -0.115408
    20  C   -0.150986
    21  C   -0.347538
    22  C   -0.379996
    23  C   -0.066232
    24  C   -0.062868
    25  C    0.039275
    26  C    0.046352
    27  C   -0.353654
    28  C   -0.331574
    29  C   -0.107885
    30  C   -0.160108
    31  C   -0.098403
    32  C   -0.076467
    33  C   -0.123106
    34  C   -0.088932
    35  C    0.130065
    36  C    0.093304
    37  C   -0.378372
    38  C   -0.382587
    39  C   -0.122527
    40  C   -0.129668
    41  C   -0.105689
    42  C   -0.040537
    43  H    0.114860
    44  H    0.069041
    45  H    0.078071
    46  H    0.084154
    47  H    0.077389
    48  H    0.087991
    49  H    0.103994
    50  H    0.106145
    51  H    0.129025
    52  H    0.078712
    53  H    0.087417
    54  H    0.090589
    55  H    0.100861
    56  H    0.102322
    57  H    0.095773
    58  H    0.112231
    59  H    0.109691
    60  H    0.118883
    61  H    0.070668
    62  H    0.107058
    63  H    0.066791
    64  H    0.107285
    65  H    0.091662
    66  H    0.085974
    67  H    0.120901
    68  H    0.123330
    69  H    0.107903
    70  H    0.093662
    71  H    0.119177
    72  H    0.128172
    73  H    0.302016
    74  H    0.305849
    75  H    0.056905
    76  H    0.083236
    77  H    0.119620
    78  H    0.093688
    79  H    0.117803
    80  H    0.129058
    81  H    0.118575
    82  H    0.110910
    83  H    0.086710
    84  H    0.073226
    85  H    0.087542
    86  H    0.076042
    87  H    0.066940
    88  H    0.070849
    89  H    0.132797
    90  H    0.114559
    91  H    0.109693
    92  H    0.129357
    93  H    0.115173
    94  H    0.101633
    95  H    0.077321
    96  H    0.077448
    97  H    0.078458
    98  H    0.079787
 Sum of Mulliken charges =  -0.00000

 Dipole moment (field-independent basis, Debye):
    X=             -0.6502    Y=             -1.0594    Z=              1.7840  Tot=              2.1743
 Quadrupole moment (field-independent basis, Debye-Ang):
   XX=           -267.5556   YY=           -249.1742   ZZ=           -259.0792
   XY=             17.8826   XZ=             -0.8232   YZ=              0.4976

 Normal termination of Gaussian 16 at Mon Jul  1 10:10:47 2019.
