 Gaussian 16, Revision A.03,
 Gaussian 16:  ES64L-G16RevA.03 25-Dec-2016

 -------------------------------------
 # td=(NStates=1) CAM-B3LYP/6-31G(d,p)
 -------------------------------------

 --
 TD
 --
 Symbolic Z-matrix:
 Charge =  0 Multiplicity = 1

                         Standard orientation:
 ---------------------------------------------------------------------
 Center     Atomic      Atomic             Coordinates (Angstroms)
 Number     Number       Type             X           Y           Z
 ---------------------------------------------------------------------
      1          8           0       14.604596   -2.170867   -0.550007
      2          8           0      -14.800532    2.009901    0.514103
      3          6           0       11.455227   -1.149669    1.184999
      4          6           0      -12.361029   -0.971161    0.875181
      5          6           0       12.819610   -1.505379    0.986800
      6          6           0      -13.647550   -0.175464    0.805942
      7          6           0       13.219308   -2.026964   -0.244984
      8          6           0      -13.545992    1.324469    0.599746
      9          6           0       11.008886   -0.289583    0.059387
     10          6           0      -11.243406   -0.387533   -0.141716
     11          6           0       12.946458   -1.093998   -1.407671
     12          6           0      -12.858354    1.677370   -0.633745
     13          6           0       11.645871   -0.258903   -1.164736
     14          6           0      -11.551134    0.816767   -0.832079
     15          6           0       11.219180   -0.273777    2.466137
     16          6           0       10.586042   -2.405086    1.392497
     17          6           0      -11.698992   -0.807953    2.303846
     18          6           0      -12.582895   -2.383584    0.487220
     19          6           0        9.680925    0.379284    0.246926
     20          6           0      -10.070852   -1.214710   -0.354400
     21          6           0       11.124059    0.458226   -2.409536
     22          6           0      -10.703789    1.354452   -1.982725
     23          6           0        9.395355    1.690922    0.011544
     24          6           0       -8.839287   -0.547130   -0.208439
     25          6           0        8.167495    2.295152    0.206441
     26          6           0       -7.615253   -1.248451   -0.381766
     27          6           0        8.141516    3.754052    0.446635
     28          6           0       -7.677961   -2.685200   -0.747636
     29          6           0        7.006298    1.587359    0.062560
     30          6           0       -6.421648   -0.631195   -0.281336
     31          6           0        5.618689    2.114458    0.328687
     32          6           0       -5.065147   -1.069657   -0.457849
     33          6           0        4.501612    1.336132   -0.059395
     34          6           0       -3.895247   -0.376017   -0.198615
     35          6           0        3.111807    1.695003   -0.005264
     36          6           0       -2.538741   -0.778020   -0.451340
     37          6           0        2.802147    3.121741    0.479229
     38          6           0       -2.388770   -2.140653   -0.948661
     39          6           0        2.156294    0.752211   -0.133380
     40          6           0       -1.607860    0.209923   -0.267816
     41          6           0        0.694674    1.004043   -0.026443
     42          6           0       -0.175091    0.018830   -0.370980
     43          1           0       13.474574   -0.672039    1.030571
     44          1           0       13.079878   -2.131710    1.880431
     45          1           0      -14.440259   -0.307167    1.667048
     46          1           0      -14.167546   -0.479107   -0.123397
     47          1           0       12.645959   -3.029422   -0.429457
     48          1           0      -13.022544    1.879896    1.462968
     49          1           0       13.959424   -0.508506   -1.357630
     50          1           0       12.895508   -1.719116   -2.368828
     51          1           0      -13.588347    1.672612   -1.396258
     52          1           0      -12.352294    2.593819   -0.536360
     53          1           0       11.661677   -0.539717    3.381263
     54          1           0       10.144186   -0.099215    2.744874
     55          1           0       11.660922    0.582196    2.310668
     56          1           0       10.432582   -3.008337    0.532545
     57          1           0       10.945596   -3.130703    2.124585
     58          1           0        9.518285   -2.079656    1.441509
     59          1           0      -11.698404    0.144637    2.480669
     60          1           0      -10.899201   -1.507579    2.460040
     61          1           0      -12.479266   -1.161465    3.138089
     62          1           0      -13.389594   -2.749834    1.090240
     63          1           0      -11.895385   -3.207808    0.671600
     64          1           0      -12.773696   -2.328669   -0.725041
     65          1           0        9.007767   -0.161486    0.992202
     66          1           0       -9.791149   -2.364122   -0.440015
     67          1           0        9.988525    0.639818   -2.254841
     68          1           0       11.729708    1.464110   -2.425062
     69          1           0       11.623263   -0.100582   -3.285328
     70          1           0      -11.193372    1.105561   -2.966000
     71          1           0       -9.843585    0.618922   -1.996798
     72          1           0      -10.280262    2.322736   -1.701707
     73          1           0       15.048284   -3.102350   -0.071473
     74          1           0      -15.194730    1.960856    1.388633
     75          1           0       10.143820    2.332220   -0.430363
     76          1           0       -8.801557    0.471646    0.200028
     77          1           0        9.122833    4.406757   -0.137533
     78          1           0        7.151636    4.211321    0.313613
     79          1           0        8.405903    4.036545    1.543220
     80          1           0       -8.492132   -3.245793   -0.180767
     81          1           0       -8.120711   -2.743320   -1.804666
     82          1           0       -6.747616   -3.317683   -0.720289
     83          1           0        7.242859    0.618574   -0.205313
     84          1           0       -6.323954    0.428564   -0.061572
     85          1           0        5.341157    3.154711    0.577017
     86          1           0       -5.190230   -2.143266   -0.716245
     87          1           0        4.826538    0.349441   -0.343682
     88          1           0       -4.262879    0.702151    0.047120
     89          1           0        3.286794    3.099509    1.413781
     90          1           0        1.623760    3.185362    0.692779
     91          1           0        3.078779    3.912503   -0.304580
     92          1           0       -2.546239   -2.942500   -0.036965
     93          1           0       -3.177175   -2.378153   -1.813968
     94          1           0       -1.200451   -2.108810   -1.315028
     95          1           0        2.202922   -0.561161   -0.189706
     96          1           0       -2.201581    1.086912    0.097764
     97          1           0        0.275137    1.917707    0.252312
     98          1           0        0.248635   -0.803911   -0.709054
 ---------------------------------------------------------------------

 SCF Done:  E(RCAM-B3LYP) =  -1706.92842799     A.U. after   14 cycles

 Excitation energies and oscillator strengths:

 Excited State   1:      Singlet-A      2.6371 eV  470.15 nm  f=3.7512  <S**2>=0.000
     155 ->158         0.21248
     156 ->157         0.66627
 This state for optimization and/or second-order correction.
 Total Energy, E(TD-HF/TD-DFT) =  -1706.83151500
 Copying the excited state density for this state as the 1-particle RhoCI density.

 The electronic state is 1-A.
 Alpha  occ. eigenvalues --  -19.22803 -19.20907 -10.30093 -10.29826 -10.28840
 Alpha  occ. eigenvalues --  -10.28705 -10.27771 -10.27671 -10.27469 -10.27432
 Alpha  occ. eigenvalues --  -10.27404 -10.27301 -10.27264 -10.27177 -10.27168
 Alpha  occ. eigenvalues --  -10.27111 -10.27072 -10.26990 -10.26966 -10.26917
 Alpha  occ. eigenvalues --  -10.26778 -10.26556 -10.26473 -10.26356 -10.26323
 Alpha  occ. eigenvalues --  -10.26230 -10.26092 -10.25987 -10.25939 -10.25837
 Alpha  occ. eigenvalues --  -10.25771 -10.25712 -10.25580 -10.25546 -10.25265
 Alpha  occ. eigenvalues --  -10.25130 -10.24746 -10.24341 -10.24056 -10.23966
 Alpha  occ. eigenvalues --  -10.23333 -10.22707  -1.09425  -1.07964  -0.94813
 Alpha  occ. eigenvalues --   -0.92997  -0.92377  -0.91797  -0.91320  -0.90581
 Alpha  occ. eigenvalues --   -0.87432  -0.86573  -0.86161  -0.85504  -0.85014
 Alpha  occ. eigenvalues --   -0.83100  -0.82090  -0.79694  -0.79367  -0.77499
 Alpha  occ. eigenvalues --   -0.77209  -0.76725  -0.76210  -0.75884  -0.75795
 Alpha  occ. eigenvalues --   -0.75483  -0.75325  -0.74656  -0.73722  -0.70343
 Alpha  occ. eigenvalues --   -0.68868  -0.67280  -0.65320  -0.65030  -0.63851
 Alpha  occ. eigenvalues --   -0.63084  -0.63001  -0.61866  -0.60034  -0.59697
 Alpha  occ. eigenvalues --   -0.59476  -0.59044  -0.58802  -0.57671  -0.56566
 Alpha  occ. eigenvalues --   -0.55801  -0.55223  -0.54537  -0.54186  -0.53272
 Alpha  occ. eigenvalues --   -0.52881  -0.52685  -0.51951  -0.51615  -0.50885
 Alpha  occ. eigenvalues --   -0.50545  -0.50492  -0.50417  -0.49992  -0.49679
 Alpha  occ. eigenvalues --   -0.49063  -0.48733  -0.48070  -0.47920  -0.47767
 Alpha  occ. eigenvalues --   -0.47550  -0.47178  -0.46348  -0.46147  -0.45981
 Alpha  occ. eigenvalues --   -0.45689  -0.45427  -0.45210  -0.44989  -0.44525
 Alpha  occ. eigenvalues --   -0.44141  -0.43640  -0.43559  -0.43297  -0.43091
 Alpha  occ. eigenvalues --   -0.42816  -0.42469  -0.42395  -0.42258  -0.42037
 Alpha  occ. eigenvalues --   -0.41739  -0.41371  -0.41188  -0.40801  -0.40676
 Alpha  occ. eigenvalues --   -0.40294  -0.40084  -0.39951  -0.39571  -0.39245
 Alpha  occ. eigenvalues --   -0.38537  -0.38318  -0.38260  -0.37733  -0.37542
 Alpha  occ. eigenvalues --   -0.37525  -0.37333  -0.37032  -0.36225  -0.35591
 Alpha  occ. eigenvalues --   -0.35099  -0.34095  -0.33493  -0.32953  -0.32406
 Alpha  occ. eigenvalues --   -0.31952  -0.29782  -0.27876  -0.26042  -0.23152
 Alpha  occ. eigenvalues --   -0.20770
 Alpha virt. eigenvalues --   -0.04613  -0.01257   0.02304   0.05306   0.07535
 Alpha virt. eigenvalues --    0.08692   0.09285   0.10606   0.11187   0.11848
 Alpha virt. eigenvalues --    0.11915   0.12588   0.12749   0.13024   0.13318

 Mulliken charges:
               1
     1  O   -0.563797
     2  O   -0.562433
     3  C   -0.014213
     4  C    0.005111
     5  C   -0.158056
     6  C   -0.180725
     7  C    0.172176
     8  C    0.154896
     9  C    0.068856
    10  C    0.037248
    11  C   -0.227344
    12  C   -0.183936
    13  C    0.035388
    14  C   -0.010290
    15  C   -0.301341
    16  C   -0.306693
    17  C   -0.280791
    18  C   -0.298756
    19  C   -0.160972
    20  C   -0.139521
    21  C   -0.351892
    22  C   -0.359195
    23  C   -0.103503
    24  C   -0.096603
    25  C    0.132636
    26  C    0.152957
    27  C   -0.364265
    28  C   -0.414707
    29  C   -0.119726
    30  C   -0.146846
    31  C   -0.119421
    32  C   -0.071986
    33  C   -0.088137
    34  C   -0.139576
    35  C    0.061676
    36  C    0.147284
    37  C   -0.361393
    38  C   -0.352033
    39  C   -0.114746
    40  C   -0.122444
    41  C   -0.060929
    42  C   -0.079491
    43  H    0.096218
    44  H    0.074728
    45  H    0.068834
    46  H    0.102446
    47  H    0.056901
    48  H    0.060461
    49  H    0.127922
    50  H    0.107355
    51  H    0.129376
    52  H    0.115399
    53  H    0.092947
    54  H    0.098407
    55  H    0.115989
    56  H    0.104970
    57  H    0.106420
    58  H    0.093540
    59  H    0.113621
    60  H    0.114879
    61  H    0.057389
    62  H    0.102498
    63  H    0.101945
    64  H    0.084360
    65  H    0.091262
    66  H    0.092942
    67  H    0.125578
    68  H    0.107125
    69  H    0.104607
    70  H    0.117480
    71  H    0.113017
    72  H    0.115418
    73  H    0.289818
    74  H    0.301371
    75  H    0.093140
    76  H    0.098763
    77  H    0.071414
    78  H    0.115583
    79  H    0.111174
    80  H    0.115937
    81  H    0.127478
    82  H    0.119628
    83  H    0.082824
    84  H    0.058785
    85  H    0.089688
    86  H    0.052633
    87  H    0.084391
    88  H    0.075065
    89  H    0.144612
    90  H    0.094686
    91  H    0.125070
    92  H    0.112008
    93  H    0.122020
    94  H    0.083806
    95  H    0.072552
    96  H    0.093045
    97  H    0.083419
    98  H    0.074587
 Sum of Mulliken charges =  -0.00000

 Dipole moment (field-independent basis, Debye):
    X=              0.6653    Y=             -1.8305    Z=              2.2699  Tot=              2.9910
 Quadrupole moment (field-independent basis, Debye-Ang):
   XX=           -271.9404   YY=           -243.4951   ZZ=           -262.8942
   XY=             -2.2425   XZ=             -4.4448   YZ=              3.6315

 Normal termination of Gaussian 16 at Mon Jul  8 09:57:05 2019.
