 Gaussian 16, Revision A.03,
 Gaussian 16:  ES64L-G16RevA.03 25-Dec-2016

 -------------------------------------
 # td=(NStates=1) CAM-B3LYP/6-31G(d,p)
 -------------------------------------

 --
 TD
 --
 Symbolic Z-matrix:
 Charge =  0 Multiplicity = 1

                         Standard orientation:
 ---------------------------------------------------------------------
 Center     Atomic      Atomic             Coordinates (Angstroms)
 Number     Number       Type             X           Y           Z
 ---------------------------------------------------------------------
      1          8           0       14.530325   -2.458273   -0.435521
      2          8           0      -14.865686    1.833058    0.462548
      3          6           0       11.338252   -1.244822    1.110815
      4          6           0      -12.295010   -0.925258    0.803614
      5          6           0       12.853857   -1.568340    1.053480
      6          6           0      -13.689242   -0.275586    0.651973
      7          6           0       13.177714   -2.007908   -0.256413
      8          6           0      -13.573213    1.285658    0.608074
      9          6           0       10.897372   -0.271667   -0.032964
     10          6           0      -11.352911   -0.337956   -0.099052
     11          6           0       12.992223   -0.868022   -1.282580
     12          6           0      -12.699140    1.623791   -0.613613
     13          6           0       11.579399   -0.149929   -1.182688
     14          6           0      -11.453388    0.845292   -0.817788
     15          6           0       11.035230   -0.586126    2.506063
     16          6           0       10.394749   -2.526917    1.089916
     17          6           0      -11.824597   -0.772561    2.206818
     18          6           0      -12.537487   -2.412892    0.598908
     19          6           0        9.632961    0.433744    0.059546
     20          6           0      -10.026931   -1.093466   -0.436815
     21          6           0       11.164482    0.566425   -2.411954
     22          6           0      -10.623987    1.384254   -1.932211
     23          6           0        9.466723    1.742455   -0.163688
     24          6           0       -8.742935   -0.558544   -0.184434
     25          6           0        8.031443    2.446210    0.110075
     26          6           0       -7.549451   -1.357260   -0.334960
     27          6           0        8.178590    3.930209    0.551895
     28          6           0       -7.689653   -2.768113   -0.835135
     29          6           0        6.988820    1.647898   -0.029421
     30          6           0       -6.289661   -0.613218   -0.363684
     31          6           0        5.592851    2.014487    0.203461
     32          6           0       -4.961182   -1.063334   -0.531128
     33          6           0        4.528535    1.248971    0.144861
     34          6           0       -3.940560   -0.286591   -0.321288
     35          6           0        3.157224    1.638107    0.309785
     36          6           0       -2.624463   -0.663178   -0.498690
     37          6           0        2.874188    3.077365    0.689370
     38          6           0       -2.331503   -1.948825   -1.113327
     39          6           0        2.148375    0.799774    0.050640
     40          6           0       -1.636790    0.196826   -0.105639
     41          6           0        0.730941    1.037428    0.140881
     42          6           0       -0.178893    0.049721   -0.236807
     43          1           0       13.335862   -0.615019    1.468449
     44          1           0       13.295290   -2.324649    1.753246
     45          1           0      -14.086636   -0.659980    1.675166
     46          1           0      -14.269407   -0.547637   -0.139855
     47          1           0       12.541215   -3.017275   -0.630364
     48          1           0      -13.051507    1.781885    1.394909
     49          1           0       13.802439   -0.152487   -1.216207
     50          1           0       13.079459   -1.090910   -2.522067
     51          1           0      -13.229983    1.537052   -1.570032
     52          1           0      -12.554774    2.744538   -0.466228
     53          1           0       11.177608   -1.541226    3.236019
     54          1           0        9.995045   -0.285851    2.586391
     55          1           0       11.703909    0.298634    2.841002
     56          1           0       10.302644   -2.916248    0.137009
     57          1           0       10.817925   -3.456013    1.768006
     58          1           0        9.228929   -2.286135    1.373360
     59          1           0      -11.941759    0.401415    2.505973
     60          1           0      -10.881136   -1.224982    2.273491
     61          1           0      -12.531731   -1.184333    3.027570
     62          1           0      -13.318406   -2.650344    1.283851
     63          1           0      -11.596178   -2.880955    0.864236
     64          1           0      -12.811218   -2.899952   -0.386472
     65          1           0        8.777127   -0.048973    0.589145
     66          1           0      -10.221141   -2.118994   -0.337706
     67          1           0       10.193314    0.881251   -2.204406
     68          1           0       11.726802    1.476384   -2.581258
     69          1           0       11.429725   -0.045274   -3.381599
     70          1           0      -11.149157    1.900425   -2.762369
     71          1           0       -9.892783    0.720729   -2.444739
     72          1           0       -9.802192    2.070907   -1.620030
     73          1           0       14.722642   -3.212582    0.070963
     74          1           0      -15.220930    1.923436    1.448195
     75          1           0       10.404331    2.328217   -0.337700
     76          1           0       -8.465420    0.457496    0.292222
     77          1           0        8.576600    4.464947   -0.345369
     78          1           0        7.163685    4.431194    0.734226
     79          1           0        8.573777    3.984889    1.541102
     80          1           0       -7.833075   -3.556901   -0.084920
     81          1           0       -8.642633   -2.812879   -1.503520
     82          1           0       -6.793054   -3.159785   -1.378056
     83          1           0        7.201697    0.580080   -0.365297
     84          1           0       -6.261976    0.527777   -0.138734
     85          1           0        5.663776    3.086508    0.396996
     86          1           0       -5.037280   -2.147855   -0.640077
     87          1           0        4.755913    0.215265   -0.044179
     88          1           0       -4.119046    0.709330    0.010558
     89          1           0        3.492774    3.135258    1.638861
     90          1           0        1.896920    3.301909    1.001834
     91          1           0        3.316753    3.881361    0.116571
     92          1           0       -2.401533   -3.047142   -0.487478
     93          1           0       -3.013400   -2.129965   -2.140027
     94          1           0       -1.213926   -1.933154   -1.372935
     95          1           0        2.504352   -0.271835   -0.103035
     96          1           0       -1.790782    1.322325    0.250623
     97          1           0        0.480493    1.994587    0.449272
     98          1           0        0.195333   -0.945354   -0.376190
 ---------------------------------------------------------------------

 SCF Done:  E(RCAM-B3LYP) =  -1707.01324712     A.U. after   14 cycles

 Excitation energies and oscillator strengths:

 Excited State   1:      Singlet-A      2.6376 eV  470.06 nm  f=3.4749  <S**2>=0.000
     155 ->158         0.15723
     156 ->157         0.68432
 This state for optimization and/or second-order correction.
 Total Energy, E(TD-HF/TD-DFT) =  -1706.91631627
 Copying the excited state density for this state as the 1-particle RhoCI density.

 The electronic state is 1-A.
 Alpha  occ. eigenvalues --  -19.21467 -19.20101 -10.31787 -10.29592 -10.29116
 Alpha  occ. eigenvalues --  -10.28603 -10.28403 -10.27894 -10.27734 -10.27460
 Alpha  occ. eigenvalues --  -10.27293 -10.27205 -10.27185 -10.27117 -10.27057
 Alpha  occ. eigenvalues --  -10.27052 -10.26995 -10.26873 -10.26603 -10.26544
 Alpha  occ. eigenvalues --  -10.26221 -10.26177 -10.26149 -10.26136 -10.26133
 Alpha  occ. eigenvalues --  -10.26074 -10.26071 -10.26031 -10.26006 -10.25954
 Alpha  occ. eigenvalues --  -10.25763 -10.25636 -10.25469 -10.25389 -10.25249
 Alpha  occ. eigenvalues --  -10.25180 -10.25028 -10.24721 -10.24625 -10.24339
 Alpha  occ. eigenvalues --  -10.24252 -10.24110  -1.09252  -1.08167  -0.93976
 Alpha  occ. eigenvalues --   -0.93593  -0.93131  -0.92275  -0.90147  -0.89402
 Alpha  occ. eigenvalues --   -0.87766  -0.87230  -0.86780  -0.85210  -0.84466
 Alpha  occ. eigenvalues --   -0.82743  -0.81931  -0.80734  -0.78777  -0.77828
 Alpha  occ. eigenvalues --   -0.77293  -0.76256  -0.75986  -0.75710  -0.75262
 Alpha  occ. eigenvalues --   -0.74972  -0.74745  -0.74544  -0.73804  -0.70865
 Alpha  occ. eigenvalues --   -0.68468  -0.67150  -0.65872  -0.64528  -0.63941
 Alpha  occ. eigenvalues --   -0.63799  -0.62804  -0.61911  -0.60887  -0.60509
 Alpha  occ. eigenvalues --   -0.59151  -0.58321  -0.58128  -0.57230  -0.55822
 Alpha  occ. eigenvalues --   -0.55446  -0.55000  -0.54602  -0.54380  -0.53662
 Alpha  occ. eigenvalues --   -0.53209  -0.52685  -0.52190  -0.51830  -0.51282
 Alpha  occ. eigenvalues --   -0.51097  -0.50394  -0.49694  -0.49500  -0.48894
 Alpha  occ. eigenvalues --   -0.48684  -0.48096  -0.48009  -0.47944  -0.47690
 Alpha  occ. eigenvalues --   -0.47309  -0.46867  -0.46774  -0.46720  -0.46679
 Alpha  occ. eigenvalues --   -0.46317  -0.45813  -0.45269  -0.44837  -0.44629
 Alpha  occ. eigenvalues --   -0.44383  -0.43932  -0.43836  -0.43335  -0.43270
 Alpha  occ. eigenvalues --   -0.42847  -0.42799  -0.42423  -0.41935  -0.41891
 Alpha  occ. eigenvalues --   -0.41555  -0.41332  -0.41190  -0.40393  -0.40269
 Alpha  occ. eigenvalues --   -0.40120  -0.39917  -0.39720  -0.39531  -0.39469
 Alpha  occ. eigenvalues --   -0.39430  -0.39164  -0.38428  -0.38267  -0.38213
 Alpha  occ. eigenvalues --   -0.38073  -0.37696  -0.36243  -0.35849  -0.35376
 Alpha  occ. eigenvalues --   -0.34971  -0.34458  -0.33814  -0.32397  -0.32305
 Alpha  occ. eigenvalues --   -0.30826  -0.29816  -0.27731  -0.26355  -0.24125
 Alpha  occ. eigenvalues --   -0.20698
 Alpha virt. eigenvalues --   -0.04873  -0.00368   0.02580   0.05803   0.07638
 Alpha virt. eigenvalues --    0.09290   0.10371   0.10850   0.11155   0.11456
 Alpha virt. eigenvalues --    0.12482   0.12947   0.13107   0.13234   0.13393

 Mulliken charges:
               1
     1  O   -0.571311
     2  O   -0.559751
     3  C   -0.015211
     4  C   -0.057604
     5  C   -0.168991
     6  C   -0.157162
     7  C    0.188844
     8  C    0.143318
     9  C    0.067328
    10  C    0.064794
    11  C   -0.205902
    12  C   -0.240790
    13  C    0.053586
    14  C    0.094581
    15  C   -0.289173
    16  C   -0.294884
    17  C   -0.277399
    18  C   -0.291357
    19  C   -0.127693
    20  C   -0.182540
    21  C   -0.359922
    22  C   -0.377492
    23  C   -0.126256
    24  C   -0.072334
    25  C    0.049748
    26  C    0.088344
    27  C   -0.366786
    28  C   -0.384139
    29  C   -0.116984
    30  C   -0.139977
    31  C   -0.065843
    32  C   -0.052802
    33  C   -0.119799
    34  C   -0.099530
    35  C    0.129417
    36  C    0.151525
    37  C   -0.378063
    38  C   -0.363786
    39  C   -0.139981
    40  C   -0.137212
    41  C   -0.074742
    42  C   -0.094572
    43  H    0.106922
    44  H    0.082346
    45  H    0.059987
    46  H    0.111724
    47  H    0.058690
    48  H    0.084516
    49  H    0.124829
    50  H    0.063306
    51  H    0.113920
    52  H    0.091574
    53  H    0.078218
    54  H    0.108474
    55  H    0.092587
    56  H    0.122428
    57  H    0.081780
    58  H    0.083530
    59  H    0.079898
    60  H    0.118045
    61  H    0.087519
    62  H    0.104175
    63  H    0.092672
    64  H    0.100969
    65  H    0.089874
    66  H    0.086553
    67  H    0.126256
    68  H    0.116644
    69  H    0.099479
    70  H    0.108874
    71  H    0.118814
    72  H    0.112687
    73  H    0.294813
    74  H    0.309013
    75  H    0.098221
    76  H    0.096867
    77  H    0.134850
    78  H    0.101761
    79  H    0.144025
    80  H    0.120516
    81  H    0.120450
    82  H    0.108179
    83  H    0.085619
    84  H    0.064477
    85  H    0.067562
    86  H    0.086277
    87  H    0.080714
    88  H    0.084848
    89  H    0.111407
    90  H    0.113421
    91  H    0.127427
    92  H    0.092614
    93  H    0.101719
    94  H    0.104135
    95  H    0.071299
    96  H    0.077358
    97  H    0.083560
    98  H    0.090078
 Sum of Mulliken charges =  -0.00000

 Dipole moment (field-independent basis, Debye):
    X=              1.8646    Y=             -0.0443    Z=              2.9311  Tot=              3.4742
 Quadrupole moment (field-independent basis, Debye-Ang):
   XX=           -293.1044   YY=           -240.0599   ZZ=           -262.0354
   XY=              9.7217   XZ=             -5.7112   YZ=              2.7767

 Normal termination of Gaussian 16 at Tue Jul  2 11:09:47 2019.
