 Gaussian 16, Revision A.03,
 Gaussian 16:  ES64L-G16RevA.03 25-Dec-2016

 -------------------------------------
 # td=(NStates=1) CAM-B3LYP/6-31G(d,p)
 -------------------------------------

 --
 TD
 --
 Symbolic Z-matrix:
 Charge =  0 Multiplicity = 1

                         Standard orientation:
 ---------------------------------------------------------------------
 Center     Atomic      Atomic             Coordinates (Angstroms)
 Number     Number       Type             X           Y           Z
 ---------------------------------------------------------------------
      1          8           0       14.747101   -2.161648   -0.429396
      2          8           0      -14.793636    1.940003    0.999944
      3          6           0       11.494275   -1.188330    1.298386
      4          6           0      -12.371778   -1.019843    0.745284
      5          6           0       12.952079   -1.340056    1.100923
      6          6           0      -13.727598   -0.284569    0.788400
      7          6           0       13.405767   -1.900061   -0.221000
      8          6           0      -13.530655    1.246837    0.842455
      9          6           0       11.033598   -0.380563    0.001251
     10          6           0      -11.428049   -0.383675   -0.205497
     11          6           0       13.147259   -0.810595   -1.274884
     12          6           0      -12.827476    1.753829   -0.443244
     13          6           0       11.682837   -0.253353   -1.190037
     14          6           0      -11.639106    0.829633   -0.803536
     15          6           0       11.209985   -0.337522    2.602519
     16          6           0       10.770113   -2.527330    1.293870
     17          6           0      -11.602398   -0.994334    2.138622
     18          6           0      -12.661380   -2.458176    0.332388
     19          6           0        9.614951    0.191960    0.128260
     20          6           0      -10.174377   -1.069858   -0.520941
     21          6           0       11.344322    0.518316   -2.445052
     22          6           0      -10.781280    1.520568   -1.863145
     23          6           0        9.339181    1.528190    0.037704
     24          6           0       -8.995026   -0.557878   -0.237498
     25          6           0        8.015485    2.115429    0.184574
     26          6           0       -7.585171   -1.294059   -0.498311
     27          6           0        8.192742    3.640345    0.422847
     28          6           0       -7.555439   -2.631765   -1.026014
     29          6           0        6.897877    1.538887    0.044657
     30          6           0       -6.448450   -0.549947   -0.328106
     31          6           0        5.534628    2.067536    0.205031
     32          6           0       -5.124949   -1.049537   -0.513245
     33          6           0        4.413001    1.254740   -0.069892
     34          6           0       -3.957125   -0.276800   -0.325562
     35          6           0        3.091204    1.724259    0.051355
     36          6           0       -2.623834   -0.704006   -0.498748
     37          6           0        2.821283    3.111158    0.521841
     38          6           0       -2.372351   -2.116724   -0.972924
     39          6           0        2.116260    0.837241   -0.091793
     40          6           0       -1.699951    0.201845   -0.274609
     41          6           0        0.608582    1.100273   -0.065887
     42          6           0       -0.249308    0.055673   -0.156699
     43          1           0       13.364068   -0.473644    1.473752
     44          1           0       13.312587   -2.051918    1.906165
     45          1           0      -14.268897   -0.487641    1.665077
     46          1           0      -14.304442   -0.411274   -0.102454
     47          1           0       12.818981   -2.656486   -0.576049
     48          1           0      -12.998492    1.474757    1.726493
     49          1           0       13.833061    0.184389   -1.132299
     50          1           0       13.331068   -1.176463   -2.311583
     51          1           0      -13.644876    1.854397   -1.194257
     52          1           0      -12.701709    2.849558   -0.342273
     53          1           0       11.720191   -0.991120    3.232964
     54          1           0       10.086026   -0.269710    2.616469
     55          1           0       11.749943    0.823481    2.368146
     56          1           0       10.959095   -3.038580    0.171788
     57          1           0       11.146319   -3.132746    1.916803
     58          1           0        9.631531   -2.402921    1.713050
     59          1           0      -11.398739    0.081465    2.517122
     60          1           0      -10.634927   -1.433063    2.124036
     61          1           0      -12.125257   -1.552115    2.956878
     62          1           0      -13.244550   -2.991709    1.217768
     63          1           0      -11.791675   -2.918209    0.397113
     64          1           0      -13.097258   -2.634449   -0.559637
     65          1           0        8.969357   -0.629060    0.448319
     66          1           0      -10.133359   -2.215175   -0.627980
     67          1           0       10.282873    0.972055   -2.642843
     68          1           0       11.880906    1.408481   -2.489158
     69          1           0       11.592396   -0.000388   -3.349920
     70          1           0      -11.574940    1.798851   -2.713289
     71          1           0      -10.048624    0.843323   -2.503753
     72          1           0      -10.181096    2.396263   -1.520806
     73          1           0       14.813835   -2.925866    0.223920
     74          1           0      -15.232937    1.355271    1.536889
     75          1           0       10.255004    2.146217   -0.349150
     76          1           0       -8.924432    0.487667    0.055903
     77          1           0        8.404217    4.089348   -0.602175
     78          1           0        7.161059    3.978395    0.744058
     79          1           0        8.972472    3.895237    1.229280
     80          1           0       -8.448958   -3.124720   -0.360090
     81          1           0       -7.928097   -2.669844   -2.041896
     82          1           0       -6.648202   -3.201610   -0.796998
     83          1           0        6.860314    0.498740   -0.167804
     84          1           0       -6.530998    0.441590   -0.042254
     85          1           0        5.363863    3.040802    0.416237
     86          1           0       -4.761371   -2.171501   -0.835593
     87          1           0        4.702540    0.309294   -0.472327
     88          1           0       -4.242188    0.684008   -0.145732
     89          1           0        3.191070    3.216175    1.452455
     90          1           0        1.734730    3.425136    0.820088
     91          1           0        3.198563    3.774961   -0.211929
     92          1           0       -2.789412   -2.826106   -0.436232
     93          1           0       -2.821814   -2.445388   -1.831072
     94          1           0       -1.351869   -2.253271   -0.922630
     95          1           0        2.272011   -0.103545   -0.452611
     96          1           0       -1.946140    1.097617    0.196152
     97          1           0        0.358452    2.131765    0.227295
     98          1           0        0.202628   -0.943969   -0.466248
 ---------------------------------------------------------------------

 SCF Done:  E(RCAM-B3LYP) =  -1706.98262940     A.U. after   13 cycles

 Excitation energies and oscillator strengths:

 Excited State   1:      Singlet-A      2.9845 eV  415.43 nm  f=3.6672  <S**2>=0.000
     155 ->158        -0.18745
     156 ->157         0.67627
 This state for optimization and/or second-order correction.
 Total Energy, E(TD-HF/TD-DFT) =  -1706.87295219
 Copying the excited state density for this state as the 1-particle RhoCI density.

 The electronic state is 1-A.
 Alpha  occ. eigenvalues --  -19.22253 -19.19925 -10.29619 -10.29199 -10.28047
 Alpha  occ. eigenvalues --  -10.27800 -10.27697 -10.27321 -10.27277 -10.26966
 Alpha  occ. eigenvalues --  -10.26830 -10.26770 -10.26744 -10.26742 -10.26674
 Alpha  occ. eigenvalues --  -10.26574 -10.26434 -10.26375 -10.26338 -10.26291
 Alpha  occ. eigenvalues --  -10.26278 -10.26249 -10.25987 -10.25983 -10.25897
 Alpha  occ. eigenvalues --  -10.25759 -10.25698 -10.25685 -10.25678 -10.25620
 Alpha  occ. eigenvalues --  -10.25525 -10.25409 -10.25069 -10.25063 -10.25045
 Alpha  occ. eigenvalues --  -10.25038 -10.24794 -10.24654 -10.24600 -10.24307
 Alpha  occ. eigenvalues --  -10.23726 -10.23260  -1.11260  -1.09689  -0.93969
 Alpha  occ. eigenvalues --   -0.93407  -0.92509  -0.92041  -0.90558  -0.90172
 Alpha  occ. eigenvalues --   -0.86916  -0.86707  -0.86224  -0.85444  -0.84265
 Alpha  occ. eigenvalues --   -0.82693  -0.81965  -0.80272  -0.79927  -0.79521
 Alpha  occ. eigenvalues --   -0.77696  -0.76993  -0.76891  -0.76182  -0.75820
 Alpha  occ. eigenvalues --   -0.75526  -0.75167  -0.74901  -0.74349  -0.70023
 Alpha  occ. eigenvalues --   -0.68179  -0.67050  -0.65770  -0.64914  -0.64440
 Alpha  occ. eigenvalues --   -0.63749  -0.62919  -0.61938  -0.61403  -0.60680
 Alpha  occ. eigenvalues --   -0.59659  -0.59093  -0.58322  -0.58024  -0.56498
 Alpha  occ. eigenvalues --   -0.55686  -0.55507  -0.54972  -0.54326  -0.54090
 Alpha  occ. eigenvalues --   -0.53171  -0.52693  -0.52478  -0.52154  -0.51512
 Alpha  occ. eigenvalues --   -0.50829  -0.50737  -0.50421  -0.49877  -0.49278
 Alpha  occ. eigenvalues --   -0.48741  -0.48557  -0.48426  -0.48404  -0.48163
 Alpha  occ. eigenvalues --   -0.48043  -0.47899  -0.47658  -0.47275  -0.46866
 Alpha  occ. eigenvalues --   -0.46799  -0.46152  -0.45669  -0.45605  -0.45405
 Alpha  occ. eigenvalues --   -0.44601  -0.44295  -0.44106  -0.43630  -0.43501
 Alpha  occ. eigenvalues --   -0.43396  -0.43108  -0.42388  -0.41964  -0.41833
 Alpha  occ. eigenvalues --   -0.41770  -0.41379  -0.41264  -0.41037  -0.40902
 Alpha  occ. eigenvalues --   -0.40750  -0.40249  -0.39929  -0.39771  -0.39341
 Alpha  occ. eigenvalues --   -0.39142  -0.38659  -0.38508  -0.38201  -0.37930
 Alpha  occ. eigenvalues --   -0.37750  -0.37339  -0.36702  -0.36216  -0.35890
 Alpha  occ. eigenvalues --   -0.35355  -0.34164  -0.33634  -0.33195  -0.32020
 Alpha  occ. eigenvalues --   -0.31780  -0.29925  -0.27898  -0.27011  -0.24067
 Alpha  occ. eigenvalues --   -0.21176
 Alpha virt. eigenvalues --   -0.03483   0.00205   0.03865   0.05932   0.07951
 Alpha virt. eigenvalues --    0.09201   0.10762   0.11048   0.12066   0.12174
 Alpha virt. eigenvalues --    0.13087   0.13264   0.13637   0.13778   0.14014

 Mulliken charges:
               1
     1  O   -0.535102
     2  O   -0.557647
     3  C   -0.032297
     4  C   -0.025284
     5  C   -0.182082
     6  C   -0.197171
     7  C    0.170705
     8  C    0.141761
     9  C    0.000612
    10  C    0.075440
    11  C   -0.211077
    12  C   -0.233087
    13  C    0.056164
    14  C    0.052149
    15  C   -0.275867
    16  C   -0.273114
    17  C   -0.324000
    18  C   -0.288292
    19  C   -0.117126
    20  C   -0.152756
    21  C   -0.366877
    22  C   -0.352416
    23  C   -0.107902
    24  C   -0.061207
    25  C    0.084024
    26  C    0.086806
    27  C   -0.359821
    28  C   -0.363990
    29  C   -0.101589
    30  C   -0.114110
    31  C   -0.089905
    32  C   -0.095999
    33  C   -0.116232
    34  C   -0.110256
    35  C    0.120375
    36  C    0.139686
    37  C   -0.376404
    38  C   -0.374771
    39  C   -0.132350
    40  C   -0.135734
    41  C   -0.075560
    42  C   -0.109971
    43  H    0.113935
    44  H    0.048983
    45  H    0.083698
    46  H    0.110640
    47  H    0.088504
    48  H    0.087703
    49  H    0.090968
    50  H    0.096407
    51  H    0.114363
    52  H    0.114036
    53  H    0.113570
    54  H    0.115082
    55  H    0.083184
    56  H    0.090247
    57  H    0.113556
    58  H    0.080783
    59  H    0.100890
    60  H    0.122458
    61  H    0.093389
    62  H    0.077793
    63  H    0.108326
    64  H    0.116898
    65  H    0.088835
    66  H    0.076153
    67  H    0.102976
    68  H    0.127536
    69  H    0.112549
    70  H    0.093691
    71  H    0.102278
    72  H    0.120425
    73  H    0.298365
    74  H    0.293752
    75  H    0.089743
    76  H    0.086600
    77  H    0.119840
    78  H    0.097809
    79  H    0.114078
    80  H    0.081948
    81  H    0.138850
    82  H    0.123673
    83  H    0.072146
    84  H    0.082505
    85  H    0.074506
    86  H    0.053913
    87  H    0.086553
    88  H    0.070368
    89  H    0.140215
    90  H    0.095238
    91  H    0.129454
    92  H    0.131119
    93  H    0.129067
    94  H    0.108573
    95  H    0.071201
    96  H    0.085123
    97  H    0.079745
    98  H    0.078032
 Sum of Mulliken charges =  -0.00000

 Dipole moment (field-independent basis, Debye):
    X=              0.6700    Y=             -2.5428    Z=              1.4698  Tot=              3.0125
 Quadrupole moment (field-independent basis, Debye-Ang):
   XX=           -288.5876   YY=           -244.8363   ZZ=           -259.7869
   XY=             14.9252   XZ=              6.6787   YZ=             -1.7612

 Normal termination of Gaussian 16 at Thu Jul  4 19:33:46 2019.
