 Gaussian 16, Revision A.03,
 Gaussian 16:  ES64L-G16RevA.03 25-Dec-2016

 -------------------------------------
 # td=(NStates=1) CAM-B3LYP/6-31G(d,p)
 -------------------------------------

 --
 TD
 --
 Symbolic Z-matrix:
 Charge =  0 Multiplicity = 1

                         Standard orientation:
 ---------------------------------------------------------------------
 Center     Atomic      Atomic             Coordinates (Angstroms)
 Number     Number       Type             X           Y           Z
 ---------------------------------------------------------------------
      1          8           0       14.790151   -1.991113   -0.589947
      2          8           0      -14.714927    2.217730    0.793353
      3          6           0       11.521213   -1.108815    1.160122
      4          6           0      -12.379159   -0.925055    0.703864
      5          6           0       13.041985   -1.308459    1.004012
      6          6           0      -13.671113   -0.173623    0.682842
      7          6           0       13.460971   -1.865587   -0.384949
      8          6           0      -13.548459    1.262208    0.677382
      9          6           0       11.051152   -0.292450   -0.030154
     10          6           0      -11.411471   -0.263868   -0.176537
     11          6           0       12.978460   -0.826696   -1.440496
     12          6           0      -12.731732    1.824875   -0.528659
     13          6           0       11.666947   -0.174473   -1.243428
     14          6           0      -11.518093    0.924269   -0.836575
     15          6           0       11.295112   -0.404272    2.463843
     16          6           0       10.825662   -2.420487    1.334649
     17          6           0      -11.843121   -1.115911    2.107565
     18          6           0      -12.726527   -2.379648    0.149292
     19          6           0        9.762457    0.392502    0.152007
     20          6           0      -10.090430   -0.974358   -0.469164
     21          6           0       11.038566    0.567432   -2.392609
     22          6           0      -10.619182    1.611177   -1.858051
     23          6           0        9.428347    1.680658   -0.079682
     24          6           0       -8.821190   -0.464572   -0.324680
     25          6           0        8.071954    2.286565    0.058774
     26          6           0       -7.618099   -1.236296   -0.454207
     27          6           0        8.109471    3.781691    0.335981
     28          6           0       -7.778573   -2.798650   -0.661738
     29          6           0        6.941404    1.541808    0.103340
     30          6           0       -6.505649   -0.605090   -0.397640
     31          6           0        5.482895    1.984202    0.334742
     32          6           0       -5.124329   -1.076936   -0.601489
     33          6           0        4.423037    1.129947    0.227644
     34          6           0       -4.015213   -0.385147   -0.346110
     35          6           0        3.032941    1.512543    0.372452
     36          6           0       -2.661984   -0.867130   -0.280535
     37          6           0        2.789016    2.957883    0.623900
     38          6           0       -2.403170   -2.269445   -0.664755
     39          6           0        2.110684    0.563665    0.072010
     40          6           0       -1.654700    0.059010   -0.170638
     41          6           0        0.753706    0.791940   -0.014658
     42          6           0       -0.253603   -0.175712   -0.250470
     43          1           0       13.619980   -0.384489    1.158863
     44          1           0       13.417599   -2.038742    1.722971
     45          1           0      -14.307354   -0.533509    1.539970
     46          1           0      -13.993500   -0.361264   -0.053835
     47          1           0       12.860055   -2.792621   -0.490137
     48          1           0      -12.884831    1.555116    1.494971
     49          1           0       13.632690    0.012637   -1.378041
     50          1           0       13.022762   -1.416462   -2.373108
     51          1           0      -13.449091    1.823855   -1.309792
     52          1           0      -12.604294    2.931767   -0.533979
     53          1           0       11.743772   -1.010030    3.372490
     54          1           0       10.300662   -0.134434    2.647109
     55          1           0       12.106783    0.450500    2.478883
     56          1           0       10.908465   -2.986038    0.235390
     57          1           0       11.240998   -2.921210    2.049563
     58          1           0        9.734425   -2.349813    1.541032
     59          1           0      -11.629208   -0.108250    2.548365
     60          1           0      -10.954447   -1.671203    1.975072
     61          1           0      -12.484627   -1.699204    2.756014
     62          1           0      -13.753771   -2.719002    0.835016
     63          1           0      -11.781757   -3.192016    0.174537
     64          1           0      -13.006840   -2.381425   -1.039517
     65          1           0        8.916634   -0.249664    0.609426
     66          1           0       -9.821050   -2.074285   -0.569840
     67          1           0       10.001560    0.657616   -2.432085
     68          1           0       11.396062    1.509841   -2.706835
     69          1           0       11.330503    0.124722   -3.404944
     70          1           0      -11.350498    1.923993   -2.705110
     71          1           0       -9.857347    0.912807   -2.291860
     72          1           0      -10.204151    2.461391   -1.277470
     73          1           0       15.122360   -2.599464    0.067022
     74          1           0      -15.241746    1.976104    1.629348
     75          1           0       10.153130    2.145218   -0.537370
     76          1           0       -8.617972    0.512810    0.044669
     77          1           0        8.326170    4.433876   -0.514143
     78          1           0        7.106150    3.984831    0.687701
     79          1           0        8.934346    3.813519    1.146587
     80          1           0       -8.479119   -3.167172    0.178229
     81          1           0       -8.350536   -3.167229   -1.558908
     82          1           0       -6.759020   -3.320415   -0.608529
     83          1           0        7.028173    0.279807    0.076635
     84          1           0       -6.366905    0.501485   -0.171537
     85          1           0        5.103834    3.048907    0.701591
     86          1           0       -5.000089   -2.123724   -0.916371
     87          1           0        4.381438    0.110578   -0.058953
     88          1           0       -4.192177    0.670142    0.186497
     89          1           0        3.282096    3.495686    1.595757
     90          1           0        1.632669    3.216471    0.731579
     91          1           0        3.311283    3.514936   -0.280908
     92          1           0       -2.663444   -2.826427    0.173002
     93          1           0       -2.941634   -2.655785   -1.584277
     94          1           0       -1.546734   -2.423265   -0.788963
     95          1           0        2.463012   -0.567602    0.073783
     96          1           0       -1.959443    0.873563    0.143534
     97          1           0        0.186578    1.817500    0.316409
     98          1           0       -0.125477   -1.256045   -0.675946
 ---------------------------------------------------------------------

 SCF Done:  E(RCAM-B3LYP) =  -1706.87034773     A.U. after   14 cycles

 Excitation energies and oscillator strengths:

 Excited State   1:      Singlet-A      2.7186 eV  456.05 nm  f=3.5176  <S**2>=0.000
     155 ->158        -0.14682
     156 ->157         0.68784
 This state for optimization and/or second-order correction.
 Total Energy, E(TD-HF/TD-DFT) =  -1706.77044007
 Copying the excited state density for this state as the 1-particle RhoCI density.

 The electronic state is 1-A.
 Alpha  occ. eigenvalues --  -19.22238 -19.21118 -10.30273 -10.29694 -10.29413
 Alpha  occ. eigenvalues --  -10.28413 -10.28117 -10.27989 -10.27916 -10.27723
 Alpha  occ. eigenvalues --  -10.27631 -10.27514 -10.27351 -10.27335 -10.27166
 Alpha  occ. eigenvalues --  -10.27081 -10.27041 -10.26882 -10.26852 -10.26727
 Alpha  occ. eigenvalues --  -10.26719 -10.26510 -10.26083 -10.26065 -10.25999
 Alpha  occ. eigenvalues --  -10.25940 -10.25875 -10.25807 -10.25584 -10.25571
 Alpha  occ. eigenvalues --  -10.25199 -10.25119 -10.24732 -10.24714 -10.24678
 Alpha  occ. eigenvalues --  -10.24451 -10.24387 -10.24308 -10.24279 -10.24139
 Alpha  occ. eigenvalues --  -10.23075 -10.22502  -1.12766  -1.05495  -0.94970
 Alpha  occ. eigenvalues --   -0.94044  -0.92756  -0.91994  -0.91182  -0.89701
 Alpha  occ. eigenvalues --   -0.87875  -0.87291  -0.86629  -0.85399  -0.84512
 Alpha  occ. eigenvalues --   -0.83710  -0.81916  -0.80372  -0.80002  -0.78957
 Alpha  occ. eigenvalues --   -0.77009  -0.76726  -0.76681  -0.76340  -0.76146
 Alpha  occ. eigenvalues --   -0.75415  -0.75273  -0.74370  -0.73670  -0.70838
 Alpha  occ. eigenvalues --   -0.69090  -0.67319  -0.66007  -0.64625  -0.64433
 Alpha  occ. eigenvalues --   -0.64203  -0.62894  -0.61570  -0.60184  -0.59927
 Alpha  occ. eigenvalues --   -0.59649  -0.58479  -0.58281  -0.57943  -0.56343
 Alpha  occ. eigenvalues --   -0.56312  -0.55440  -0.54822  -0.54129  -0.53965
 Alpha  occ. eigenvalues --   -0.53303  -0.52786  -0.52019  -0.51359  -0.50654
 Alpha  occ. eigenvalues --   -0.50427  -0.50331  -0.50198  -0.49926  -0.49434
 Alpha  occ. eigenvalues --   -0.49091  -0.48465  -0.48397  -0.48231  -0.47807
 Alpha  occ. eigenvalues --   -0.47509  -0.47421  -0.46895  -0.46824  -0.46334
 Alpha  occ. eigenvalues --   -0.46279  -0.45909  -0.45695  -0.45247  -0.45156
 Alpha  occ. eigenvalues --   -0.44496  -0.44317  -0.44181  -0.44011  -0.43446
 Alpha  occ. eigenvalues --   -0.43246  -0.42962  -0.42475  -0.42412  -0.42140
 Alpha  occ. eigenvalues --   -0.42067  -0.41638  -0.41376  -0.40863  -0.40767
 Alpha  occ. eigenvalues --   -0.40539  -0.40105  -0.39877  -0.39357  -0.39243
 Alpha  occ. eigenvalues --   -0.38846  -0.38573  -0.38422  -0.38164  -0.37948
 Alpha  occ. eigenvalues --   -0.37299  -0.36778  -0.36408  -0.36374  -0.36015
 Alpha  occ. eigenvalues --   -0.35728  -0.35269  -0.33879  -0.32240  -0.31945
 Alpha  occ. eigenvalues --   -0.31880  -0.29889  -0.28382  -0.26095  -0.24422
 Alpha  occ. eigenvalues --   -0.20804
 Alpha virt. eigenvalues --   -0.04577   0.00567   0.02865   0.06040   0.08038
 Alpha virt. eigenvalues --    0.09320   0.10869   0.11072   0.11457   0.11934
 Alpha virt. eigenvalues --    0.12236   0.12566   0.12612   0.13079   0.13342

 Mulliken charges:
               1
     1  O   -0.525913
     2  O   -0.584190
     3  C   -0.017461
     4  C   -0.051202
     5  C   -0.204607
     6  C   -0.085094
     7  C    0.162152
     8  C    0.132283
     9  C    0.059411
    10  C    0.074604
    11  C   -0.223096
    12  C   -0.247359
    13  C    0.073545
    14  C    0.048202
    15  C   -0.284891
    16  C   -0.268001
    17  C   -0.283600
    18  C   -0.274484
    19  C   -0.131122
    20  C   -0.161726
    21  C   -0.386789
    22  C   -0.340575
    23  C   -0.082918
    24  C   -0.076547
    25  C    0.068828
    26  C    0.138596
    27  C   -0.351452
    28  C   -0.388066
    29  C   -0.122813
    30  C   -0.144505
    31  C   -0.128724
    32  C   -0.087057
    33  C   -0.075344
    34  C   -0.113722
    35  C    0.155584
    36  C    0.064342
    37  C   -0.386501
    38  C   -0.326493
    39  C   -0.141131
    40  C   -0.058230
    41  C   -0.102921
    42  C   -0.091796
    43  H    0.098277
    44  H    0.065489
    45  H    0.076846
    46  H    0.077685
    47  H    0.067685
    48  H    0.078774
    49  H    0.126966
    50  H    0.107484
    51  H    0.118878
    52  H    0.113094
    53  H    0.079601
    54  H    0.117204
    55  H    0.084499
    56  H    0.068758
    57  H    0.113499
    58  H    0.099991
    59  H    0.101116
    60  H    0.110939
    61  H    0.099341
    62  H    0.073637
    63  H    0.086335
    64  H    0.093065
    65  H    0.067288
    66  H    0.054479
    67  H    0.141304
    68  H    0.122609
    69  H    0.089322
    70  H    0.103913
    71  H    0.122316
    72  H    0.124943
    73  H    0.305345
    74  H    0.301769
    75  H    0.075736
    76  H    0.077908
    77  H    0.122545
    78  H    0.114587
    79  H    0.116569
    80  H    0.118190
    81  H    0.130918
    82  H    0.108559
    83  H    0.072448
    84  H    0.078678
    85  H    0.085851
    86  H    0.073079
    87  H    0.072608
    88  H    0.066442
    89  H    0.110980
    90  H    0.098009
    91  H    0.122886
    92  H    0.127772
    93  H    0.112173
    94  H    0.092532
    95  H    0.097233
    96  H    0.043905
    97  H    0.083710
    98  H    0.075017
 Sum of Mulliken charges =  -0.00000

 Dipole moment (field-independent basis, Debye):
    X=              1.1732    Y=             -2.1619    Z=              1.9835  Tot=              3.1599
 Quadrupole moment (field-independent basis, Debye-Ang):
   XX=           -262.0352   YY=           -247.0713   ZZ=           -260.7373
   XY=              9.7087   XZ=             -1.4250   YZ=             -1.1231

 Normal termination of Gaussian 16 at Tue Jul  9 17:32:56 2019.
