 Gaussian 16, Revision A.03,
 Gaussian 16:  ES64L-G16RevA.03 25-Dec-2016

 -------------------------------------
 # td=(NStates=1) CAM-B3LYP/6-31G(d,p)
 -------------------------------------

 --
 TD
 --
 Symbolic Z-matrix:
 Charge =  0 Multiplicity = 1

                         Standard orientation:
 ---------------------------------------------------------------------
 Center     Atomic      Atomic             Coordinates (Angstroms)
 Number     Number       Type             X           Y           Z
 ---------------------------------------------------------------------
      1          8           0       14.790644   -2.146626   -0.333812
      2          8           0      -14.666561    1.962487    0.996556
      3          6           0       11.413381   -1.197005    1.130279
      4          6           0      -12.418308   -1.048798    0.691274
      5          6           0       12.840688   -1.479522    1.158196
      6          6           0      -13.778762   -0.249401    0.691583
      7          6           0       13.404521   -1.962601   -0.247364
      8          6           0      -13.525414    1.261741    0.817645
      9          6           0       10.902950   -0.214608   -0.040808
     10          6           0      -11.304261   -0.349093   -0.163135
     11          6           0       12.985632   -1.010648   -1.310946
     12          6           0      -12.725032    1.823039   -0.351641
     13          6           0       11.651315   -0.249212   -1.085721
     14          6           0      -11.521071    0.966944   -0.677326
     15          6           0       11.269981   -0.507574    2.553713
     16          6           0       10.649846   -2.496408    1.268320
     17          6           0      -11.923265   -1.062781    2.130184
     18          6           0      -12.692470   -2.468058    0.150236
     19          6           0        9.664564    0.450123    0.288698
     20          6           0      -10.068075   -1.044906   -0.424909
     21          6           0       11.221868    0.627690   -2.356760
     22          6           0      -10.752391    1.771171   -1.688915
     23          6           0        9.384579    1.696952   -0.084464
     24          6           0       -8.778377   -0.595544   -0.279576
     25          6           0        8.004704    2.313579    0.009423
     26          6           0       -7.551006   -1.289109   -0.496649
     27          6           0        8.102441    3.806880    0.412340
     28          6           0       -7.628187   -2.683613   -1.114149
     29          6           0        6.927113    1.479653   -0.029828
     30          6           0       -6.367600   -0.602356   -0.332931
     31          6           0        5.556953    1.961852    0.081542
     32          6           0       -5.041693   -1.072166   -0.591099
     33          6           0        4.513269    1.203836   -0.054063
     34          6           0       -3.983646   -0.367641   -0.233100
     35          6           0        3.119529    1.684581    0.095862
     36          6           0       -2.629775   -0.745828   -0.355788
     37          6           0        2.861956    3.103784    0.429407
     38          6           0       -2.364524   -2.222669   -0.888642
     39          6           0        2.152183    0.756971   -0.003094
     40          6           0       -1.592673    0.147187   -0.214129
     41          6           0        0.706387    0.898691    0.102541
     42          6           0       -0.211823   -0.004237   -0.274121
     43          1           0       13.321483   -0.505008    1.387447
     44          1           0       13.293272   -2.114385    1.707773
     45          1           0      -14.459796   -0.443819    1.535662
     46          1           0      -14.157721   -0.477464   -0.295672
     47          1           0       13.018806   -2.775842   -0.310990
     48          1           0      -12.952908    1.559752    1.647024
     49          1           0       13.629124   -0.064050   -1.278484
     50          1           0       13.132598   -1.382696   -2.399345
     51          1           0      -13.361275    1.689208   -1.158853
     52          1           0      -12.362628    2.942964   -0.210341
     53          1           0       11.504210   -1.132057    3.561988
     54          1           0        9.976380   -0.253991    2.535059
     55          1           0       11.748632    0.462445    2.472740
     56          1           0       10.488955   -2.965388    0.128573
     57          1           0       11.120421   -3.152395    2.031134
     58          1           0        9.719500   -2.180052    1.510755
     59          1           0      -12.160327    0.057635    2.453252
     60          1           0      -11.114470   -1.550798    2.327269
     61          1           0      -12.768870   -1.580153    2.736254
     62          1           0      -13.333088   -2.975078    0.862282
     63          1           0      -11.721071   -3.026891    0.214790
     64          1           0      -13.025379   -2.544848   -0.988980
     65          1           0        8.773387   -0.080781    0.760421
     66          1           0      -10.213860   -2.339917   -0.489418
     67          1           0       10.250487    0.748175   -2.207312
     68          1           0       11.585697    1.528743   -2.413620
     69          1           0       11.254923    0.053472   -3.435462
     70          1           0      -11.327355    2.325219   -2.540564
     71          1           0      -10.011838    0.933186   -2.270789
     72          1           0       -9.883355    2.383536   -1.325954
     73          1           0       15.024653   -2.746165    0.329831
     74          1           0      -15.268450    1.506736    1.756697
     75          1           0       10.266239    2.257089   -0.479090
     76          1           0       -8.651683    0.462387    0.188395
     77          1           0        8.713159    4.599248   -0.267464
     78          1           0        7.163121    4.208444    0.656920
     79          1           0        8.494014    3.773553    1.263381
     80          1           0       -8.042547   -3.472974   -0.363070
     81          1           0       -8.496669   -2.786033   -1.919766
     82          1           0       -6.603783   -3.086970   -1.415467
     83          1           0        7.030024    0.556911   -0.106267
     84          1           0       -6.517718    0.635596   -0.400590
     85          1           0        5.207435    2.983030    0.294743
     86          1           0       -4.795592   -2.119641   -1.041997
     87          1           0        4.638940    0.125431   -0.130808
     88          1           0       -4.135172    0.717537    0.145065
     89          1           0        3.171824    3.471736    1.488481
     90          1           0        1.715026    3.320071    0.476437
     91          1           0        3.269029    3.731804   -0.550721
     92          1           0       -2.872074   -3.187302   -0.364698
     93          1           0       -2.735372   -2.089523   -2.021500
     94          1           0       -1.374273   -2.473911   -1.025722
     95          1           0        2.353395   -0.302731   -0.381971
     96          1           0       -1.736577    1.177292   -0.176526
     97          1           0        0.248053    1.898286    0.635812
     98          1           0        0.125364   -1.010890   -0.711200
 ---------------------------------------------------------------------

 SCF Done:  E(RCAM-B3LYP) =  -1706.82758771     A.U. after   14 cycles

 Excitation energies and oscillator strengths:

 Excited State   1:      Singlet-A      2.7794 eV  446.09 nm  f=3.5613  <S**2>=0.000
     155 ->158         0.17722
     156 ->157         0.67782
 This state for optimization and/or second-order correction.
 Total Energy, E(TD-HF/TD-DFT) =  -1706.72544767
 Copying the excited state density for this state as the 1-particle RhoCI density.

 The electronic state is 1-A.
 Alpha  occ. eigenvalues --  -19.21190 -19.20582 -10.28772 -10.28429 -10.28257
 Alpha  occ. eigenvalues --  -10.28207 -10.27864 -10.27810 -10.27730 -10.27719
 Alpha  occ. eigenvalues --  -10.27629 -10.27618 -10.27601 -10.27565 -10.27523
 Alpha  occ. eigenvalues --  -10.27483 -10.27348 -10.27046 -10.27001 -10.26993
 Alpha  occ. eigenvalues --  -10.26857 -10.26710 -10.26641 -10.26629 -10.26480
 Alpha  occ. eigenvalues --  -10.26407 -10.26311 -10.26198 -10.26132 -10.25857
 Alpha  occ. eigenvalues --  -10.25711 -10.25587 -10.25391 -10.25333 -10.25205
 Alpha  occ. eigenvalues --  -10.25160 -10.25109 -10.24995 -10.24835 -10.24390
 Alpha  occ. eigenvalues --  -10.23729 -10.22751  -1.10783  -1.09964  -0.93988
 Alpha  occ. eigenvalues --   -0.92737  -0.92427  -0.91878  -0.90585  -0.89904
 Alpha  occ. eigenvalues --   -0.87992  -0.87218  -0.86787  -0.85606  -0.84507
 Alpha  occ. eigenvalues --   -0.83580  -0.81821  -0.80913  -0.79133  -0.78165
 Alpha  occ. eigenvalues --   -0.77310  -0.76857  -0.76066  -0.76037  -0.75474
 Alpha  occ. eigenvalues --   -0.75106  -0.74968  -0.73988  -0.73774  -0.70681
 Alpha  occ. eigenvalues --   -0.69655  -0.67581  -0.66553  -0.65182  -0.63387
 Alpha  occ. eigenvalues --   -0.63059  -0.62712  -0.61603  -0.60640  -0.59983
 Alpha  occ. eigenvalues --   -0.59834  -0.59025  -0.58242  -0.57543  -0.56647
 Alpha  occ. eigenvalues --   -0.55542  -0.55176  -0.55003  -0.54388  -0.53948
 Alpha  occ. eigenvalues --   -0.53183  -0.52566  -0.51702  -0.51665  -0.51547
 Alpha  occ. eigenvalues --   -0.50033  -0.49973  -0.49767  -0.49571  -0.49204
 Alpha  occ. eigenvalues --   -0.48664  -0.48467  -0.48348  -0.48225  -0.47839
 Alpha  occ. eigenvalues --   -0.47668  -0.47470  -0.47027  -0.46285  -0.46033
 Alpha  occ. eigenvalues --   -0.45724  -0.45518  -0.45192  -0.44936  -0.44898
 Alpha  occ. eigenvalues --   -0.44720  -0.44321  -0.44209  -0.43860  -0.43545
 Alpha  occ. eigenvalues --   -0.43015  -0.42754  -0.42640  -0.42418  -0.42346
 Alpha  occ. eigenvalues --   -0.42165  -0.41398  -0.41114  -0.40818  -0.40536
 Alpha  occ. eigenvalues --   -0.40193  -0.39965  -0.39637  -0.39235  -0.39079
 Alpha  occ. eigenvalues --   -0.38763  -0.38626  -0.38430  -0.38000  -0.37469
 Alpha  occ. eigenvalues --   -0.37364  -0.37146  -0.36559  -0.36371  -0.36182
 Alpha  occ. eigenvalues --   -0.34867  -0.34073  -0.33646  -0.32607  -0.30980
 Alpha  occ. eigenvalues --   -0.30422  -0.30034  -0.28803  -0.26531  -0.24155
 Alpha  occ. eigenvalues --   -0.21186
 Alpha virt. eigenvalues --   -0.04424  -0.00519   0.02146   0.05687   0.07597
 Alpha virt. eigenvalues --    0.09508   0.09838   0.10881   0.11730   0.11741
 Alpha virt. eigenvalues --    0.12059   0.12400   0.13187   0.13462   0.13476

 Mulliken charges:
               1
     1  O   -0.552151
     2  O   -0.572082
     3  C   -0.043397
     4  C   -0.022656
     5  C   -0.172704
     6  C   -0.198049
     7  C    0.191479
     8  C    0.198344
     9  C    0.087300
    10  C    0.065213
    11  C   -0.212112
    12  C   -0.224452
    13  C    0.003007
    14  C    0.060323
    15  C   -0.277530
    16  C   -0.267697
    17  C   -0.271006
    18  C   -0.299108
    19  C   -0.099735
    20  C   -0.140647
    21  C   -0.364327
    22  C   -0.371208
    23  C   -0.127361
    24  C   -0.103498
    25  C    0.052077
    26  C    0.147705
    27  C   -0.353202
    28  C   -0.370830
    29  C   -0.072527
    30  C   -0.150966
    31  C   -0.085404
    32  C   -0.094411
    33  C   -0.090478
    34  C   -0.079296
    35  C    0.125152
    36  C    0.097465
    37  C   -0.379996
    38  C   -0.367146
    39  C   -0.138242
    40  C   -0.129089
    41  C   -0.095061
    42  C   -0.068850
    43  H    0.082611
    44  H    0.068714
    45  H    0.074914
    46  H    0.106519
    47  H    0.081360
    48  H    0.078131
    49  H    0.122203
    50  H    0.104040
    51  H    0.125924
    52  H    0.105258
    53  H    0.093037
    54  H    0.039862
    55  H    0.114048
    56  H    0.068402
    57  H    0.100261
    58  H    0.105957
    59  H    0.095080
    60  H    0.113197
    61  H    0.069922
    62  H    0.104753
    63  H    0.092057
    64  H    0.096445
    65  H    0.097683
    66  H    0.050823
    67  H    0.135151
    68  H    0.127299
    69  H    0.077305
    70  H    0.114251
    71  H    0.080215
    72  H    0.124474
    73  H    0.296101
    74  H    0.303247
    75  H    0.088899
    76  H    0.085430
    77  H    0.100739
    78  H    0.111435
    79  H    0.148878
    80  H    0.104642
    81  H    0.121785
    82  H    0.106470
    83  H    0.060427
    84  H    0.082623
    85  H    0.080578
    86  H    0.092828
    87  H    0.073982
    88  H    0.079102
    89  H    0.124115
    90  H    0.104628
    91  H    0.111099
    92  H    0.106722
    93  H    0.110555
    94  H    0.118150
    95  H    0.081770
    96  H    0.081249
    97  H    0.069774
    98  H    0.072029
 Sum of Mulliken charges =  -0.00000

 Dipole moment (field-independent basis, Debye):
    X=             -0.1719    Y=             -1.1615    Z=              1.5066  Tot=              1.9101
 Quadrupole moment (field-independent basis, Debye-Ang):
   XX=           -272.9046   YY=           -245.2291   ZZ=           -261.4168
   XY=             13.1116   XZ=              4.5327   YZ=             -0.4404

 Normal termination of Gaussian 16 at Thu Jun 27 21:42:28 2019.
