 Gaussian 16, Revision A.03,
 Gaussian 16:  ES64L-G16RevA.03 25-Dec-2016

 -------------------------------------
 # td=(NStates=1) CAM-B3LYP/6-31G(d,p)
 -------------------------------------

 --
 TD
 --
 Symbolic Z-matrix:
 Charge =  0 Multiplicity = 1

                         Standard orientation:
 ---------------------------------------------------------------------
 Center     Atomic      Atomic             Coordinates (Angstroms)
 Number     Number       Type             X           Y           Z
 ---------------------------------------------------------------------
      1          8           0       14.602177   -2.427190   -0.329594
      2          8           0      -14.679733    1.974146    0.536800
      3          6           0       11.581558   -0.875620    1.305994
      4          6           0      -12.181425   -0.794619    0.961795
      5          6           0       13.028494   -1.300661    1.139986
      6          6           0      -13.524266   -0.131324    0.966587
      7          6           0       13.229547   -2.012039   -0.212053
      8          6           0      -13.462577    1.309934    0.668757
      9          6           0       10.881746   -0.282744   -0.009224
     10          6           0      -11.230665   -0.303316   -0.079856
     11          6           0       12.799427   -1.165154   -1.448903
     12          6           0      -12.856619    1.455323   -0.629541
     13          6           0       11.424559   -0.448314   -1.233169
     14          6           0      -11.501883    0.792803   -0.832448
     15          6           0       11.393611    0.221349    2.421052
     16          6           0       10.682043   -2.065208    1.878772
     17          6           0      -11.482785   -0.656045    2.279565
     18          6           0      -12.340047   -2.405402    0.855552
     19          6           0        9.625479    0.380592    0.237320
     20          6           0      -10.008315   -1.108172   -0.344296
     21          6           0       10.943293   -0.020859   -2.533021
     22          6           0      -10.827743    1.221528   -2.067671
     23          6           0        9.339110    1.600596   -0.229118
     24          6           0       -8.776893   -0.629823   -0.269800
     25          6           0        8.026041    2.280654   -0.063686
     26          6           0       -7.698414   -1.300275   -0.406212
     27          6           0        8.104709    3.775868    0.335881
     28          6           0       -7.592265   -2.763014   -0.936811
     29          6           0        6.880114    1.564371   -0.088925
     30          6           0       -6.429859   -0.626221   -0.327097
     31          6           0        5.547925    2.107180    0.033047
     32          6           0       -5.037986   -1.135968   -0.507470
     33          6           0        4.468926    1.303964   -0.160336
     34          6           0       -3.986973   -0.334561   -0.335986
     35          6           0        2.967744    1.731942   -0.011681
     36          6           0       -2.631369   -0.790515   -0.442062
     37          6           0        2.677950    3.128614    0.475512
     38          6           0       -2.346359   -2.232979   -0.764453
     39          6           0        2.067020    0.833078   -0.167421
     40          6           0       -1.714030    0.149781   -0.147016
     41          6           0        0.658637    0.956771   -0.108943
     42          6           0       -0.267570   -0.002690   -0.281941
     43          1           0       13.875615   -0.562604    1.157412
     44          1           0       13.264694   -1.939047    1.870935
     45          1           0      -14.208856   -0.236002    1.858002
     46          1           0      -13.975861   -0.560106    0.088743
     47          1           0       12.651273   -2.907680   -0.224132
     48          1           0      -12.773573    1.861923    1.275451
     49          1           0       13.768449   -0.622979   -1.472491
     50          1           0       12.943535   -1.849743   -2.240496
     51          1           0      -13.586258    1.199308   -1.460078
     52          1           0      -12.558499    2.535989   -0.695710
     53          1           0       11.715232   -0.175392    3.321396
     54          1           0       10.278441    0.468484    2.626769
     55          1           0       12.165086    1.028597    2.286693
     56          1           0       10.689574   -3.001648    1.050849
     57          1           0       10.895398   -2.308534    2.843246
     58          1           0        9.677989   -1.644124    1.765797
     59          1           0      -11.284001    0.487956    2.477533
     60          1           0      -10.628248   -1.116595    2.447772
     61          1           0      -12.261777   -1.012812    3.104876
     62          1           0      -13.223662   -2.816858    1.617241
     63          1           0      -11.318532   -2.737187    1.250837
     64          1           0      -12.607497   -2.684539   -0.160296
     65          1           0        8.797516    0.055801    0.782151
     66          1           0      -10.118029   -2.011947   -0.632223
     67          1           0        9.903241    0.450114   -2.394230
     68          1           0       11.583548    0.759179   -2.909715
     69          1           0       10.707306   -0.836136   -3.240387
     70          1           0      -11.424361    1.143455   -2.972079
     71          1           0       -9.901167    0.524011   -2.382954
     72          1           0      -10.312843    2.149520   -1.968011
     73          1           0       14.687235   -3.481589    0.231189
     74          1           0      -15.263954    1.734416    1.277084
     75          1           0       10.140823    2.126561   -0.853554
     76          1           0       -8.704787    0.391637   -0.395837
     77          1           0        8.973241    4.539997   -0.204607
     78          1           0        7.224126    4.356168    0.267911
     79          1           0        8.447008    3.760219    1.383950
     80          1           0       -8.258584   -3.449595   -0.356413
     81          1           0       -8.039445   -2.575078   -2.100992
     82          1           0       -6.607396   -3.164397   -1.208307
     83          1           0        6.853909    0.531205   -0.289341
     84          1           0       -6.685658    0.546436    0.166648
     85          1           0        5.579187    3.209373    0.340329
     86          1           0       -5.180036   -2.175653   -0.777410
     87          1           0        4.713949    0.227090   -0.463106
     88          1           0       -4.154037    0.699563   -0.143907
     89          1           0        2.941586    3.280839    1.498724
     90          1           0        1.542591    3.369206    0.414574
     91          1           0        3.268200    3.808015   -0.264349
     92          1           0       -2.976777   -2.789128   -0.100891
     93          1           0       -2.599974   -2.567758   -1.701364
     94          1           0       -1.336643   -2.607245   -0.678874
     95          1           0        2.331355   -0.183342   -0.277648
     96          1           0       -1.892233    1.061766    0.070310
     97          1           0        0.325184    1.848270    0.175075
     98          1           0       -0.021524   -1.085990   -0.263821
 ---------------------------------------------------------------------

 SCF Done:  E(RCAM-B3LYP) =  -1706.94663063     A.U. after   14 cycles

 Excitation energies and oscillator strengths:

 Excited State   1:      Singlet-A      2.9460 eV  420.85 nm  f=3.6229  <S**2>=0.000
     155 ->158        -0.17919
     156 ->157         0.67694
 This state for optimization and/or second-order correction.
 Total Energy, E(TD-HF/TD-DFT) =  -1706.83836634
 Copying the excited state density for this state as the 1-particle RhoCI density.

 The electronic state is 1-A.
 Alpha  occ. eigenvalues --  -19.22306 -19.21124 -10.29190 -10.28285 -10.28081
 Alpha  occ. eigenvalues --  -10.27877 -10.27859 -10.27813 -10.27586 -10.27312
 Alpha  occ. eigenvalues --  -10.27278 -10.27162 -10.27157 -10.26906 -10.26784
 Alpha  occ. eigenvalues --  -10.26671 -10.26665 -10.26660 -10.26556 -10.26334
 Alpha  occ. eigenvalues --  -10.26082 -10.26040 -10.25922 -10.25768 -10.25571
 Alpha  occ. eigenvalues --  -10.25512 -10.25398 -10.25076 -10.25026 -10.24886
 Alpha  occ. eigenvalues --  -10.24791 -10.24765 -10.24742 -10.24583 -10.24549
 Alpha  occ. eigenvalues --  -10.24380 -10.24324 -10.24270 -10.23968 -10.23957
 Alpha  occ. eigenvalues --  -10.23612 -10.23201  -1.10315  -1.05793  -0.94759
 Alpha  occ. eigenvalues --   -0.92796  -0.92706  -0.92119  -0.91346  -0.90226
 Alpha  occ. eigenvalues --   -0.87251  -0.87035  -0.86734  -0.85809  -0.85005
 Alpha  occ. eigenvalues --   -0.83421  -0.82242  -0.80209  -0.80020  -0.79158
 Alpha  occ. eigenvalues --   -0.76546  -0.76271  -0.76167  -0.76130  -0.75924
 Alpha  occ. eigenvalues --   -0.75009  -0.74770  -0.74513  -0.74118  -0.71501
 Alpha  occ. eigenvalues --   -0.68545  -0.67057  -0.65469  -0.64305  -0.63946
 Alpha  occ. eigenvalues --   -0.63629  -0.63036  -0.62585  -0.61730  -0.60280
 Alpha  occ. eigenvalues --   -0.60145  -0.59320  -0.58742  -0.58664  -0.57052
 Alpha  occ. eigenvalues --   -0.56475  -0.55566  -0.54864  -0.53779  -0.53398
 Alpha  occ. eigenvalues --   -0.52711  -0.52444  -0.51959  -0.51703  -0.51333
 Alpha  occ. eigenvalues --   -0.50831  -0.50248  -0.49822  -0.49681  -0.49349
 Alpha  occ. eigenvalues --   -0.49106  -0.49022  -0.48838  -0.48731  -0.48339
 Alpha  occ. eigenvalues --   -0.48072  -0.47658  -0.47377  -0.47001  -0.46700
 Alpha  occ. eigenvalues --   -0.46568  -0.45882  -0.45624  -0.45004  -0.44810
 Alpha  occ. eigenvalues --   -0.44306  -0.43912  -0.43905  -0.43718  -0.43440
 Alpha  occ. eigenvalues --   -0.42925  -0.42752  -0.42610  -0.42581  -0.42413
 Alpha  occ. eigenvalues --   -0.41905  -0.41761  -0.41356  -0.40904  -0.40705
 Alpha  occ. eigenvalues --   -0.40346  -0.40148  -0.39549  -0.39312  -0.38797
 Alpha  occ. eigenvalues --   -0.38559  -0.38246  -0.38111  -0.37472  -0.37291
 Alpha  occ. eigenvalues --   -0.37139  -0.36999  -0.36849  -0.36626  -0.36062
 Alpha  occ. eigenvalues --   -0.35116  -0.34806  -0.33527  -0.32568  -0.32238
 Alpha  occ. eigenvalues --   -0.31213  -0.29335  -0.28385  -0.26681  -0.24039
 Alpha  occ. eigenvalues --   -0.21106
 Alpha virt. eigenvalues --   -0.03706  -0.00140   0.03150   0.06186   0.06682
 Alpha virt. eigenvalues --    0.07752   0.09717   0.11115   0.11902   0.12664
 Alpha virt. eigenvalues --    0.12947   0.13328   0.13437   0.13534   0.13630

 Mulliken charges:
               1
     1  O   -0.570854
     2  O   -0.558095
     3  C   -0.027386
     4  C   -0.032395
     5  C   -0.157079
     6  C   -0.185145
     7  C    0.134364
     8  C    0.190312
     9  C    0.077802
    10  C    0.065829
    11  C   -0.226184
    12  C   -0.220627
    13  C    0.052395
    14  C    0.047736
    15  C   -0.302879
    16  C   -0.294291
    17  C   -0.272094
    18  C   -0.295064
    19  C   -0.109365
    20  C   -0.153967
    21  C   -0.371312
    22  C   -0.368828
    23  C   -0.116937
    24  C   -0.063667
    25  C    0.055066
    26  C    0.135675
    27  C   -0.360235
    28  C   -0.362958
    29  C   -0.104699
    30  C   -0.162344
    31  C   -0.064087
    32  C   -0.082129
    33  C   -0.139336
    34  C   -0.095106
    35  C    0.095301
    36  C    0.118268
    37  C   -0.366570
    38  C   -0.381145
    39  C   -0.091133
    40  C   -0.102983
    41  C   -0.075304
    42  C   -0.096120
    43  H    0.095849
    44  H    0.086859
    45  H    0.071688
    46  H    0.101494
    47  H    0.075483
    48  H    0.078159
    49  H    0.119453
    50  H    0.113847
    51  H    0.107069
    52  H    0.095740
    53  H    0.099125
    54  H    0.098112
    55  H    0.100225
    56  H    0.069394
    57  H    0.115328
    58  H    0.106048
    59  H    0.079261
    60  H    0.119175
    61  H    0.071837
    62  H    0.079901
    63  H    0.103297
    64  H    0.107834
    65  H    0.092711
    66  H    0.079503
    67  H    0.101398
    68  H    0.127067
    69  H    0.115984
    70  H    0.122052
    71  H    0.088476
    72  H    0.121824
    73  H    0.296140
    74  H    0.299137
    75  H    0.087703
    76  H    0.089777
    77  H    0.082915
    78  H    0.120955
    79  H    0.134935
    80  H    0.119496
    81  H    0.088754
    82  H    0.119954
    83  H    0.081889
    84  H    0.044355
    85  H    0.081000
    86  H    0.080577
    87  H    0.086814
    88  H    0.098352
    89  H    0.137085
    90  H    0.102621
    91  H    0.109574
    92  H    0.125100
    93  H    0.132861
    94  H    0.115203
    95  H    0.071612
    96  H    0.058203
    97  H    0.059547
    98  H    0.068819
 Sum of Mulliken charges =  -0.00000

 Dipole moment (field-independent basis, Debye):
    X=             -0.5478    Y=             -2.1515    Z=              1.6926  Tot=              2.7917
 Quadrupole moment (field-independent basis, Debye-Ang):
   XX=           -284.1359   YY=           -243.5168   ZZ=           -259.0873
   XY=              7.6431   XZ=              3.3412   YZ=              3.0221

 Normal termination of Gaussian 16 at Mon Jul  1 00:07:21 2019.
