 Gaussian 16, Revision A.03,
 Gaussian 16:  ES64L-G16RevA.03 25-Dec-2016

 -------------------------------------
 # td=(NStates=1) CAM-B3LYP/6-31G(d,p)
 -------------------------------------

 --
 TD
 --
 Symbolic Z-matrix:
 Charge =  0 Multiplicity = 1

                         Standard orientation:
 ---------------------------------------------------------------------
 Center     Atomic      Atomic             Coordinates (Angstroms)
 Number     Number       Type             X           Y           Z
 ---------------------------------------------------------------------
      1          8           0       14.674851   -2.208721   -0.487810
      2          8           0      -14.765099    1.832832    0.843084
      3          6           0       11.517191   -1.119113    1.245676
      4          6           0      -12.288758   -1.046603    0.696628
      5          6           0       13.047160   -1.453648    0.966378
      6          6           0      -13.680384   -0.313049    0.635918
      7          6           0       13.264595   -1.911731   -0.405914
      8          6           0      -13.480073    1.168853    0.889430
      9          6           0       11.048879   -0.314219    0.035859
     10          6           0      -11.353660   -0.289032   -0.200521
     11          6           0       12.920423   -0.699359   -1.345480
     12          6           0      -12.834563    1.749164   -0.349052
     13          6           0       11.646506   -0.144379   -1.105718
     14          6           0      -11.453667    1.066386   -0.582822
     15          6           0       11.266636   -0.352837    2.499762
     16          6           0       10.666763   -2.439237    1.409714
     17          6           0      -11.716476   -1.024856    2.147731
     18          6           0      -12.471744   -2.475526    0.228373
     19          6           0        9.699205    0.229182    0.284118
     20          6           0      -10.015499   -0.990947   -0.453151
     21          6           0       11.086210    0.571396   -2.387315
     22          6           0      -10.616538    1.794205   -1.677357
     23          6           0        9.249435    1.534930   -0.019599
     24          6           0       -8.791166   -0.539856   -0.314381
     25          6           0        7.999169    2.177882    0.109473
     26          6           0       -7.613358   -1.212771   -0.435062
     27          6           0        8.052286    3.695682    0.590286
     28          6           0       -7.719386   -2.642058   -0.808686
     29          6           0        6.827606    1.534165   -0.027438
     30          6           0       -6.398204   -0.529284   -0.456854
     31          6           0        5.490428    2.037215    0.081470
     32          6           0       -5.120696   -0.977876   -0.680182
     33          6           0        4.415517    1.239585   -0.040999
     34          6           0       -3.962120   -0.337450   -0.462777
     35          6           0        3.034739    1.604977    0.148042
     36          6           0       -2.585182   -0.780255   -0.475745
     37          6           0        2.738025    3.063925    0.492549
     38          6           0       -2.365183   -2.202616   -0.884756
     39          6           0        2.136124    0.738502   -0.108015
     40          6           0       -1.622581    0.186334   -0.249525
     41          6           0        0.719434    0.893571   -0.067206
     42          6           0       -0.175819   -0.119970   -0.314886
     43          1           0       13.539448   -0.649886    1.438591
     44          1           0       13.140821   -2.464509    1.572024
     45          1           0      -14.408484   -0.863760    1.217629
     46          1           0      -13.991350   -0.510685   -0.380951
     47          1           0       12.588603   -2.794290   -0.826470
     48          1           0      -12.710032    1.535691    1.654156
     49          1           0       13.724448    0.023210   -0.994690
     50          1           0       13.104942   -0.913528   -2.255993
     51          1           0      -13.476814    1.692220   -1.174398
     52          1           0      -12.671793    2.902284   -0.117585
     53          1           0       11.708295   -0.728116    3.477459
     54          1           0       10.174006   -0.245804    2.706455
     55          1           0       11.724559    0.597479    2.524601
     56          1           0       10.624600   -3.046177    0.407511
     57          1           0       11.122144   -3.047615    2.063486
     58          1           0        9.599894   -2.216942    1.710654
     59          1           0      -11.527119   -0.205788    2.698878
     60          1           0      -10.921632   -1.588375    2.140228
     61          1           0      -12.396335   -1.629761    2.906103
     62          1           0      -13.409408   -2.801946    0.708282
     63          1           0      -11.657338   -3.200002    0.696643
     64          1           0      -12.586306   -2.659485   -0.882561
     65          1           0        8.948348   -0.366803    0.766911
     66          1           0      -10.344993   -2.168761   -0.756626
     67          1           0       10.174605    0.773926   -2.250542
     68          1           0       11.552315    1.486380   -2.761126
     69          1           0       11.149695   -0.132211   -3.291940
     70          1           0      -11.268453    2.035830   -2.506047
     71          1           0       -9.622108    1.156900   -1.897871
     72          1           0      -10.236121    2.859808   -1.250089
     73          1           0       14.810614   -2.821732    0.444197
     74          1           0      -15.492858    1.404559    1.593386
     75          1           0       10.257388    2.176892   -0.382518
     76          1           0       -8.507800    0.506484   -0.002197
     77          1           0        8.675055    4.204834   -0.080732
     78          1           0        7.096204    4.354912    0.767011
     79          1           0        8.635733    3.786011    1.499964
     80          1           0       -8.139425   -3.142805    0.010884
     81          1           0       -8.259724   -2.926502   -1.839469
     82          1           0       -6.643015   -3.034653   -0.847148
     83          1           0        6.855331    0.562504   -0.348076
     84          1           0       -6.487333    0.520038   -0.166028
     85          1           0        5.249108    3.041009    0.524955
     86          1           0       -5.035800   -1.955824   -1.240563
     87          1           0        4.576030    0.143361   -0.436054
     88          1           0       -4.196281    0.593050   -0.021532
     89          1           0        3.291123    3.436727    1.506668
     90          1           0        1.659447    3.366664    0.716143
     91          1           0        3.011518    3.706199   -0.273939
     92          1           0       -2.713253   -2.734220    0.046375
     93          1           0       -2.794661   -2.393816   -1.834060
     94          1           0       -1.210514   -2.417621   -0.945702
     95          1           0        2.404347   -0.343487   -0.356559
     96          1           0       -1.898565    1.011330    0.043827
     97          1           0        0.252884    1.951508    0.228339
     98          1           0        0.310351   -1.033294   -0.439898
 ---------------------------------------------------------------------

 SCF Done:  E(RCAM-B3LYP) =  -1706.94763497     A.U. after   14 cycles

 Excitation energies and oscillator strengths:

 Excited State   1:      Singlet-A      2.7458 eV  451.54 nm  f=3.8570  <S**2>=0.000
     155 ->158        -0.19307
     156 ->157         0.67392
 This state for optimization and/or second-order correction.
 Total Energy, E(TD-HF/TD-DFT) =  -1706.84672942
 Copying the excited state density for this state as the 1-particle RhoCI density.

 The electronic state is 1-A.
 Alpha  occ. eigenvalues --  -19.22118 -19.21872 -10.31147 -10.30424 -10.27869
 Alpha  occ. eigenvalues --  -10.27740 -10.27453 -10.27375 -10.27245 -10.27231
 Alpha  occ. eigenvalues --  -10.27032 -10.26953 -10.26885 -10.26776 -10.26675
 Alpha  occ. eigenvalues --  -10.26623 -10.26524 -10.26422 -10.26390 -10.26386
 Alpha  occ. eigenvalues --  -10.26241 -10.26217 -10.26127 -10.25923 -10.25907
 Alpha  occ. eigenvalues --  -10.25860 -10.25743 -10.25726 -10.25685 -10.25421
 Alpha  occ. eigenvalues --  -10.25402 -10.25377 -10.25291 -10.25116 -10.24986
 Alpha  occ. eigenvalues --  -10.24920 -10.24918 -10.24750 -10.24613 -10.24002
 Alpha  occ. eigenvalues --  -10.23365 -10.23235  -1.06997  -1.06045  -0.94461
 Alpha  occ. eigenvalues --   -0.93346  -0.92740  -0.92282  -0.91020  -0.90119
 Alpha  occ. eigenvalues --   -0.87972  -0.87393  -0.85956  -0.85577  -0.84411
 Alpha  occ. eigenvalues --   -0.82958  -0.82134  -0.79540  -0.79079  -0.78456
 Alpha  occ. eigenvalues --   -0.77361  -0.76988  -0.76537  -0.76447  -0.76269
 Alpha  occ. eigenvalues --   -0.76018  -0.75407  -0.74811  -0.74475  -0.70632
 Alpha  occ. eigenvalues --   -0.69148  -0.66906  -0.65624  -0.65293  -0.64582
 Alpha  occ. eigenvalues --   -0.63870  -0.62952  -0.61628  -0.60359  -0.60030
 Alpha  occ. eigenvalues --   -0.59216  -0.58154  -0.57836  -0.56816  -0.56202
 Alpha  occ. eigenvalues --   -0.55566  -0.54951  -0.54547  -0.53718  -0.53649
 Alpha  occ. eigenvalues --   -0.53007  -0.52802  -0.52552  -0.52088  -0.51256
 Alpha  occ. eigenvalues --   -0.50718  -0.50548  -0.49901  -0.49561  -0.49182
 Alpha  occ. eigenvalues --   -0.48917  -0.48784  -0.48729  -0.48215  -0.48067
 Alpha  occ. eigenvalues --   -0.47475  -0.47160  -0.47096  -0.46816  -0.46497
 Alpha  occ. eigenvalues --   -0.46420  -0.45527  -0.45164  -0.44690  -0.44462
 Alpha  occ. eigenvalues --   -0.43934  -0.43844  -0.43499  -0.43315  -0.43199
 Alpha  occ. eigenvalues --   -0.43057  -0.42592  -0.42480  -0.42398  -0.42190
 Alpha  occ. eigenvalues --   -0.41894  -0.41652  -0.41400  -0.41358  -0.41083
 Alpha  occ. eigenvalues --   -0.40637  -0.40482  -0.39973  -0.39852  -0.39599
 Alpha  occ. eigenvalues --   -0.39459  -0.39131  -0.38961  -0.38645  -0.38301
 Alpha  occ. eigenvalues --   -0.37942  -0.37559  -0.36336  -0.35641  -0.35052
 Alpha  occ. eigenvalues --   -0.34799  -0.34548  -0.34092  -0.32584  -0.32181
 Alpha  occ. eigenvalues --   -0.31973  -0.30023  -0.28445  -0.26503  -0.23544
 Alpha  occ. eigenvalues --   -0.20807
 Alpha virt. eigenvalues --   -0.04263  -0.00730   0.02927   0.05716   0.07648
 Alpha virt. eigenvalues --    0.09167   0.09569   0.10080   0.11650   0.12141
 Alpha virt. eigenvalues --    0.12513   0.12897   0.13501   0.13611   0.14136

 Mulliken charges:
               1
     1  O   -0.564880
     2  O   -0.577224
     3  C   -0.033921
     4  C   -0.001446
     5  C   -0.201520
     6  C   -0.186498
     7  C    0.178961
     8  C    0.182663
     9  C    0.080639
    10  C    0.049629
    11  C   -0.214002
    12  C   -0.212540
    13  C    0.066669
    14  C    0.024937
    15  C   -0.308864
    16  C   -0.296016
    17  C   -0.287656
    18  C   -0.329882
    19  C   -0.131586
    20  C   -0.161811
    21  C   -0.346041
    22  C   -0.338819
    23  C   -0.135507
    24  C   -0.070646
    25  C    0.095308
    26  C    0.125600
    27  C   -0.371260
    28  C   -0.364875
    29  C   -0.114575
    30  C   -0.134609
    31  C   -0.082831
    32  C   -0.082868
    33  C   -0.115852
    34  C   -0.113438
    35  C    0.157047
    36  C    0.084472
    37  C   -0.381398
    38  C   -0.362076
    39  C   -0.144055
    40  C   -0.065580
    41  C   -0.080963
    42  C   -0.088625
    43  H    0.122962
    44  H    0.059471
    45  H    0.078348
    46  H    0.107085
    47  H    0.079037
    48  H    0.091873
    49  H    0.112360
    50  H    0.100262
    51  H    0.123803
    52  H    0.084812
    53  H    0.088975
    54  H    0.110210
    55  H    0.108850
    56  H    0.086273
    57  H    0.115740
    58  H    0.099044
    59  H    0.117656
    60  H    0.118619
    61  H    0.064599
    62  H    0.103928
    63  H    0.095597
    64  H    0.114216
    65  H    0.084812
    66  H    0.077331
    67  H    0.128408
    68  H    0.115521
    69  H    0.093487
    70  H    0.125140
    71  H    0.109248
    72  H    0.087811
    73  H    0.298072
    74  H    0.293253
    75  H    0.064229
    76  H    0.083534
    77  H    0.124050
    78  H    0.102924
    79  H    0.122687
    80  H    0.126092
    81  H    0.108347
    82  H    0.089008
    83  H    0.074683
    84  H    0.071921
    85  H    0.080292
    86  H    0.074695
    87  H    0.072537
    88  H    0.068748
    89  H    0.098125
    90  H    0.105748
    91  H    0.141099
    92  H    0.131598
    93  H    0.136498
    94  H    0.094261
    95  H    0.076999
    96  H    0.055855
    97  H    0.070673
    98  H    0.084532
 Sum of Mulliken charges =  -0.00000

 Dipole moment (field-independent basis, Debye):
    X=             -0.6976    Y=             -1.5263    Z=              2.3558  Tot=              2.8924
 Quadrupole moment (field-independent basis, Debye-Ang):
   XX=           -276.5248   YY=           -248.9546   ZZ=           -258.0673
   XY=             20.8040   XZ=              6.4590   YZ=              0.0232

 Normal termination of Gaussian 16 at Wed Jun 26 22:25:10 2019.
