 Gaussian 16, Revision A.03,
 Gaussian 16:  ES64L-G16RevA.03 25-Dec-2016

 -------------------------------------
 # td=(NStates=1) CAM-B3LYP/6-31G(d,p)
 -------------------------------------

 --
 TD
 --
 Symbolic Z-matrix:
 Charge =  0 Multiplicity = 1

                         Standard orientation:
 ---------------------------------------------------------------------
 Center     Atomic      Atomic             Coordinates (Angstroms)
 Number     Number       Type             X           Y           Z
 ---------------------------------------------------------------------
      1          8           0       14.634071   -2.311737   -0.411286
      2          8           0      -14.774202    1.931685    0.726959
      3          6           0       11.252764   -1.270127    1.116196
      4          6           0      -12.299391   -0.999075    0.812973
      5          6           0       12.755885   -1.636386    1.086411
      6          6           0      -13.664729   -0.254781    0.672998
      7          6           0       13.318377   -2.058199   -0.286311
      8          6           0      -13.535013    1.288689    0.716379
      9          6           0       10.924732   -0.250503   -0.074098
     10          6           0      -11.382624   -0.257022   -0.237719
     11          6           0       13.115508   -0.898154   -1.286474
     12          6           0      -12.699473    1.773708   -0.587642
     13          6           0       11.743095   -0.112110   -1.123798
     14          6           0      -11.528467    0.914041   -0.813006
     15          6           0       11.069068   -0.468758    2.482175
     16          6           0       10.378321   -2.575586    1.049079
     17          6           0      -11.801433   -1.023764    2.258831
     18          6           0      -12.534867   -2.404582    0.437836
     19          6           0        9.610710    0.386408    0.077119
     20          6           0      -10.057318   -1.001130   -0.451593
     21          6           0       11.520756    0.943249   -2.342249
     22          6           0      -10.573087    1.479907   -1.852845
     23          6           0        9.345789    1.642522   -0.093048
     24          6           0       -8.782051   -0.490576   -0.367835
     25          6           0        7.973439    2.247100    0.065037
     26          6           0       -7.552241   -1.281351   -0.556343
     27          6           0        8.156937    3.622314    0.602855
     28          6           0       -7.767312   -2.723278   -0.984148
     29          6           0        6.862423    1.637279   -0.180142
     30          6           0       -6.332247   -0.717802   -0.285728
     31          6           0        5.499952    2.094253    0.114908
     32          6           0       -5.004709   -1.150237   -0.434041
     33          6           0        4.374161    1.371230    0.027264
     34          6           0       -3.995220   -0.394772   -0.364319
     35          6           0        3.111186    1.728350    0.174459
     36          6           0       -2.549929   -0.669754   -0.528067
     37          6           0        2.805484    3.032663    0.900638
     38          6           0       -2.220477   -2.097738   -0.781672
     39          6           0        2.128429    0.837249   -0.081768
     40          6           0       -1.595456    0.191086   -0.136360
     41          6           0        0.719597    0.953858    0.144029
     42          6           0       -0.171203   -0.010574   -0.127307
     43          1           0       13.401549   -0.717994    1.492813
     44          1           0       13.126335   -2.469108    1.913534
     45          1           0      -14.354813   -0.582514    1.551133
     46          1           0      -13.964695   -0.555225   -0.257626
     47          1           0       12.515910   -2.884708   -0.581738
     48          1           0      -13.387126    1.557037    1.788619
     49          1           0       13.790976   -0.144966   -0.885880
     50          1           0       13.077519   -1.224602   -2.268770
     51          1           0      -13.469840    1.561655   -1.373821
     52          1           0      -12.437970    2.872376   -0.475183
     53          1           0       11.629782   -0.993584    3.309750
     54          1           0        9.989257   -0.324285    2.763757
     55          1           0       11.668909    0.489052    2.436135
     56          1           0       10.139961   -3.139578   -0.024297
     57          1           0       10.518774   -3.513126    1.686623
     58          1           0        9.362583   -2.351729    1.455158
     59          1           0      -11.553330   -0.043989    2.489075
     60          1           0      -10.962397   -1.697278    2.347671
     61          1           0      -12.801606   -1.456046    2.742146
     62          1           0      -13.244151   -2.865953    1.037939
     63          1           0      -11.628194   -3.002115    0.408559
     64          1           0      -12.922516   -2.395641   -0.544526
     65          1           0        8.780060   -0.464872    0.108311
     66          1           0       -9.941209   -2.102410   -0.648910
     67          1           0       10.460970    0.885618   -2.463488
     68          1           0       12.009939    2.020416   -2.181235
     69          1           0       12.003472    0.443825   -3.124945
     70          1           0      -11.161230    1.941951   -2.768331
     71          1           0       -9.991501    0.755506   -2.499805
     72          1           0      -10.102019    2.236383   -1.486736
     73          1           0       14.835145   -2.858932    0.321704
     74          1           0      -15.341016    1.780045    1.626792
     75          1           0       10.332557    2.339071   -0.324804
     76          1           0       -8.480356    0.653291   -0.096361
     77          1           0        8.885717    4.076905    0.023587
     78          1           0        7.180920    3.997134    0.264115
     79          1           0        8.542006    3.687551    1.801647
     80          1           0       -8.317520   -3.520447   -0.332502
     81          1           0       -8.186672   -2.668039   -2.095493
     82          1           0       -6.805244   -3.228982   -1.041301
     83          1           0        6.842023    0.620070   -0.580755
     84          1           0       -6.368741    0.488528    0.091604
     85          1           0        5.256913    3.136167    0.741051
     86          1           0       -4.849742   -2.237181   -0.897007
     87          1           0        4.876086    0.363452   -0.411567
     88          1           0       -4.327005    0.583262   -0.113357
     89          1           0        3.252428    3.288151    2.011801
     90          1           0        1.648357    3.343123    1.159264
     91          1           0        3.279930    4.059132    0.402517
     92          1           0       -2.686252   -2.785955   -0.160557
     93          1           0       -2.903310   -2.443473   -1.746292
     94          1           0       -1.089156   -2.193705   -1.020945
     95          1           0        2.596218   -0.008557   -0.673364
     96          1           0       -1.931456    1.238557    0.027832
     97          1           0        0.297035    1.970482    0.416559
     98          1           0        0.312596   -0.859214   -0.441521
 ---------------------------------------------------------------------

 SCF Done:  E(RCAM-B3LYP) =  -1706.89710629     A.U. after   13 cycles

 Excitation energies and oscillator strengths:

 Excited State   1:      Singlet-A      2.9587 eV  419.05 nm  f=3.6566  <S**2>=0.000
     155 ->158         0.16687
     156 ->157         0.68147
 This state for optimization and/or second-order correction.
 Total Energy, E(TD-HF/TD-DFT) =  -1706.78837701
 Copying the excited state density for this state as the 1-particle RhoCI density.

 The electronic state is 1-A.
 Alpha  occ. eigenvalues --  -19.22497 -19.20588 -10.30853 -10.30508 -10.29383
 Alpha  occ. eigenvalues --  -10.29232 -10.27842 -10.27653 -10.27561 -10.27331
 Alpha  occ. eigenvalues --  -10.27322 -10.27259 -10.27132 -10.26988 -10.26897
 Alpha  occ. eigenvalues --  -10.26891 -10.26854 -10.26805 -10.26722 -10.26711
 Alpha  occ. eigenvalues --  -10.26633 -10.26580 -10.26562 -10.26530 -10.26272
 Alpha  occ. eigenvalues --  -10.26233 -10.26177 -10.26096 -10.26031 -10.25972
 Alpha  occ. eigenvalues --  -10.25966 -10.25946 -10.25808 -10.25766 -10.25763
 Alpha  occ. eigenvalues --  -10.25718 -10.25268 -10.24576 -10.24555 -10.24371
 Alpha  occ. eigenvalues --  -10.24312 -10.22753  -1.13685  -1.07930  -0.93437
 Alpha  occ. eigenvalues --   -0.93316  -0.92673  -0.92284  -0.90875  -0.90137
 Alpha  occ. eigenvalues --   -0.88335  -0.87844  -0.85848  -0.85179  -0.84632
 Alpha  occ. eigenvalues --   -0.82623  -0.81942  -0.79660  -0.79348  -0.77859
 Alpha  occ. eigenvalues --   -0.76504  -0.75911  -0.75874  -0.75672  -0.75339
 Alpha  occ. eigenvalues --   -0.75208  -0.75120  -0.74556  -0.74485  -0.70575
 Alpha  occ. eigenvalues --   -0.68396  -0.67363  -0.65922  -0.64407  -0.63935
 Alpha  occ. eigenvalues --   -0.63444  -0.62189  -0.61790  -0.59863  -0.59238
 Alpha  occ. eigenvalues --   -0.58931  -0.58592  -0.57743  -0.57371  -0.56227
 Alpha  occ. eigenvalues --   -0.55483  -0.55231  -0.54562  -0.53974  -0.53405
 Alpha  occ. eigenvalues --   -0.52932  -0.52433  -0.51786  -0.51747  -0.51500
 Alpha  occ. eigenvalues --   -0.50848  -0.50441  -0.50152  -0.49741  -0.49106
 Alpha  occ. eigenvalues --   -0.48725  -0.48048  -0.47918  -0.47802  -0.47446
 Alpha  occ. eigenvalues --   -0.47063  -0.46903  -0.46552  -0.46463  -0.45952
 Alpha  occ. eigenvalues --   -0.45757  -0.45580  -0.45472  -0.45178  -0.44889
 Alpha  occ. eigenvalues --   -0.44521  -0.44102  -0.43950  -0.43708  -0.43403
 Alpha  occ. eigenvalues --   -0.43195  -0.42931  -0.41897  -0.41875  -0.41723
 Alpha  occ. eigenvalues --   -0.41592  -0.41362  -0.40972  -0.40751  -0.40191
 Alpha  occ. eigenvalues --   -0.39769  -0.39715  -0.39603  -0.39338  -0.39229
 Alpha  occ. eigenvalues --   -0.39148  -0.38731  -0.38494  -0.38195  -0.37884
 Alpha  occ. eigenvalues --   -0.37803  -0.36142  -0.35679  -0.35472  -0.35213
 Alpha  occ. eigenvalues --   -0.34560  -0.34095  -0.33538  -0.32483  -0.31941
 Alpha  occ. eigenvalues --   -0.30611  -0.29968  -0.29014  -0.27542  -0.24647
 Alpha  occ. eigenvalues --   -0.21671
 Alpha virt. eigenvalues --   -0.04192   0.00056   0.03654   0.06361   0.08296
 Alpha virt. eigenvalues --    0.09481   0.09690   0.10918   0.11177   0.11910
 Alpha virt. eigenvalues --    0.12360   0.12535   0.12639   0.12945   0.13307

 Mulliken charges:
               1
     1  O   -0.507374
     2  O   -0.587805
     3  C    0.018442
     4  C   -0.035153
     5  C   -0.194612
     6  C   -0.174768
     7  C    0.167255
     8  C    0.186883
     9  C    0.044093
    10  C    0.058450
    11  C   -0.185912
    12  C   -0.237781
    13  C   -0.028574
    14  C    0.065121
    15  C   -0.311797
    16  C   -0.318549
    17  C   -0.265820
    18  C   -0.290103
    19  C   -0.090059
    20  C   -0.179228
    21  C   -0.341236
    22  C   -0.346459
    23  C   -0.118706
    24  C   -0.068112
    25  C    0.079126
    26  C    0.116037
    27  C   -0.343461
    28  C   -0.383852
    29  C   -0.118615
    30  C   -0.150673
    31  C   -0.092566
    32  C   -0.041885
    33  C   -0.111646
    34  C   -0.098823
    35  C    0.173919
    36  C    0.116029
    37  C   -0.380494
    38  C   -0.368932
    39  C   -0.145344
    40  C   -0.123522
    41  C   -0.087246
    42  C   -0.060256
    43  H    0.070543
    44  H    0.051864
    45  H    0.053622
    46  H    0.101276
    47  H    0.049816
    48  H    0.066726
    49  H    0.126513
    50  H    0.114861
    51  H    0.132521
    52  H    0.111946
    53  H    0.098194
    54  H    0.108909
    55  H    0.110186
    56  H    0.088611
    57  H    0.103609
    58  H    0.100137
    59  H    0.110920
    60  H    0.108677
    61  H    0.077865
    62  H    0.103290
    63  H    0.097851
    64  H    0.099896
    65  H    0.089887
    66  H    0.088926
    67  H    0.133156
    68  H    0.104707
    69  H    0.109995
    70  H    0.079346
    71  H    0.122552
    72  H    0.130869
    73  H    0.300733
    74  H    0.307035
    75  H    0.085313
    76  H    0.065977
    77  H    0.124872
    78  H    0.112170
    79  H    0.103597
    80  H    0.118735
    81  H    0.115656
    82  H    0.107930
    83  H    0.082446
    84  H    0.057750
    85  H    0.064408
    86  H    0.063704
    87  H    0.061656
    88  H    0.071257
    89  H    0.107980
    90  H    0.099375
    91  H    0.098117
    92  H    0.142604
    93  H    0.080613
    94  H    0.108027
    95  H    0.088060
    96  H    0.083461
    97  H    0.084748
    98  H    0.080512
 Sum of Mulliken charges =  -0.00000

 Dipole moment (field-independent basis, Debye):
    X=              0.2865    Y=             -1.3680    Z=              1.7010  Tot=              2.2016
 Quadrupole moment (field-independent basis, Debye-Ang):
   XX=           -264.6548   YY=           -248.0647   ZZ=           -260.7123
   XY=              8.2168   XZ=              1.1814   YZ=              2.1725

 Normal termination of Gaussian 16 at Sat Jul  6 02:21:31 2019.
