 Gaussian 16, Revision A.03,
 Gaussian 16:  ES64L-G16RevA.03 25-Dec-2016

 -------------------------------------
 # td=(NStates=1) CAM-B3LYP/6-31G(d,p)
 -------------------------------------

 --
 TD
 --
 Symbolic Z-matrix:
 Charge =  0 Multiplicity = 1

                         Standard orientation:
 ---------------------------------------------------------------------
 Center     Atomic      Atomic             Coordinates (Angstroms)
 Number     Number       Type             X           Y           Z
 ---------------------------------------------------------------------
      1          8           0       14.716422   -2.150436   -0.453128
      2          8           0      -14.752640    2.057827    0.637465
      3          6           0       11.441960   -1.152682    1.181123
      4          6           0      -12.393244   -0.956081    0.658861
      5          6           0       12.899120   -1.452037    1.033994
      6          6           0      -13.820439   -0.183120    0.589525
      7          6           0       13.301491   -1.932827   -0.425662
      8          6           0      -13.561994    1.338542    0.722349
      9          6           0       10.946781   -0.312567   -0.031802
     10          6           0      -11.336993   -0.231241   -0.207423
     11          6           0       13.044165   -0.862649   -1.372044
     12          6           0      -12.610056    1.805551   -0.486246
     13          6           0       11.609120   -0.329944   -1.193597
     14          6           0      -11.403922    0.979314   -0.827742
     15          6           0       11.360349   -0.261392    2.376501
     16          6           0       10.669962   -2.443066    1.345305
     17          6           0      -11.749640   -0.848604    2.157805
     18          6           0      -12.603910   -2.450178    0.283603
     19          6           0        9.595468    0.272015    0.078304
     20          6           0      -10.065657   -1.028997   -0.511824
     21          6           0       11.085716    0.445091   -2.452176
     22          6           0      -10.573097    1.516219   -1.850267
     23          6           0        9.282889    1.618241   -0.027973
     24          6           0       -8.831373   -0.681236   -0.353318
     25          6           0        8.038963    2.264719    0.223541
     26          6           0       -7.552259   -1.412675   -0.595116
     27          6           0        8.087660    3.758720    0.508818
     28          6           0       -7.617029   -2.850999   -0.851602
     29          6           0        6.861656    1.530400    0.006480
     30          6           0       -6.396729   -0.746056   -0.387857
     31          6           0        5.540938    2.124075    0.184836
     32          6           0       -5.049954   -1.254137   -0.354762
     33          6           0        4.415246    1.308382   -0.003763
     34          6           0       -3.982198   -0.459754   -0.066945
     35          6           0        3.091020    1.849609    0.072290
     36          6           0       -2.573234   -0.785798   -0.123060
     37          6           0        2.723352    3.189111    0.564596
     38          6           0       -2.230748   -2.276403   -0.360968
     39          6           0        2.088195    0.884380   -0.003725
     40          6           0       -1.610470    0.140893   -0.032213
     41          6           0        0.648135    0.933861   -0.067927
     42          6           0       -0.256820    0.000241   -0.201501
     43          1           0       13.562830   -0.622223    1.146736
     44          1           0       13.237453   -2.371510    1.762737
     45          1           0      -14.433899   -0.446172    1.453947
     46          1           0      -14.314568   -0.330578   -0.412196
     47          1           0       12.788044   -2.819493   -0.579208
     48          1           0      -12.894036    1.636611    1.626341
     49          1           0       13.607367   -0.035080   -1.451522
     50          1           0       13.087061   -1.234487   -2.405049
     51          1           0      -13.384706    1.554746   -1.353913
     52          1           0      -12.569429    2.851431   -0.476901
     53          1           0       11.679259   -0.766692    3.324817
     54          1           0       10.445775    0.126501    2.557322
     55          1           0       12.002340    0.594603    1.945084
     56          1           0       10.643615   -2.941565    0.372474
     57          1           0       10.791648   -3.056741    2.200914
     58          1           0        9.498633   -2.218027    1.638874
     59          1           0      -11.561927    0.103130    2.317216
     60          1           0      -10.736706   -1.489406    2.294796
     61          1           0      -12.613748   -1.449590    2.774020
     62          1           0      -13.295013   -2.888310    1.070633
     63          1           0      -11.894772   -3.351389    0.385464
     64          1           0      -13.287137   -2.343981   -0.727209
     65          1           0        8.960687   -0.284449    0.680418
     66          1           0      -10.259806   -2.287469   -0.284903
     67          1           0       10.021453    0.646507   -2.570717
     68          1           0       11.660640    1.394990   -3.008484
     69          1           0       11.301441   -0.284082   -3.281209
     70          1           0      -11.302060    1.599312   -2.832219
     71          1           0       -9.751453    0.929164   -2.217991
     72          1           0      -10.049612    2.399315   -1.526547
     73          1           0       14.964279   -2.940920    0.030595
     74          1           0      -15.513304    1.923456    1.351787
     75          1           0       10.162580    2.358682   -0.441384
     76          1           0       -8.727130    0.481315   -0.378431
     77          1           0        8.685126    4.107490   -0.385498
     78          1           0        7.207413    4.338334    0.842197
     79          1           0        8.533148    3.980487    1.395238
     80          1           0       -8.088836   -3.504278   -0.056059
     81          1           0       -8.426645   -2.926691   -1.696379
     82          1           0       -6.666898   -3.268250   -1.098946
     83          1           0        7.253223    0.562050   -0.308592
     84          1           0       -6.596772    0.350222   -0.029396
     85          1           0        5.466182    3.139644    0.443887
     86          1           0       -4.822921   -2.370893   -0.507480
     87          1           0        4.419097    0.245407   -0.378574
     88          1           0       -4.273611    0.655750    0.038488
     89          1           0        3.257968    3.311883    1.478625
     90          1           0        1.712223    3.324540    0.841485
     91          1           0        3.100076    3.945305   -0.164548
     92          1           0       -3.044221   -2.913272    0.234520
     93          1           0       -2.359914   -2.338880   -1.639501
     94          1           0       -1.129848   -2.680341   -0.220302
     95          1           0        2.522984   -0.065942   -0.360795
     96          1           0       -1.863168    1.236762   -0.028974
     97          1           0        0.224995    1.942542    0.160158
     98          1           0        0.279804   -1.050122   -0.211058
 ---------------------------------------------------------------------

 SCF Done:  E(RCAM-B3LYP) =  -1706.95065194     A.U. after   14 cycles

 Excitation energies and oscillator strengths:

 Excited State   1:      Singlet-A      2.5965 eV  477.51 nm  f=3.6085  <S**2>=0.000
     155 ->158        -0.17377
     156 ->157         0.67974
 This state for optimization and/or second-order correction.
 Total Energy, E(TD-HF/TD-DFT) =  -1706.85523356
 Copying the excited state density for this state as the 1-particle RhoCI density.

 The electronic state is 1-A.
 Alpha  occ. eigenvalues --  -19.22058 -19.20435 -10.31631 -10.29543 -10.29288
 Alpha  occ. eigenvalues --  -10.29120 -10.27666 -10.27574 -10.27221 -10.27174
 Alpha  occ. eigenvalues --  -10.27111 -10.27075 -10.27065 -10.27020 -10.26977
 Alpha  occ. eigenvalues --  -10.26963 -10.26855 -10.26706 -10.26431 -10.26404
 Alpha  occ. eigenvalues --  -10.26325 -10.26261 -10.26207 -10.26160 -10.26134
 Alpha  occ. eigenvalues --  -10.26076 -10.25998 -10.25958 -10.25862 -10.25838
 Alpha  occ. eigenvalues --  -10.25713 -10.25677 -10.25653 -10.25605 -10.25510
 Alpha  occ. eigenvalues --  -10.25496 -10.25288 -10.25216 -10.25098 -10.25083
 Alpha  occ. eigenvalues --  -10.24201 -10.23524  -1.08743  -1.08652  -0.94056
 Alpha  occ. eigenvalues --   -0.92591  -0.92285  -0.91464  -0.90595  -0.90047
 Alpha  occ. eigenvalues --   -0.87443  -0.87321  -0.86637  -0.85162  -0.84346
 Alpha  occ. eigenvalues --   -0.82855  -0.81819  -0.79925  -0.79791  -0.78169
 Alpha  occ. eigenvalues --   -0.76922  -0.76710  -0.76152  -0.75738  -0.75206
 Alpha  occ. eigenvalues --   -0.75042  -0.74884  -0.74232  -0.73516  -0.70719
 Alpha  occ. eigenvalues --   -0.68876  -0.67238  -0.66439  -0.65163  -0.63762
 Alpha  occ. eigenvalues --   -0.63407  -0.62178  -0.60409  -0.60163  -0.59833
 Alpha  occ. eigenvalues --   -0.58814  -0.58382  -0.57558  -0.57123  -0.56094
 Alpha  occ. eigenvalues --   -0.55352  -0.55236  -0.54983  -0.54201  -0.53377
 Alpha  occ. eigenvalues --   -0.52970  -0.52584  -0.52000  -0.51377  -0.51153
 Alpha  occ. eigenvalues --   -0.51000  -0.50667  -0.50111  -0.49827  -0.49730
 Alpha  occ. eigenvalues --   -0.49523  -0.49057  -0.48693  -0.48595  -0.48057
 Alpha  occ. eigenvalues --   -0.47296  -0.46843  -0.46708  -0.46360  -0.45815
 Alpha  occ. eigenvalues --   -0.45358  -0.45262  -0.45118  -0.44822  -0.44144
 Alpha  occ. eigenvalues --   -0.43738  -0.43650  -0.43310  -0.42899  -0.42795
 Alpha  occ. eigenvalues --   -0.42680  -0.42270  -0.41996  -0.41817  -0.41769
 Alpha  occ. eigenvalues --   -0.41296  -0.41103  -0.40392  -0.40295  -0.40227
 Alpha  occ. eigenvalues --   -0.40070  -0.39956  -0.39436  -0.39401  -0.38905
 Alpha  occ. eigenvalues --   -0.38768  -0.38679  -0.38241  -0.37859  -0.37758
 Alpha  occ. eigenvalues --   -0.37530  -0.37420  -0.36716  -0.36131  -0.35357
 Alpha  occ. eigenvalues --   -0.34743  -0.34254  -0.34069  -0.32503  -0.32261
 Alpha  occ. eigenvalues --   -0.30960  -0.29988  -0.28128  -0.26130  -0.23683
 Alpha  occ. eigenvalues --   -0.20434
 Alpha virt. eigenvalues --   -0.04606  -0.00522   0.02928   0.05776   0.07743
 Alpha virt. eigenvalues --    0.09162   0.10255   0.11125   0.11489   0.12019
 Alpha virt. eigenvalues --    0.12152   0.12614   0.13216   0.13449   0.13476

 Mulliken charges:
               1
     1  O   -0.568404
     2  O   -0.575009
     3  C   -0.013457
     4  C   -0.020656
     5  C   -0.176122
     6  C   -0.181247
     7  C    0.160301
     8  C    0.177557
     9  C    0.049908
    10  C    0.039806
    11  C   -0.186408
    12  C   -0.236364
    13  C    0.016045
    14  C    0.101038
    15  C   -0.274993
    16  C   -0.302212
    17  C   -0.277554
    18  C   -0.299119
    19  C   -0.144441
    20  C   -0.142460
    21  C   -0.361932
    22  C   -0.364561
    23  C   -0.099538
    24  C   -0.072893
    25  C    0.065287
    26  C    0.126251
    27  C   -0.366233
    28  C   -0.370998
    29  C   -0.093740
    30  C   -0.130763
    31  C   -0.113978
    32  C   -0.089329
    33  C   -0.100384
    34  C   -0.110696
    35  C    0.124493
    36  C    0.116117
    37  C   -0.375172
    38  C   -0.347846
    39  C   -0.148611
    40  C   -0.133478
    41  C   -0.086716
    42  C   -0.047693
    43  H    0.109673
    44  H    0.051484
    45  H    0.087085
    46  H    0.108405
    47  H    0.088838
    48  H    0.067607
    49  H    0.137969
    50  H    0.101722
    51  H    0.089171
    52  H    0.111836
    53  H    0.089871
    54  H    0.105531
    55  H    0.091397
    56  H    0.109599
    57  H    0.115382
    58  H    0.064695
    59  H    0.120682
    60  H    0.096314
    61  H    0.073139
    62  H    0.089457
    63  H    0.113370
    64  H    0.088459
    65  H    0.094825
    66  H    0.037767
    67  H    0.126810
    68  H    0.086324
    69  H    0.097541
    70  H    0.095552
    71  H    0.127949
    72  H    0.119426
    73  H    0.299415
    74  H    0.320361
    75  H    0.078239
    76  H    0.061542
    77  H    0.120919
    78  H    0.104338
    79  H    0.131978
    80  H    0.118616
    81  H    0.109884
    82  H    0.112802
    83  H    0.090772
    84  H    0.078989
    85  H    0.096947
    86  H    0.086398
    87  H    0.097284
    88  H    0.080218
    89  H    0.127247
    90  H    0.123161
    91  H    0.114927
    92  H    0.107131
    93  H    0.094429
    94  H    0.114366
    95  H    0.061159
    96  H    0.079734
    97  H    0.062197
    98  H    0.065274
 Sum of Mulliken charges =  -0.00000

 Dipole moment (field-independent basis, Debye):
    X=             -1.1304    Y=             -0.9735    Z=              2.0212  Tot=              2.5121
 Quadrupole moment (field-independent basis, Debye-Ang):
   XX=           -252.2638   YY=           -241.9387   ZZ=           -262.6578
   XY=              1.4544   XZ=            -10.1358   YZ=              0.4534

 Normal termination of Gaussian 16 at Sun Jun 30 15:09:32 2019.
