 Gaussian 16, Revision A.03,
 Gaussian 16:  ES64L-G16RevA.03 25-Dec-2016

 -------------------------------------
 # td=(NStates=1) CAM-B3LYP/6-31G(d,p)
 -------------------------------------

 --
 TD
 --
 Symbolic Z-matrix:
 Charge =  0 Multiplicity = 1

                         Standard orientation:
 ---------------------------------------------------------------------
 Center     Atomic      Atomic             Coordinates (Angstroms)
 Number     Number       Type             X           Y           Z
 ---------------------------------------------------------------------
      1          8           0       14.642630   -2.329402   -0.525016
      2          8           0      -14.742476    1.949842    0.828025
      3          6           0       11.479251   -1.078527    1.323861
      4          6           0      -12.244790   -1.024581    0.933763
      5          6           0       12.987984   -1.337720    1.073337
      6          6           0      -13.629495   -0.285567    0.920028
      7          6           0       13.323334   -1.965674   -0.259974
      8          6           0      -13.407857    1.269282    0.681696
      9          6           0       10.924644   -0.429897    0.040336
     10          6           0      -11.326423   -0.331915   -0.121698
     11          6           0       12.902476   -0.935933   -1.376783
     12          6           0      -12.896141    1.561834   -0.616811
     13          6           0       11.511098   -0.406723   -1.115075
     14          6           0      -11.596067    0.818808   -0.802843
     15          6           0       11.289959   -0.350877    2.577274
     16          6           0       10.679035   -2.453852    1.506087
     17          6           0      -11.591997   -0.834026    2.278204
     18          6           0      -12.399082   -2.459370    0.694744
     19          6           0        9.681921    0.274042    0.256722
     20          6           0      -10.089537   -1.112215   -0.394630
     21          6           0       10.861034    0.384569   -2.358831
     22          6           0      -10.781521    1.391523   -1.860526
     23          6           0        9.444603    1.593664   -0.035251
     24          6           0       -8.842154   -0.557863   -0.348978
     25          6           0        8.086563    2.314445    0.153702
     26          6           0       -7.556563   -1.272517   -0.480679
     27          6           0        8.221050    3.794859    0.508630
     28          6           0       -7.697390   -2.694895   -0.850209
     29          6           0        6.961929    1.583472    0.110807
     30          6           0       -6.411391   -0.643002   -0.227505
     31          6           0        5.557513    2.034224    0.330082
     32          6           0       -5.123274   -1.122321   -0.531233
     33          6           0        4.486494    1.272784   -0.001585
     34          6           0       -4.024598   -0.273620   -0.433426
     35          6           0        3.199759    1.765050    0.007268
     36          6           0       -2.620693   -0.608462   -0.612610
     37          6           0        2.846579    3.050192    0.639331
     38          6           0       -2.371795   -2.108746   -1.004256
     39          6           0        2.124365    0.904550   -0.348368
     40          6           0       -1.712519    0.375842   -0.462984
     41          6           0        0.633638    1.149315   -0.270608
     42          6           0       -0.249941    0.149218   -0.543475
     43          1           0       13.546864   -0.475512    1.241408
     44          1           0       13.330663   -2.087671    1.763508
     45          1           0      -14.411471   -0.483165    1.708324
     46          1           0      -14.195750   -0.721328   -0.023747
     47          1           0       12.677490   -2.778461   -0.726568
     48          1           0      -12.850968    1.733673    1.445831
     49          1           0       13.657548   -0.276977   -1.446992
     50          1           0       12.981271   -1.383249   -2.424723
     51          1           0      -13.652575    1.341655   -1.305255
     52          1           0      -12.659971    2.619848   -0.805346
     53          1           0       11.886383   -0.774104    3.503516
     54          1           0       10.124810   -0.450130    2.652980
     55          1           0       11.534528    0.951348    2.402191
     56          1           0       10.655062   -3.001708    0.414687
     57          1           0       11.245020   -3.033470    2.244670
     58          1           0        9.684199   -2.202097    2.082821
     59          1           0      -11.390503    0.124008    2.718278
     60          1           0      -10.432361   -1.327024    2.320975
     61          1           0      -12.232595   -1.135175    3.089656
     62          1           0      -13.298643   -2.812927    1.291724
     63          1           0      -11.538591   -2.886982    0.706222
     64          1           0      -12.761239   -2.601361   -0.190867
     65          1           0        8.887613   -0.272683    0.753078
     66          1           0      -10.202307   -2.090874   -0.865597
     67          1           0        9.745086    0.547690   -2.489129
     68          1           0       11.303750    1.476274   -2.537261
     69          1           0       11.162223   -0.092317   -3.356329
     70          1           0      -11.471864    1.553969   -2.667373
     71          1           0       -9.995481    0.615526   -2.270219
     72          1           0      -10.289153    2.320755   -1.670735
     73          1           0       14.792514   -3.232582   -0.162532
     74          1           0      -15.382771    1.356276    1.558354
     75          1           0       10.216686    2.084350   -0.467737
     76          1           0       -8.642834    0.569806   -0.172548
     77          1           0        8.636706    4.432354   -0.274446
     78          1           0        7.167163    4.149605    0.708003
     79          1           0        8.797762    4.050793    1.371003
     80          1           0       -8.345940   -2.936566    0.082533
     81          1           0       -8.373622   -2.986743   -1.745847
     82          1           0       -6.629472   -3.155667   -0.712994
     83          1           0        7.148339    0.621380   -0.432235
     84          1           0       -6.419710    0.511287   -0.090836
     85          1           0        5.315695    2.988569    0.753332
     86          1           0       -4.922867   -2.217554   -0.792526
     87          1           0        4.502583    0.132023   -0.500195
     88          1           0       -4.276837    0.756854   -0.077869
     89          1           0        3.620119    3.174354    1.426873
     90          1           0        1.678214    3.186756    0.739861
     91          1           0        3.039011    3.981493   -0.033671
     92          1           0       -2.761039   -2.728729   -0.310669
     93          1           0       -2.666755   -2.392398   -1.952489
     94          1           0       -1.364238   -2.556360   -0.933418
     95          1           0        2.449177   -0.195129   -0.739220
     96          1           0       -2.043310    1.295708   -0.259710
     97          1           0        0.153365    2.105588    0.159420
     98          1           0        0.291788   -0.752735   -0.989426
 ---------------------------------------------------------------------

 SCF Done:  E(RCAM-B3LYP) =  -1706.96132948     A.U. after   14 cycles

 Excitation energies and oscillator strengths:

 Excited State   1:      Singlet-A      2.8199 eV  439.68 nm  f=3.6034  <S**2>=0.000
     155 ->158         0.17732
     156 ->157         0.67949
 This state for optimization and/or second-order correction.
 Total Energy, E(TD-HF/TD-DFT) =  -1706.85770067
 Copying the excited state density for this state as the 1-particle RhoCI density.

 The electronic state is 1-A.
 Alpha  occ. eigenvalues --  -19.21673 -19.20566 -10.30396 -10.29537 -10.28345
 Alpha  occ. eigenvalues --  -10.27993 -10.27831 -10.27689 -10.27542 -10.27499
 Alpha  occ. eigenvalues --  -10.27472 -10.27361 -10.27216 -10.27152 -10.27055
 Alpha  occ. eigenvalues --  -10.27002 -10.26972 -10.26961 -10.26954 -10.26915
 Alpha  occ. eigenvalues --  -10.26811 -10.26770 -10.26707 -10.26647 -10.26582
 Alpha  occ. eigenvalues --  -10.26455 -10.26314 -10.26232 -10.26155 -10.26148
 Alpha  occ. eigenvalues --  -10.26061 -10.25530 -10.25326 -10.25255 -10.25034
 Alpha  occ. eigenvalues --  -10.24883 -10.24708 -10.24593 -10.24361 -10.24144
 Alpha  occ. eigenvalues --  -10.24094 -10.22215  -1.10089  -1.03634  -0.94010
 Alpha  occ. eigenvalues --   -0.93922  -0.92166  -0.91873  -0.90555  -0.89129
 Alpha  occ. eigenvalues --   -0.88828  -0.86935  -0.86554  -0.85260  -0.84732
 Alpha  occ. eigenvalues --   -0.82877  -0.81654  -0.80244  -0.79286  -0.78753
 Alpha  occ. eigenvalues --   -0.77932  -0.76300  -0.76171  -0.75654  -0.75440
 Alpha  occ. eigenvalues --   -0.75380  -0.74853  -0.74130  -0.73791  -0.70251
 Alpha  occ. eigenvalues --   -0.68399  -0.67019  -0.65869  -0.64927  -0.64540
 Alpha  occ. eigenvalues --   -0.63410  -0.62874  -0.61710  -0.60470  -0.59302
 Alpha  occ. eigenvalues --   -0.58927  -0.58759  -0.57524  -0.57112  -0.56068
 Alpha  occ. eigenvalues --   -0.55153  -0.54807  -0.54722  -0.54180  -0.53555
 Alpha  occ. eigenvalues --   -0.53271  -0.52793  -0.52499  -0.52098  -0.50763
 Alpha  occ. eigenvalues --   -0.50269  -0.50193  -0.50058  -0.49825  -0.49129
 Alpha  occ. eigenvalues --   -0.49017  -0.48689  -0.48242  -0.47843  -0.47690
 Alpha  occ. eigenvalues --   -0.47401  -0.47127  -0.46923  -0.46401  -0.46137
 Alpha  occ. eigenvalues --   -0.45779  -0.45530  -0.45161  -0.44887  -0.44757
 Alpha  occ. eigenvalues --   -0.44484  -0.44135  -0.43994  -0.43746  -0.43473
 Alpha  occ. eigenvalues --   -0.43294  -0.42774  -0.42542  -0.42171  -0.42086
 Alpha  occ. eigenvalues --   -0.41643  -0.41487  -0.41160  -0.40979  -0.40507
 Alpha  occ. eigenvalues --   -0.40210  -0.40150  -0.39857  -0.39827  -0.39719
 Alpha  occ. eigenvalues --   -0.39419  -0.38928  -0.38819  -0.38133  -0.37966
 Alpha  occ. eigenvalues --   -0.37449  -0.36828  -0.36132  -0.35795  -0.35138
 Alpha  occ. eigenvalues --   -0.34409  -0.33639  -0.33166  -0.32689  -0.31825
 Alpha  occ. eigenvalues --   -0.31232  -0.30086  -0.28288  -0.27108  -0.24250
 Alpha  occ. eigenvalues --   -0.21040
 Alpha virt. eigenvalues --   -0.04130  -0.00370   0.03329   0.05958   0.07919
 Alpha virt. eigenvalues --    0.09232   0.09373   0.10717   0.11234   0.11620
 Alpha virt. eigenvalues --    0.12221   0.12284   0.12575   0.13235   0.13446

 Mulliken charges:
               1
     1  O   -0.558105
     2  O   -0.603113
     3  C   -0.015129
     4  C   -0.003553
     5  C   -0.173022
     6  C   -0.225570
     7  C    0.148752
     8  C    0.188412
     9  C    0.096717
    10  C    0.042890
    11  C   -0.233753
    12  C   -0.204144
    13  C    0.048078
    14  C    0.066556
    15  C   -0.263833
    16  C   -0.294515
    17  C   -0.285248
    18  C   -0.275969
    19  C   -0.136139
    20  C   -0.183697
    21  C   -0.362701
    22  C   -0.375897
    23  C   -0.091988
    24  C   -0.075474
    25  C    0.074921
    26  C    0.127243
    27  C   -0.370745
    28  C   -0.368823
    29  C   -0.124138
    30  C   -0.143166
    31  C   -0.126238
    32  C   -0.078392
    33  C   -0.082932
    34  C   -0.138124
    35  C    0.156749
    36  C    0.125037
    37  C   -0.379487
    38  C   -0.386522
    39  C   -0.162063
    40  C   -0.132063
    41  C   -0.082948
    42  C   -0.080829
    43  H    0.115179
    44  H    0.075486
    45  H    0.077014
    46  H    0.083601
    47  H    0.077439
    48  H    0.102500
    49  H    0.124299
    50  H    0.087887
    51  H    0.127131
    52  H    0.107417
    53  H    0.101407
    54  H    0.092469
    55  H    0.062204
    56  H    0.099181
    57  H    0.103744
    58  H    0.095086
    59  H    0.105610
    60  H    0.074826
    61  H    0.095554
    62  H    0.093615
    63  H    0.108448
    64  H    0.108615
    65  H    0.086088
    66  H    0.103539
    67  H    0.123490
    68  H    0.094927
    69  H    0.088468
    70  H    0.113724
    71  H    0.103788
    72  H    0.121105
    73  H    0.310327
    74  H    0.289247
    75  H    0.080964
    76  H    0.082621
    77  H    0.122044
    78  H    0.099978
    79  H    0.128357
    80  H    0.119459
    81  H    0.123787
    82  H    0.098263
    83  H    0.094229
    84  H    0.079625
    85  H    0.088647
    86  H    0.087622
    87  H    0.074006
    88  H    0.078469
    89  H    0.119780
    90  H    0.108999
    91  H    0.105726
    92  H    0.132036
    93  H    0.134700
    94  H    0.102739
    95  H    0.069095
    96  H    0.082146
    97  H    0.084252
    98  H    0.092009
 Sum of Mulliken charges =  -0.00000

 Dipole moment (field-independent basis, Debye):
    X=              0.0568    Y=             -2.3923    Z=              0.7704  Tot=              2.5139
 Quadrupole moment (field-independent basis, Debye-Ang):
   XX=           -275.2983   YY=           -244.6570   ZZ=           -261.8893
   XY=             13.4344   XZ=              7.7406   YZ=              1.4278

 Normal termination of Gaussian 16 at Wed Jul  3 08:00:13 2019.
