 Gaussian 16, Revision A.03,
 Gaussian 16:  ES64L-G16RevA.03 25-Dec-2016

 -------------------------------------
 # td=(NStates=1) CAM-B3LYP/6-31G(d,p)
 -------------------------------------

 --
 TD
 --
 Symbolic Z-matrix:
 Charge =  0 Multiplicity = 1

                         Standard orientation:
 ---------------------------------------------------------------------
 Center     Atomic      Atomic             Coordinates (Angstroms)
 Number     Number       Type             X           Y           Z
 ---------------------------------------------------------------------
      1          8           0       14.767734   -2.158168   -0.240382
      2          8           0      -14.706949    1.992534    1.029903
      3          6           0       11.426383   -1.047399    1.430455
      4          6           0      -12.275159   -1.004266    0.912761
      5          6           0       12.908917   -1.365700    1.199287
      6          6           0      -13.620209   -0.185721    0.897945
      7          6           0       13.342613   -1.906183   -0.076413
      8          6           0      -13.516987    1.308495    0.934660
      9          6           0       10.950780   -0.286589    0.043963
     10          6           0      -11.378423   -0.264118   -0.108699
     11          6           0       13.009873   -0.853666   -1.123710
     12          6           0      -12.778393    1.796266   -0.348363
     13          6           0       11.569405   -0.277004   -1.174618
     14          6           0      -11.550372    0.891676   -0.659538
     15          6           0       11.240696   -0.095850    2.630686
     16          6           0       10.565560   -2.418641    1.527693
     17          6           0      -11.664242   -0.953938    2.295184
     18          6           0      -12.516023   -2.454371    0.513754
     19          6           0        9.586971    0.217141    0.128892
     20          6           0      -10.148241   -1.080654   -0.371383
     21          6           0       11.140565    0.301113   -2.450657
     22          6           0      -10.768422    1.577907   -1.694606
     23          6           0        9.369557    1.634870   -0.089837
     24          6           0       -8.839900   -0.576616   -0.343207
     25          6           0        8.056686    2.300724   -0.022618
     26          6           0       -7.563938   -1.347178   -0.555763
     27          6           0        8.051712    3.692332    0.547702
     28          6           0       -7.697865   -2.745970   -1.006248
     29          6           0        6.934381    1.476638   -0.238801
     30          6           0       -6.416850   -0.639278   -0.463731
     31          6           0        5.565755    1.993048   -0.103532
     32          6           0       -5.045607   -1.140332   -0.740547
     33          6           0        4.485069    1.187550   -0.232277
     34          6           0       -4.049814   -0.287216   -0.461348
     35          6           0        3.130494    1.558347   -0.043397
     36          6           0       -2.668454   -0.655125   -0.775790
     37          6           0        2.819671    2.933602    0.587804
     38          6           0       -2.434448   -2.132364   -1.068870
     39          6           0        2.135110    0.708614   -0.363043
     40          6           0       -1.668275    0.185830   -0.385240
     41          6           0        0.679829    0.945525   -0.289468
     42          6           0       -0.219510    0.035802   -0.554466
     43          1           0       13.463071   -0.397905    1.370572
     44          1           0       13.192261   -1.930613    1.988031
     45          1           0      -14.230794   -0.567298    1.736271
     46          1           0      -13.988297   -0.370081   -0.107307
     47          1           0       12.646011   -2.698755   -0.128467
     48          1           0      -12.837447    1.629040    1.817292
     49          1           0       13.970863    0.021633   -1.148679
     50          1           0       13.288839   -1.194786   -2.073788
     51          1           0      -13.757177    1.943105   -1.129179
     52          1           0      -12.582904    2.974441   -0.020938
     53          1           0       11.683238   -0.550428    3.649079
     54          1           0       10.210275   -0.051730    2.859851
     55          1           0       11.729359    0.672061    2.525249
     56          1           0       10.888721   -3.082389    0.855913
     57          1           0       10.968402   -2.811858    2.437349
     58          1           0        9.469582   -2.172468    1.537736
     59          1           0      -11.638783    0.122500    2.474138
     60          1           0      -10.738176   -1.283671    2.240273
     61          1           0      -12.295949   -1.557884    2.932512
     62          1           0      -13.458247   -2.685403    1.036509
     63          1           0      -11.754303   -3.087794    0.722988
     64          1           0      -12.652187   -2.544779   -0.678467
     65          1           0        8.771644   -0.235087    0.577299
     66          1           0      -10.157310   -2.207638   -0.727684
     67          1           0       10.195954    0.645183   -2.614265
     68          1           0       11.884299    1.065207   -2.503344
     69          1           0       11.442134   -0.540210   -3.138537
     70          1           0      -11.278521    1.860069   -2.470815
     71          1           0      -10.039819    0.702516   -1.899117
     72          1           0      -10.217095    2.425191   -1.500213
     73          1           0       15.142821   -2.492369    0.617111
     74          1           0      -15.308176    1.559741    1.786917
     75          1           0       10.262060    2.191926   -0.292642
     76          1           0       -8.714002    0.406272    0.028966
     77          1           0        8.601949    4.401368    0.152428
     78          1           0        7.070619    4.275706    0.586412
     79          1           0        8.479517    3.514922    1.631048
     80          1           0       -8.287097   -3.307066   -0.237539
     81          1           0       -8.140971   -2.849094   -1.997580
     82          1           0       -6.873171   -3.296428   -1.046759
     83          1           0        7.108467    0.334444   -0.499082
     84          1           0       -6.516989    0.452948   -0.280188
     85          1           0        5.518648    3.020036   -0.011356
     86          1           0       -4.952005   -2.118804   -1.046388
     87          1           0        4.636044    0.214810   -0.581742
     88          1           0       -4.284426    0.670105   -0.396440
     89          1           0        3.474075    2.760487    1.471060
     90          1           0        1.886481    3.330426    0.510405
     91          1           0        3.427726    3.677867   -0.066918
     92          1           0       -2.882839   -2.628553   -0.239441
     93          1           0       -2.795128   -2.404166   -1.933407
     94          1           0       -1.372388   -2.445613   -1.142326
     95          1           0        2.152476   -0.480770   -0.438877
     96          1           0       -1.758049    1.165290   -0.108028
     97          1           0        0.421530    1.985278    0.172073
     98          1           0        0.145526   -0.867696   -1.001840
 ---------------------------------------------------------------------

 SCF Done:  E(RCAM-B3LYP) =  -1706.93798374     A.U. after   14 cycles

 Excitation energies and oscillator strengths:

 Excited State   1:      Singlet-A      2.8897 eV  429.05 nm  f=3.3855  <S**2>=0.000
     155 ->158         0.20955
     156 ->157         0.66176
 This state for optimization and/or second-order correction.
 Total Energy, E(TD-HF/TD-DFT) =  -1706.83178740
 Copying the excited state density for this state as the 1-particle RhoCI density.

 The electronic state is 1-A.
 Alpha  occ. eigenvalues --  -19.22161 -19.21775 -10.30034 -10.29663 -10.28901
 Alpha  occ. eigenvalues --  -10.27982 -10.27166 -10.27094 -10.27039 -10.27016
 Alpha  occ. eigenvalues --  -10.27000 -10.26975 -10.26968 -10.26875 -10.26401
 Alpha  occ. eigenvalues --  -10.26268 -10.26238 -10.26229 -10.26218 -10.26187
 Alpha  occ. eigenvalues --  -10.26182 -10.25947 -10.25910 -10.25841 -10.25764
 Alpha  occ. eigenvalues --  -10.25755 -10.25722 -10.25656 -10.25328 -10.25192
 Alpha  occ. eigenvalues --  -10.25101 -10.25017 -10.24839 -10.24781 -10.24705
 Alpha  occ. eigenvalues --  -10.24490 -10.24315 -10.24241 -10.24072 -10.23922
 Alpha  occ. eigenvalues --  -10.22694 -10.22160  -1.09192  -1.08351  -0.93682
 Alpha  occ. eigenvalues --   -0.93013  -0.92095  -0.91531  -0.90070  -0.89431
 Alpha  occ. eigenvalues --   -0.87767  -0.87539  -0.87224  -0.85021  -0.84175
 Alpha  occ. eigenvalues --   -0.83123  -0.82226  -0.80911  -0.80086  -0.78487
 Alpha  occ. eigenvalues --   -0.78148  -0.77562  -0.76859  -0.76851  -0.76397
 Alpha  occ. eigenvalues --   -0.76101  -0.75367  -0.74419  -0.73747  -0.70347
 Alpha  occ. eigenvalues --   -0.68778  -0.66704  -0.65736  -0.64866  -0.64290
 Alpha  occ. eigenvalues --   -0.63495  -0.62496  -0.62095  -0.61674  -0.60395
 Alpha  occ. eigenvalues --   -0.59577  -0.58881  -0.57809  -0.57256  -0.56453
 Alpha  occ. eigenvalues --   -0.55962  -0.55506  -0.55323  -0.54637  -0.54029
 Alpha  occ. eigenvalues --   -0.53614  -0.53006  -0.52566  -0.52230  -0.51841
 Alpha  occ. eigenvalues --   -0.50852  -0.50767  -0.49968  -0.49865  -0.49545
 Alpha  occ. eigenvalues --   -0.49511  -0.49315  -0.49055  -0.48801  -0.48447
 Alpha  occ. eigenvalues --   -0.48355  -0.48200  -0.47759  -0.47289  -0.46823
 Alpha  occ. eigenvalues --   -0.46342  -0.46233  -0.45941  -0.45538  -0.45431
 Alpha  occ. eigenvalues --   -0.44978  -0.44894  -0.44708  -0.44425  -0.43790
 Alpha  occ. eigenvalues --   -0.43385  -0.43182  -0.42798  -0.42153  -0.42041
 Alpha  occ. eigenvalues --   -0.41525  -0.41273  -0.41045  -0.40882  -0.40483
 Alpha  occ. eigenvalues --   -0.40300  -0.40132  -0.39902  -0.39638  -0.39365
 Alpha  occ. eigenvalues --   -0.38778  -0.38580  -0.38201  -0.37651  -0.37514
 Alpha  occ. eigenvalues --   -0.37458  -0.37327  -0.37088  -0.35869  -0.35534
 Alpha  occ. eigenvalues --   -0.35045  -0.33570  -0.33213  -0.32596  -0.31281
 Alpha  occ. eigenvalues --   -0.31062  -0.29940  -0.28323  -0.26411  -0.23691
 Alpha  occ. eigenvalues --   -0.20993
 Alpha virt. eigenvalues --   -0.03446  -0.00387   0.03032   0.05899   0.08245
 Alpha virt. eigenvalues --    0.09108   0.10586   0.11115   0.11855   0.12558
 Alpha virt. eigenvalues --    0.13052   0.13282   0.13373   0.13812   0.13901

 Mulliken charges:
               1
     1  O   -0.568959
     2  O   -0.561764
     3  C   -0.029030
     4  C   -0.026173
     5  C   -0.197520
     6  C   -0.196992
     7  C    0.196452
     8  C    0.200068
     9  C    0.013830
    10  C    0.072829
    11  C   -0.206683
    12  C   -0.232535
    13  C    0.050921
    14  C    0.053442
    15  C   -0.268604
    16  C   -0.309434
    17  C   -0.274449
    18  C   -0.294437
    19  C   -0.121500
    20  C   -0.176123
    21  C   -0.336110
    22  C   -0.350366
    23  C   -0.131001
    24  C   -0.099154
    25  C    0.071842
    26  C    0.107978
    27  C   -0.359771
    28  C   -0.378010
    29  C   -0.126097
    30  C   -0.143956
    31  C   -0.081952
    32  C   -0.071429
    33  C   -0.096248
    34  C   -0.086148
    35  C    0.084118
    36  C    0.060406
    37  C   -0.351472
    38  C   -0.370461
    39  C   -0.146511
    40  C   -0.097274
    41  C   -0.070382
    42  C   -0.094528
    43  H    0.086742
    44  H    0.075342
    45  H    0.062924
    46  H    0.104652
    47  H    0.084940
    48  H    0.052180
    49  H    0.064348
    50  H    0.103942
    51  H    0.092075
    52  H    0.088106
    53  H    0.066568
    54  H    0.113861
    55  H    0.117929
    56  H    0.118707
    57  H    0.104689
    58  H    0.108845
    59  H    0.101375
    60  H    0.114295
    61  H    0.094402
    62  H    0.100299
    63  H    0.115994
    64  H    0.084223
    65  H    0.086521
    66  H    0.085833
    67  H    0.130486
    68  H    0.130286
    69  H    0.109197
    70  H    0.120479
    71  H    0.097394
    72  H    0.117712
    73  H    0.308449
    74  H    0.307197
    75  H    0.084454
    76  H    0.090034
    77  H    0.132533
    78  H    0.103036
    79  H    0.117825
    80  H    0.111257
    81  H    0.129625
    82  H    0.113423
    83  H    0.087091
    84  H    0.081205
    85  H    0.080132
    86  H    0.089249
    87  H    0.081356
    88  H    0.085701
    89  H    0.138754
    90  H    0.120163
    91  H    0.099658
    92  H    0.132083
    93  H    0.130658
    94  H    0.102741
    95  H    0.073211
    96  H    0.071001
    97  H    0.065351
    98  H    0.072657
 Sum of Mulliken charges =  -0.00000

 Dipole moment (field-independent basis, Debye):
    X=              1.4086    Y=             -1.4996    Z=              2.2920  Tot=              3.0800
 Quadrupole moment (field-independent basis, Debye-Ang):
   XX=           -271.5029   YY=           -244.6417   ZZ=           -259.2231
   XY=             23.2085   XZ=             10.5667   YZ=             -0.5778

 Normal termination of Gaussian 16 at Sat Jul  6 05:04:34 2019.
