 Gaussian 16, Revision A.03,
 Gaussian 16:  ES64L-G16RevA.03 25-Dec-2016

 -------------------------------------
 # td=(NStates=1) CAM-B3LYP/6-31G(d,p)
 -------------------------------------

 --
 TD
 --
 Symbolic Z-matrix:
 Charge =  0 Multiplicity = 1

                         Standard orientation:
 ---------------------------------------------------------------------
 Center     Atomic      Atomic             Coordinates (Angstroms)
 Number     Number       Type             X           Y           Z
 ---------------------------------------------------------------------
      1          8           0       14.677642   -2.144405   -0.346680
      2          8           0      -14.867975    1.875211    0.724819
      3          6           0       11.511082   -1.107550    1.211555
      4          6           0      -12.392306   -0.979609    0.848727
      5          6           0       12.938293   -1.369043    1.117450
      6          6           0      -13.760605   -0.276060    0.817768
      7          6           0       13.234734   -1.969699   -0.184172
      8          6           0      -13.557995    1.263559    0.888505
      9          6           0       10.935060   -0.272305    0.124203
     10          6           0      -11.359112   -0.244748   -0.161925
     11          6           0       12.966756   -0.948354   -1.327537
     12          6           0      -12.862724    1.625290   -0.361074
     13          6           0       11.615001   -0.253202   -1.114093
     14          6           0      -11.561805    0.933018   -0.682557
     15          6           0       11.250531   -0.311819    2.601791
     16          6           0       10.628320   -2.376028    1.367689
     17          6           0      -11.664435   -0.878540    2.199059
     18          6           0      -12.526054   -2.461591    0.559799
     19          6           0        9.632075    0.428026    0.254657
     20          6           0      -10.123774   -0.984314   -0.506592
     21          6           0       11.152867    0.419129   -2.505996
     22          6           0      -10.677495    1.708281   -1.653763
     23          6           0        9.316298    1.548499   -0.111248
     24          6           0       -8.782784   -0.576010   -0.411907
     25          6           0        8.074886    2.285797    0.065836
     26          6           0       -7.582270   -1.248556   -0.731658
     27          6           0        8.208252    3.804448    0.296569
     28          6           0       -7.682531   -2.713440   -1.032295
     29          6           0        6.948250    1.557425   -0.118308
     30          6           0       -6.434630   -0.549296   -0.534807
     31          6           0        5.529661    2.046462    0.033180
     32          6           0       -5.058634   -1.046603   -0.774876
     33          6           0        4.508937    1.178326   -0.076085
     34          6           0       -4.039960   -0.323595   -0.307398
     35          6           0        3.152465    1.521751    0.236031
     36          6           0       -2.623181   -0.721969   -0.490958
     37          6           0        2.867635    3.007825    0.644596
     38          6           0       -2.315546   -2.073507   -0.936312
     39          6           0        2.095007    0.653602   -0.055209
     40          6           0       -1.555858    0.126331   -0.217239
     41          6           0        0.706608    0.859494    0.006246
     42          6           0       -0.200640   -0.054927   -0.329766
     43          1           0       13.489148   -0.297935    1.142309
     44          1           0       13.463949   -2.077535    2.022047
     45          1           0      -14.448118   -0.654301    1.604164
     46          1           0      -14.333122   -0.614794   -0.085605
     47          1           0       12.706006   -3.018294   -0.582442
     48          1           0      -13.013187    1.556885    1.893554
     49          1           0       13.726156   -0.224553   -1.099454
     50          1           0       13.177784   -1.543650   -2.168893
     51          1           0      -13.422421    1.595188   -1.189822
     52          1           0      -12.508649    2.684373   -0.362396
     53          1           0       11.920850   -0.842613    3.292052
     54          1           0       10.221002   -0.387268    2.893643
     55          1           0       11.507986    0.824541    2.399015
     56          1           0       10.890380   -3.137394    0.638815
     57          1           0       10.903810   -2.780561    2.450108
     58          1           0        9.363374   -1.988922    1.401021
     59          1           0      -11.707199    0.081699    2.650485
     60          1           0      -10.869393   -1.271368    2.162290
     61          1           0      -12.371963   -1.670122    2.856070
     62          1           0      -13.200196   -2.874951    1.235737
     63          1           0      -11.424022   -2.912392    0.872379
     64          1           0      -12.662091   -2.424558   -0.608825
     65          1           0        8.739469   -0.273386    0.400982
     66          1           0      -10.326607   -2.044323   -0.887612
     67          1           0       10.214028    0.996205   -2.460668
     68          1           0       11.977277    1.179237   -2.868689
     69          1           0       11.086854   -0.595626   -3.122311
     70          1           0      -11.292776    1.997087   -2.493118
     71          1           0       -9.651469    1.171799   -2.137274
     72          1           0      -10.085072    2.458978   -1.162513
     73          1           0       14.811365   -2.877966    0.412068
     74          1           0      -15.314881    1.645588    1.546487
     75          1           0       10.166822    2.362293   -0.287072
     76          1           0       -8.604487    0.490322   -0.133387
     77          1           0        9.041910    4.293951   -0.168925
     78          1           0        7.186065    4.257639    0.259849
     79          1           0        8.449525    4.092849    1.308117
     80          1           0       -7.972448   -3.201999   -0.105534
     81          1           0       -8.389253   -2.992481   -1.977849
     82          1           0       -6.808400   -3.277324   -1.096904
     83          1           0        7.082683    0.452849   -0.513477
     84          1           0       -6.604812    0.479796   -0.375114
     85          1           0        5.395498    2.998406    0.374723
     86          1           0       -5.027478   -2.166998   -1.037400
     87          1           0        4.476704    0.153794   -0.278582
     88          1           0       -4.258453    0.689052    0.177231
     89          1           0        3.420612    3.472818    1.646496
     90          1           0        1.734975    3.295469    0.396602
     91          1           0        3.439480    3.438782   -0.173619
     92          1           0       -3.016435   -2.651292   -0.232286
     93          1           0       -2.793406   -2.254772   -1.858014
     94          1           0       -1.299250   -2.175344   -1.043610
     95          1           0        2.486010   -0.281142   -0.431413
     96          1           0       -1.690947    1.088615    0.155159
     97          1           0        0.323915    1.876416    0.306598
     98          1           0        0.153292   -1.326200   -0.467614
 ---------------------------------------------------------------------

 SCF Done:  E(RCAM-B3LYP) =  -1706.89087274     A.U. after   14 cycles

 Excitation energies and oscillator strengths:

 Excited State   1:      Singlet-A      2.7384 eV  452.77 nm  f=3.7034  <S**2>=0.000
     155 ->158        -0.15820
     156 ->157         0.68559
 This state for optimization and/or second-order correction.
 Total Energy, E(TD-HF/TD-DFT) =  -1706.79024010
 Copying the excited state density for this state as the 1-particle RhoCI density.

 The electronic state is 1-A.
 Alpha  occ. eigenvalues --  -19.21793 -19.21295 -10.31720 -10.31208 -10.27730
 Alpha  occ. eigenvalues --  -10.27696 -10.27634 -10.27570 -10.27555 -10.27510
 Alpha  occ. eigenvalues --  -10.27483 -10.27435 -10.27301 -10.27278 -10.27173
 Alpha  occ. eigenvalues --  -10.27097 -10.27057 -10.26920 -10.26919 -10.26646
 Alpha  occ. eigenvalues --  -10.26644 -10.26444 -10.26267 -10.26231 -10.26200
 Alpha  occ. eigenvalues --  -10.26164 -10.26109 -10.26099 -10.26064 -10.25836
 Alpha  occ. eigenvalues --  -10.25786 -10.25767 -10.25623 -10.25226 -10.25123
 Alpha  occ. eigenvalues --  -10.25077 -10.25060 -10.24856 -10.24563 -10.24463
 Alpha  occ. eigenvalues --  -10.23863 -10.23489  -1.09083  -1.07437  -0.94004
 Alpha  occ. eigenvalues --   -0.93522  -0.92640  -0.91808  -0.91207  -0.90476
 Alpha  occ. eigenvalues --   -0.88199  -0.87752  -0.85773  -0.85276  -0.84761
 Alpha  occ. eigenvalues --   -0.83519  -0.82016  -0.80134  -0.79550  -0.78463
 Alpha  occ. eigenvalues --   -0.77411  -0.76871  -0.76253  -0.75594  -0.75433
 Alpha  occ. eigenvalues --   -0.75199  -0.74880  -0.74286  -0.73882  -0.70960
 Alpha  occ. eigenvalues --   -0.68692  -0.66937  -0.65651  -0.64111  -0.63355
 Alpha  occ. eigenvalues --   -0.63067  -0.62763  -0.60988  -0.60201  -0.60199
 Alpha  occ. eigenvalues --   -0.59194  -0.58520  -0.57923  -0.57264  -0.56427
 Alpha  occ. eigenvalues --   -0.55576  -0.55113  -0.54887  -0.53948  -0.53540
 Alpha  occ. eigenvalues --   -0.53338  -0.52584  -0.51784  -0.51466  -0.51335
 Alpha  occ. eigenvalues --   -0.51182  -0.50851  -0.49709  -0.49494  -0.49438
 Alpha  occ. eigenvalues --   -0.48714  -0.48557  -0.48070  -0.48033  -0.47720
 Alpha  occ. eigenvalues --   -0.47470  -0.47167  -0.47129  -0.46893  -0.46325
 Alpha  occ. eigenvalues --   -0.46051  -0.45805  -0.45786  -0.45394  -0.45141
 Alpha  occ. eigenvalues --   -0.44942  -0.44372  -0.44189  -0.43559  -0.43381
 Alpha  occ. eigenvalues --   -0.42916  -0.42446  -0.42276  -0.42232  -0.41963
 Alpha  occ. eigenvalues --   -0.41808  -0.41534  -0.40877  -0.40733  -0.40593
 Alpha  occ. eigenvalues --   -0.40469  -0.40361  -0.40146  -0.39598  -0.39185
 Alpha  occ. eigenvalues --   -0.38795  -0.38547  -0.38176  -0.38012  -0.37870
 Alpha  occ. eigenvalues --   -0.37568  -0.37048  -0.36969  -0.36197  -0.35618
 Alpha  occ. eigenvalues --   -0.35098  -0.34458  -0.33924  -0.32494  -0.32266
 Alpha  occ. eigenvalues --   -0.31950  -0.29915  -0.28109  -0.26394  -0.24291
 Alpha  occ. eigenvalues --   -0.20788
 Alpha virt. eigenvalues --   -0.04450   0.00098   0.03321   0.06212   0.08165
 Alpha virt. eigenvalues --    0.09729   0.10069   0.10422   0.11276   0.11500
 Alpha virt. eigenvalues --    0.11812   0.12199   0.12787   0.13032   0.13101

 Mulliken charges:
               1
     1  O   -0.559179
     2  O   -0.553987
     3  C   -0.011586
     4  C   -0.023246
     5  C   -0.170069
     6  C   -0.186255
     7  C    0.132552
     8  C    0.145141
     9  C    0.047460
    10  C    0.032328
    11  C   -0.206305
    12  C   -0.199364
    13  C    0.013947
    14  C    0.054338
    15  C   -0.298547
    16  C   -0.269731
    17  C   -0.235422
    18  C   -0.290045
    19  C   -0.079071
    20  C   -0.157455
    21  C   -0.330401
    22  C   -0.360358
    23  C   -0.105793
    24  C   -0.110656
    25  C    0.105891
    26  C    0.148075
    27  C   -0.382365
    28  C   -0.375739
    29  C   -0.139377
    30  C   -0.143809
    31  C   -0.105518
    32  C   -0.094820
    33  C   -0.066094
    34  C   -0.094697
    35  C    0.087999
    36  C    0.086501
    37  C   -0.372797
    38  C   -0.355879
    39  C   -0.130752
    40  C   -0.118466
    41  C   -0.097217
    42  C   -0.050705
    43  H    0.107244
    44  H    0.053954
    45  H    0.073048
    46  H    0.103185
    47  H    0.066573
    48  H    0.083317
    49  H    0.133071
    50  H    0.119234
    51  H    0.134985
    52  H    0.097943
    53  H    0.098679
    54  H    0.112006
    55  H    0.090029
    56  H    0.106736
    57  H    0.080664
    58  H    0.072542
    59  H    0.097285
    60  H    0.112159
    61  H    0.041168
    62  H    0.115034
    63  H    0.079709
    64  H    0.100223
    65  H    0.077498
    66  H    0.083749
    67  H    0.118951
    68  H    0.104649
    69  H    0.103834
    70  H    0.117250
    71  H    0.090704
    72  H    0.127358
    73  H    0.296220
    74  H    0.301472
    75  H    0.056730
    76  H    0.070154
    77  H    0.129425
    78  H    0.111400
    79  H    0.127057
    80  H    0.128504
    81  H    0.107184
    82  H    0.108154
    83  H    0.087558
    84  H    0.080835
    85  H    0.085200
    86  H    0.089364
    87  H    0.080996
    88  H    0.091673
    89  H    0.103597
    90  H    0.097224
    91  H    0.130234
    92  H    0.113100
    93  H    0.129181
    94  H    0.106330
    95  H    0.074596
    96  H    0.069110
    97  H    0.089157
    98  H    0.054235
 Sum of Mulliken charges =  -0.00000

 Dipole moment (field-independent basis, Debye):
    X=             -1.0547    Y=             -0.9458    Z=              1.9015  Tot=              2.3712
 Quadrupole moment (field-independent basis, Debye-Ang):
   XX=           -280.2714   YY=           -245.7655   ZZ=           -262.7952
   XY=             10.7306   XZ=             -2.0565   YZ=              2.8741

 Normal termination of Gaussian 16 at Sat Jul  6 14:10:35 2019.
