 Gaussian 16, Revision A.03,
 Gaussian 16:  ES64L-G16RevA.03 25-Dec-2016

 -------------------------------------
 # td=(NStates=1) CAM-B3LYP/6-31G(d,p)
 -------------------------------------

 --
 TD
 --
 Symbolic Z-matrix:
 Charge =  0 Multiplicity = 1

                         Standard orientation:
 ---------------------------------------------------------------------
 Center     Atomic      Atomic             Coordinates (Angstroms)
 Number     Number       Type             X           Y           Z
 ---------------------------------------------------------------------
      1          8           0       14.813488   -2.175803   -0.440079
      2          8           0      -14.894534    1.981324    0.692114
      3          6           0       11.500901   -1.101320    1.222517
      4          6           0      -12.350972   -0.897007    0.831470
      5          6           0       12.991117   -1.411525    1.053801
      6          6           0      -13.743968   -0.225352    0.753913
      7          6           0       13.436957   -1.845809   -0.316335
      8          6           0      -13.562503    1.314594    0.716980
      9          6           0       11.015172   -0.239654   -0.051116
     10          6           0      -11.376740   -0.297401   -0.235875
     11          6           0       13.217341   -0.791866   -1.260974
     12          6           0      -12.867537    1.730835   -0.575447
     13          6           0       11.721524   -0.195913   -1.193076
     14          6           0      -11.605751    0.855740   -0.748761
     15          6           0       11.363616   -0.367534    2.588466
     16          6           0       10.750185   -2.445893    1.400537
     17          6           0      -11.679306   -0.748034    2.147378
     18          6           0      -12.426155   -2.384185    0.568742
     19          6           0        9.770660    0.336620    0.104324
     20          6           0      -10.142046   -0.999165   -0.335343
     21          6           0       11.189476    0.383135   -2.334271
     22          6           0      -10.676134    1.480378   -1.807880
     23          6           0        9.305644    1.581281   -0.171954
     24          6           0       -8.900358   -0.577289   -0.208708
     25          6           0        8.014226    2.222493    0.212015
     26          6           0       -7.693185   -1.309446   -0.467222
     27          6           0        8.129913    3.764546    0.437918
     28          6           0       -7.812569   -2.803546   -0.958140
     29          6           0        6.859365    1.529285    0.044944
     30          6           0       -6.453138   -0.700824   -0.270344
     31          6           0        5.587418    2.061465    0.179455
     32          6           0       -5.133816   -1.121581   -0.629160
     33          6           0        4.472855    1.289869    0.071543
     34          6           0       -4.044010   -0.329348   -0.414585
     35          6           0        3.065971    1.704881    0.151582
     36          6           0       -2.613578   -0.783112   -0.484522
     37          6           0        2.775806    3.143157    0.364481
     38          6           0       -2.407358   -2.150888   -0.998207
     39          6           0        2.149274    0.654088   -0.020389
     40          6           0       -1.660840    0.090657   -0.169417
     41          6           0        0.659149    0.939133    0.016782
     42          6           0       -0.216080   -0.109594   -0.137167
     43          1           0       13.471276   -0.418028    1.183235
     44          1           0       13.190104   -2.132776    1.885941
     45          1           0      -14.303621   -0.494325    1.489936
     46          1           0      -14.411569   -0.565852   -0.132633
     47          1           0       12.599224   -2.710193   -0.675591
     48          1           0      -13.022132    1.665229    1.609851
     49          1           0       13.914008    0.001973   -1.408076
     50          1           0       13.271069   -1.174506   -2.369900
     51          1           0      -13.399921    1.274858   -1.465797
     52          1           0      -12.607391    2.739703   -0.532654
     53          1           0       11.912850   -0.921155    3.379937
     54          1           0       10.300268   -0.313083    2.840044
     55          1           0       11.857846    0.718405    2.699241
     56          1           0       10.953153   -3.047098    0.290320
     57          1           0       10.898935   -3.014571    2.265563
     58          1           0        9.536685   -2.159026    1.092231
     59          1           0      -11.931708    0.339903    2.651758
     60          1           0      -10.536352   -0.902104    2.205517
     61          1           0      -12.087737   -1.671457    2.754804
     62          1           0      -13.156905   -2.812594    1.293918
     63          1           0      -11.546256   -2.927255    0.712880
     64          1           0      -12.818560   -2.586382   -0.467783
     65          1           0        9.080818   -0.443834    0.861736
     66          1           0      -10.266313   -1.994713   -0.868512
     67          1           0       10.188508    0.452138   -2.532497
     68          1           0       11.617325    1.399703   -2.388761
     69          1           0       11.784154   -0.103804   -3.384560
     70          1           0      -11.442190    1.684284   -2.624117
     71          1           0      -10.040305    0.662684   -1.982217
     72          1           0      -10.168293    2.446528   -1.464457
     73          1           0       14.916404   -2.809361    0.143847
     74          1           0      -15.324662    1.540493    1.593555
     75          1           0        9.923802    2.339846   -0.594722
     76          1           0       -8.896183    0.417655    0.252202
     77          1           0        8.611828    4.313762   -0.596755
     78          1           0        7.078960    4.076197    0.574155
     79          1           0        8.744817    3.910065    1.328167
     80          1           0       -8.264681   -3.325280   -0.203075
     81          1           0       -8.397777   -2.891347   -1.812803
     82          1           0       -6.767093   -3.303220   -1.262969
     83          1           0        6.780619    0.562701   -0.210775
     84          1           0       -6.777377    0.359509    0.025195
     85          1           0        5.409360    3.038401    0.415016
     86          1           0       -4.970343   -2.225781   -0.793628
     87          1           0        4.559808    0.312966   -0.099492
     88          1           0       -4.148338    0.685977   -0.156548
     89          1           0        3.525346    3.380019    1.104064
     90          1           0        1.634373    3.373782    0.480260
     91          1           0        3.140009    3.659119   -0.401772
     92          1           0       -2.643312   -2.802416   -0.084457
     93          1           0       -3.062015   -2.633179   -1.841363
     94          1           0       -1.372240   -2.159064   -1.220267
     95          1           0        2.389276   -0.457581    0.033622
     96          1           0       -2.202380    0.900430    0.051636
     97          1           0        0.122076    2.038059    0.182611
     98          1           0        0.137967   -1.213776   -0.309060
 ---------------------------------------------------------------------

 SCF Done:  E(RCAM-B3LYP) =  -1706.92738857     A.U. after   14 cycles

 Excitation energies and oscillator strengths:

 Excited State   1:      Singlet-A      2.8567 eV  434.02 nm  f=3.7198  <S**2>=0.000
     155 ->158         0.19984
     156 ->157         0.66992
 This state for optimization and/or second-order correction.
 Total Energy, E(TD-HF/TD-DFT) =  -1706.82240858
 Copying the excited state density for this state as the 1-particle RhoCI density.

 The electronic state is 1-A.
 Alpha  occ. eigenvalues --  -19.21489 -19.21388 -10.31431 -10.30497 -10.28694
 Alpha  occ. eigenvalues --  -10.28319 -10.28031 -10.28007 -10.27906 -10.27900
 Alpha  occ. eigenvalues --  -10.27778 -10.27654 -10.27516 -10.27088 -10.26898
 Alpha  occ. eigenvalues --  -10.26863 -10.26713 -10.26674 -10.26671 -10.26529
 Alpha  occ. eigenvalues --  -10.26298 -10.26109 -10.25860 -10.25748 -10.25741
 Alpha  occ. eigenvalues --  -10.25684 -10.25599 -10.25581 -10.25535 -10.25421
 Alpha  occ. eigenvalues --  -10.25326 -10.25212 -10.25183 -10.25150 -10.25107
 Alpha  occ. eigenvalues --  -10.24986 -10.24885 -10.24862 -10.24687 -10.24530
 Alpha  occ. eigenvalues --  -10.24276 -10.23974  -1.12650  -1.05382  -0.94351
 Alpha  occ. eigenvalues --   -0.94106  -0.92348  -0.91946  -0.90290  -0.89809
 Alpha  occ. eigenvalues --   -0.88178  -0.87589  -0.86793  -0.86221  -0.85021
 Alpha  occ. eigenvalues --   -0.83730  -0.82606  -0.80726  -0.79756  -0.78681
 Alpha  occ. eigenvalues --   -0.77064  -0.76641  -0.76293  -0.76087  -0.75702
 Alpha  occ. eigenvalues --   -0.75613  -0.74968  -0.74567  -0.74302  -0.70254
 Alpha  occ. eigenvalues --   -0.68878  -0.67192  -0.65812  -0.64847  -0.63866
 Alpha  occ. eigenvalues --   -0.63208  -0.62972  -0.62010  -0.60884  -0.59748
 Alpha  occ. eigenvalues --   -0.59458  -0.59152  -0.58041  -0.56778  -0.56516
 Alpha  occ. eigenvalues --   -0.55964  -0.55250  -0.54908  -0.54673  -0.54470
 Alpha  occ. eigenvalues --   -0.53716  -0.52924  -0.52437  -0.51354  -0.50745
 Alpha  occ. eigenvalues --   -0.50414  -0.50170  -0.49795  -0.49460  -0.49360
 Alpha  occ. eigenvalues --   -0.49285  -0.49138  -0.48802  -0.48202  -0.48067
 Alpha  occ. eigenvalues --   -0.47979  -0.47541  -0.47201  -0.46932  -0.46578
 Alpha  occ. eigenvalues --   -0.46025  -0.45886  -0.45615  -0.45594  -0.45241
 Alpha  occ. eigenvalues --   -0.44856  -0.44616  -0.44542  -0.44078  -0.43751
 Alpha  occ. eigenvalues --   -0.43543  -0.42995  -0.42679  -0.42041  -0.41853
 Alpha  occ. eigenvalues --   -0.41744  -0.41394  -0.41119  -0.40898  -0.40609
 Alpha  occ. eigenvalues --   -0.40080  -0.39781  -0.39658  -0.39319  -0.38949
 Alpha  occ. eigenvalues --   -0.38824  -0.38561  -0.38489  -0.38356  -0.38176
 Alpha  occ. eigenvalues --   -0.38030  -0.37689  -0.37404  -0.37353  -0.35579
 Alpha  occ. eigenvalues --   -0.35448  -0.34621  -0.33363  -0.32485  -0.31937
 Alpha  occ. eigenvalues --   -0.31877  -0.29683  -0.28603  -0.26455  -0.23740
 Alpha  occ. eigenvalues --   -0.21081
 Alpha virt. eigenvalues --   -0.03846  -0.00637   0.02829   0.05841   0.08664
 Alpha virt. eigenvalues --    0.09954   0.10199   0.10405   0.11100   0.11179
 Alpha virt. eigenvalues --    0.11735   0.12410   0.12610   0.13215   0.13358

 Mulliken charges:
               1
     1  O   -0.520648
     2  O   -0.570374
     3  C   -0.014665
     4  C    0.007505
     5  C   -0.181375
     6  C   -0.182909
     7  C    0.176282
     8  C    0.149826
     9  C    0.081095
    10  C    0.097684
    11  C   -0.207629
    12  C   -0.184497
    13  C    0.077834
    14  C   -0.034626
    15  C   -0.293369
    16  C   -0.281308
    17  C   -0.286983
    18  C   -0.318643
    19  C   -0.117222
    20  C   -0.167295
    21  C   -0.373605
    22  C   -0.336224
    23  C   -0.115939
    24  C   -0.083520
    25  C    0.025987
    26  C    0.084376
    27  C   -0.346920
    28  C   -0.367057
    29  C   -0.053094
    30  C   -0.120562
    31  C   -0.069204
    32  C   -0.101114
    33  C   -0.106715
    34  C   -0.099058
    35  C    0.104328
    36  C    0.094737
    37  C   -0.366819
    38  C   -0.371365
    39  C   -0.158222
    40  C   -0.084822
    41  C   -0.085150
    42  C   -0.103196
    43  H    0.103310
    44  H    0.075640
    45  H    0.083437
    46  H    0.096792
    47  H    0.046087
    48  H    0.088325
    49  H    0.126469
    50  H    0.092742
    51  H    0.127526
    52  H    0.116459
    53  H    0.095915
    54  H    0.107523
    55  H    0.086642
    56  H    0.075618
    57  H    0.123191
    58  H    0.073050
    59  H    0.073276
    60  H    0.115996
    61  H    0.078727
    62  H    0.088762
    63  H    0.118126
    64  H    0.094903
    65  H    0.053005
    66  H    0.079109
    67  H    0.137420
    68  H    0.122709
    69  H    0.058023
    70  H    0.095528
    71  H    0.122067
    72  H    0.102149
    73  H    0.289436
    74  H    0.292970
    75  H    0.083958
    76  H    0.087468
    77  H    0.095324
    78  H    0.113309
    79  H    0.135399
    80  H    0.132533
    81  H    0.128486
    82  H    0.088384
    83  H    0.077061
    84  H    0.074291
    85  H    0.057524
    86  H    0.087883
    87  H    0.064753
    88  H    0.082696
    89  H    0.126915
    90  H    0.107180
    91  H    0.143280
    92  H    0.116008
    93  H    0.115581
    94  H    0.107487
    95  H    0.101532
    96  H    0.058991
    97  H    0.088296
    98  H    0.089205
 Sum of Mulliken charges =  -0.00000

 Dipole moment (field-independent basis, Debye):
    X=              1.3934    Y=             -1.0927    Z=              1.9326  Tot=              2.6211
 Quadrupole moment (field-independent basis, Debye-Ang):
   XX=           -291.9848   YY=           -246.5963   ZZ=           -262.2842
   XY=             22.3522   XZ=              0.3945   YZ=             -0.9599

 Normal termination of Gaussian 16 at Sun Jun 30 07:35:43 2019.
