 Gaussian 16, Revision A.03,
 Gaussian 16:  ES64L-G16RevA.03 25-Dec-2016

 -------------------------------------
 # td=(NStates=1) CAM-B3LYP/6-31G(d,p)
 -------------------------------------

 --
 TD
 --
 Symbolic Z-matrix:
 Charge =  0 Multiplicity = 1

                         Standard orientation:
 ---------------------------------------------------------------------
 Center     Atomic      Atomic             Coordinates (Angstroms)
 Number     Number       Type             X           Y           Z
 ---------------------------------------------------------------------
      1          8           0       14.684050   -2.312982   -0.505793
      2          8           0      -14.811535    1.994536    0.589633
      3          6           0       11.440703   -0.841673    1.241968
      4          6           0      -12.336048   -0.827480    0.821575
      5          6           0       13.009171   -1.215517    1.096869
      6          6           0      -13.676255   -0.131808    0.875035
      7          6           0       13.255374   -1.954168   -0.360155
      8          6           0      -13.482139    1.371405    0.545724
      9          6           0       10.918947   -0.193651   -0.043605
     10          6           0      -11.298109   -0.328753   -0.227162
     11          6           0       12.946846   -0.939617   -1.319246
     12          6           0      -12.795868    1.634214   -0.749042
     13          6           0       11.602767   -0.288257   -1.240396
     14          6           0      -11.558626    0.813533   -0.906347
     15          6           0       11.306685   -0.003911    2.451234
     16          6           0       10.681474   -2.289694    1.494080
     17          6           0      -11.705301   -0.753068    2.235849
     18          6           0      -12.724855   -2.334345    0.510187
     19          6           0        9.569843    0.331140    0.165403
     20          6           0      -10.036597   -1.043537   -0.381737
     21          6           0       11.051052    0.353102   -2.498381
     22          6           0      -10.722982    1.417888   -2.006635
     23          6           0        9.297708    1.517237   -0.139200
     24          6           0       -8.861816   -0.490606   -0.268740
     25          6           0        8.081241    2.205298    0.027756
     26          6           0       -7.606613   -1.290700   -0.451424
     27          6           0        8.001150    3.707117    0.427434
     28          6           0       -7.654150   -2.666434   -0.954607
     29          6           0        6.873832    1.535481   -0.130499
     30          6           0       -6.377377   -0.736988   -0.200956
     31          6           0        5.521282    2.004212    0.156931
     32          6           0       -4.932285   -1.229163   -0.372066
     33          6           0        4.523438    1.253319   -0.063251
     34          6           0       -3.835225   -0.576000    0.024141
     35          6           0        3.148461    1.637497    0.166353
     36          6           0       -2.525047   -0.908990   -0.251140
     37          6           0        2.780090    3.060798    0.599345
     38          6           0       -2.142012   -2.309241   -0.614797
     39          6           0        2.161996    0.706989   -0.087048
     40          6           0       -1.657991    0.088882   -0.093322
     41          6           0        0.666771    1.001001   -0.060716
     42          6           0       -0.198209   -0.045750   -0.178802
     43          1           0       13.623156   -0.186859    0.983912
     44          1           0       13.353602   -1.801517    1.981592
     45          1           0      -14.282971   -0.345663    1.689499
     46          1           0      -14.285906   -0.403156   -0.179839
     47          1           0       12.659230   -2.834207   -0.530214
     48          1           0      -12.773165    1.880414    1.148585
     49          1           0       13.736687   -0.174435   -1.290685
     50          1           0       12.865471   -1.285711   -2.396478
     51          1           0      -13.620242    1.367611   -1.389760
     52          1           0      -12.452753    2.665236   -1.014152
     53          1           0       11.626529   -0.538604    3.278831
     54          1           0       10.054749    0.143740    2.417827
     55          1           0       11.792760    0.785235    2.329713
     56          1           0       10.728283   -2.983987    0.551019
     57          1           0       11.160652   -2.768143    2.384040
     58          1           0        9.723132   -2.320937    1.986401
     59          1           0      -11.567094    0.440981    2.483335
     60          1           0      -10.681802   -1.305683    2.479790
     61          1           0      -12.394702   -1.100062    3.036269
     62          1           0      -13.427577   -2.684051    1.056851
     63          1           0      -11.815511   -2.892695    0.693038
     64          1           0      -13.165468   -2.312199   -0.570397
     65          1           0        8.931932   -0.325587    0.537184
     66          1           0       -9.975092   -2.177057   -0.559087
     67          1           0        9.872509    0.463435   -2.677579
     68          1           0       11.342357    1.481159   -2.485417
     69          1           0       11.543789   -0.169924   -3.405381
     70          1           0      -11.314183    1.701112   -2.777845
     71          1           0       -9.884261    0.841823   -2.476521
     72          1           0      -10.285790    2.262777   -1.416501
     73          1           0       14.688762   -3.106577    0.140756
     74          1           0      -15.038652    1.951251    1.450190
     75          1           0       10.063646    2.119853   -0.507835
     76          1           0       -8.810818    0.530960    0.089613
     77          1           0        8.663656    4.353096   -0.346411
     78          1           0        7.045511    4.213085    0.451385
     79          1           0        8.670757    3.650265    1.458225
     80          1           0       -8.317446   -3.505766   -0.285418
     81          1           0       -8.162593   -2.658915   -1.988511
     82          1           0       -6.835381   -3.201906   -1.114779
     83          1           0        6.860686    0.479132   -0.246521
     84          1           0       -6.498930    0.265258    0.143020
     85          1           0        5.461332    3.000404    0.421019
     86          1           0       -4.822069   -2.373365   -0.708802
     87          1           0        4.539719    0.066917   -0.264811
     88          1           0       -4.224229    0.336385    0.247939
     89          1           0        3.340327    3.285399    1.563334
     90          1           0        1.526831    3.117724    0.751435
     91          1           0        2.912724    3.749991   -0.259984
     92          1           0       -2.611762   -2.961795   -0.027175
     93          1           0       -2.705070   -2.702882   -1.480359
     94          1           0       -1.057006   -2.441183   -0.783741
     95          1           0        2.377354   -0.440894   -0.498208
     96          1           0       -1.922981    1.068002    0.125344
     97          1           0        0.174488    1.901391    0.218136
     98          1           0        0.344726   -1.009867   -0.530255
 ---------------------------------------------------------------------

 SCF Done:  E(RCAM-B3LYP) =  -1706.92910251     A.U. after   13 cycles

 Excitation energies and oscillator strengths:

 Excited State   1:      Singlet-A      3.1138 eV  398.18 nm  f=3.5921  <S**2>=0.000
     155 ->158        -0.18562
     156 ->157         0.67243
 This state for optimization and/or second-order correction.
 Total Energy, E(TD-HF/TD-DFT) =  -1706.81467328
 Copying the excited state density for this state as the 1-particle RhoCI density.

 The electronic state is 1-A.
 Alpha  occ. eigenvalues --  -19.21575 -19.20181 -10.30645 -10.29833 -10.28226
 Alpha  occ. eigenvalues --  -10.28166 -10.27865 -10.27794 -10.27713 -10.27700
 Alpha  occ. eigenvalues --  -10.27654 -10.27215 -10.27178 -10.27049 -10.26971
 Alpha  occ. eigenvalues --  -10.26893 -10.26849 -10.26735 -10.26694 -10.26559
 Alpha  occ. eigenvalues --  -10.26470 -10.26467 -10.26267 -10.26168 -10.26037
 Alpha  occ. eigenvalues --  -10.25978 -10.25960 -10.25828 -10.25714 -10.25636
 Alpha  occ. eigenvalues --  -10.25394 -10.25108 -10.25032 -10.24990 -10.24929
 Alpha  occ. eigenvalues --  -10.24761 -10.24600 -10.24501 -10.24019 -10.23764
 Alpha  occ. eigenvalues --  -10.23645 -10.23526  -1.09651  -1.07125  -0.93885
 Alpha  occ. eigenvalues --   -0.93792  -0.93018  -0.91762  -0.90586  -0.90169
 Alpha  occ. eigenvalues --   -0.87651  -0.87549  -0.87203  -0.85998  -0.85060
 Alpha  occ. eigenvalues --   -0.83305  -0.82131  -0.80931  -0.80160  -0.78582
 Alpha  occ. eigenvalues --   -0.76728  -0.76580  -0.76214  -0.75950  -0.75337
 Alpha  occ. eigenvalues --   -0.74908  -0.74656  -0.73932  -0.73735  -0.70148
 Alpha  occ. eigenvalues --   -0.68909  -0.67401  -0.65673  -0.65064  -0.64058
 Alpha  occ. eigenvalues --   -0.63585  -0.62799  -0.62055  -0.60821  -0.60288
 Alpha  occ. eigenvalues --   -0.60153  -0.59489  -0.59135  -0.58307  -0.56835
 Alpha  occ. eigenvalues --   -0.55323  -0.55040  -0.54891  -0.54325  -0.54029
 Alpha  occ. eigenvalues --   -0.53567  -0.52698  -0.51799  -0.51420  -0.51093
 Alpha  occ. eigenvalues --   -0.50558  -0.50216  -0.49810  -0.49672  -0.49467
 Alpha  occ. eigenvalues --   -0.49137  -0.48623  -0.48516  -0.48310  -0.47942
 Alpha  occ. eigenvalues --   -0.47668  -0.47439  -0.47166  -0.46249  -0.46137
 Alpha  occ. eigenvalues --   -0.45868  -0.45607  -0.45392  -0.45260  -0.44788
 Alpha  occ. eigenvalues --   -0.44508  -0.44398  -0.44128  -0.44087  -0.43491
 Alpha  occ. eigenvalues --   -0.43287  -0.42853  -0.42646  -0.42108  -0.41782
 Alpha  occ. eigenvalues --   -0.41537  -0.41316  -0.40762  -0.40630  -0.40461
 Alpha  occ. eigenvalues --   -0.40357  -0.40077  -0.39819  -0.39616  -0.39316
 Alpha  occ. eigenvalues --   -0.38956  -0.38912  -0.38640  -0.38421  -0.38180
 Alpha  occ. eigenvalues --   -0.37765  -0.37551  -0.37139  -0.36887  -0.35889
 Alpha  occ. eigenvalues --   -0.35638  -0.35151  -0.34656  -0.32222  -0.31599
 Alpha  occ. eigenvalues --   -0.31120  -0.29629  -0.27968  -0.26771  -0.24470
 Alpha  occ. eigenvalues --   -0.21559
 Alpha virt. eigenvalues --   -0.03166   0.00444   0.03602   0.06075   0.07666
 Alpha virt. eigenvalues --    0.09332   0.11312   0.11523   0.11862   0.11981
 Alpha virt. eigenvalues --    0.12427   0.12683   0.13139   0.13449   0.13735

 Mulliken charges:
               1
     1  O   -0.561289
     2  O   -0.554690
     3  C   -0.034839
     4  C   -0.022958
     5  C   -0.200901
     6  C   -0.172713
     7  C    0.155048
     8  C    0.132619
     9  C    0.039486
    10  C    0.062865
    11  C   -0.203096
    12  C   -0.220525
    13  C    0.045839
    14  C    0.030357
    15  C   -0.246680
    16  C   -0.320410
    17  C   -0.296046
    18  C   -0.285938
    19  C   -0.078119
    20  C   -0.131624
    21  C   -0.356800
    22  C   -0.353417
    23  C   -0.075348
    24  C   -0.075567
    25  C    0.062067
    26  C    0.125086
    27  C   -0.348423
    28  C   -0.365829
    29  C   -0.122957
    30  C   -0.156056
    31  C   -0.072900
    32  C   -0.100463
    33  C   -0.079710
    34  C   -0.088594
    35  C    0.102614
    36  C    0.153967
    37  C   -0.357131
    38  C   -0.375315
    39  C   -0.148877
    40  C   -0.137866
    41  C   -0.087366
    42  C   -0.084421
    43  H    0.085572
    44  H    0.081081
    45  H    0.101566
    46  H    0.075093
    47  H    0.091390
    48  H    0.086771
    49  H    0.127871
    50  H    0.092371
    51  H    0.124437
    52  H    0.106062
    53  H    0.101525
    54  H    0.069714
    55  H    0.109551
    56  H    0.097080
    57  H    0.088990
    58  H    0.105624
    59  H    0.073210
    60  H    0.100796
    61  H    0.095406
    62  H    0.108886
    63  H    0.095686
    64  H    0.090681
    65  H    0.092149
    66  H    0.092912
    67  H    0.118093
    68  H    0.112029
    69  H    0.093771
    70  H    0.125511
    71  H    0.114184
    72  H    0.113328
    73  H    0.306528
    74  H    0.296036
    75  H    0.077747
    76  H    0.086979
    77  H    0.092658
    78  H    0.126250
    79  H    0.104811
    80  H    0.077654
    81  H    0.111197
    82  H    0.120479
    83  H    0.067860
    84  H    0.068995
    85  H    0.073827
    86  H    0.053554
    87  H    0.075297
    88  H    0.080080
    89  H    0.120701
    90  H    0.082651
    91  H    0.131074
    92  H    0.134912
    93  H    0.115237
    94  H    0.116682
    95  H    0.075271
    96  H    0.084647
    97  H    0.084226
    98  H    0.070228
 Sum of Mulliken charges =  -0.00000

 Dipole moment (field-independent basis, Debye):
    X=             -0.3287    Y=             -0.9627    Z=              1.9586  Tot=              2.2070
 Quadrupole moment (field-independent basis, Debye-Ang):
   XX=           -303.0677   YY=           -243.6846   ZZ=           -259.7354
   XY=              6.2356   XZ=             -0.7268   YZ=              0.2829

 Normal termination of Gaussian 16 at Thu Jun 27 01:15:12 2019.
