 Gaussian 16, Revision A.03,
 Gaussian 16:  ES64L-G16RevA.03 25-Dec-2016

 -------------------------------------
 # td=(NStates=1) CAM-B3LYP/6-31G(d,p)
 -------------------------------------

 --
 TD
 --
 Symbolic Z-matrix:
 Charge =  0 Multiplicity = 1

                         Standard orientation:
 ---------------------------------------------------------------------
 Center     Atomic      Atomic             Coordinates (Angstroms)
 Number     Number       Type             X           Y           Z
 ---------------------------------------------------------------------
      1          8           0       14.625261   -2.274715   -0.319439
      2          8           0      -14.916203    1.810170    0.731277
      3          6           0       11.484130   -1.129068    1.104679
      4          6           0      -12.381861   -1.034286    0.685500
      5          6           0       12.987097   -1.462866    1.030853
      6          6           0      -13.693852   -0.395175    0.660779
      7          6           0       13.273841   -2.017145   -0.295886
      8          6           0      -13.574916    1.138197    0.836716
      9          6           0       10.968883   -0.292894   -0.053839
     10          6           0      -11.263296   -0.357588   -0.315425
     11          6           0       12.875912   -1.032958   -1.386869
     12          6           0      -12.790084    1.628104   -0.364283
     13          6           0       11.625051   -0.230967   -1.200182
     14          6           0      -11.581084    0.858612   -0.815262
     15          6           0       11.273067   -0.331498    2.487884
     16          6           0       10.789642   -2.527586    1.318510
     17          6           0      -11.764557   -1.014931    1.997861
     18          6           0      -12.560593   -2.465876    0.311000
     19          6           0        9.633356    0.363597    0.199382
     20          6           0      -10.137681   -1.073302   -0.617846
     21          6           0       11.281272    0.507965   -2.475441
     22          6           0      -10.728623    1.575241   -1.878990
     23          6           0        9.326434    1.654824   -0.205904
     24          6           0       -8.852483   -0.572351   -0.276560
     25          6           0        8.069776    2.250233    0.058988
     26          6           0       -7.522918   -1.289727   -0.477885
     27          6           0        8.223260    3.749854    0.352902
     28          6           0       -7.436184   -2.704407   -1.026958
     29          6           0        6.933561    1.534832   -0.077113
     30          6           0       -6.502352   -0.477301   -0.200323
     31          6           0        5.600364    2.027790    0.080317
     32          6           0       -5.113787   -0.896421   -0.394165
     33          6           0        4.512505    1.258098   -0.127592
     34          6           0       -4.029013   -0.208405   -0.051668
     35          6           0        3.197240    1.717700    0.274426
     36          6           0       -2.635446   -0.586915   -0.202635
     37          6           0        2.850903    3.051899    0.715138
     38          6           0       -2.350147   -1.978159   -0.753469
     39          6           0        2.147533    0.818454    0.012505
     40          6           0       -1.769865    0.260447   -0.068486
     41          6           0        0.670703    1.021520    0.151824
     42          6           0       -0.277074    0.139284   -0.299940
     43          1           0       13.653967   -0.493700    1.301324
     44          1           0       13.198039   -2.123311    1.903085
     45          1           0      -14.439562   -0.694949    1.402265
     46          1           0      -14.165372   -0.737849   -0.298920
     47          1           0       12.587225   -2.871154   -0.511079
     48          1           0      -13.152717    1.218526    1.803275
     49          1           0       13.704280   -0.289537   -1.327439
     50          1           0       13.036237   -1.570943   -2.277534
     51          1           0      -13.601720    1.863923   -1.107168
     52          1           0      -12.753080    2.671665   -0.121210
     53          1           0       11.729640   -0.954475    3.369063
     54          1           0       10.135533   -0.454425    2.787307
     55          1           0       11.677290    0.695727    2.543196
     56          1           0       10.880334   -3.032420    0.490704
     57          1           0       11.246514   -3.197488    2.029625
     58          1           0        9.841614   -2.244899    1.278258
     59          1           0      -11.700887   -0.060376    2.555259
     60          1           0      -10.787238   -1.522302    2.035236
     61          1           0      -12.498778   -1.599236    2.718533
     62          1           0      -13.279355   -2.960848    0.930897
     63          1           0      -11.555674   -2.912112    0.358241
     64          1           0      -12.918944   -2.290272   -0.749033
     65          1           0        8.918874   -0.246826    0.717207
     66          1           0      -10.049912   -1.981654   -1.123511
     67          1           0       10.145445    0.707070   -2.674639
     68          1           0       11.639012    1.556615   -2.343237
     69          1           0       11.594831   -0.140742   -3.400668
     70          1           0      -11.495243    1.779064   -2.854550
     71          1           0       -9.745129    1.197191   -1.955751
     72          1           0      -10.392636    2.649344   -1.592667
     73          1           0       14.753856   -3.210812    0.099421
     74          1           0      -15.428759    1.578091    1.580822
     75          1           0       10.174326    2.212045   -0.766488
     76          1           0       -8.987650    0.452839    0.276634
     77          1           0        9.083359    4.225720   -0.198573
     78          1           0        7.314040    4.208597    0.462550
     79          1           0        8.469605    3.816644    1.500722
     80          1           0       -8.060416   -3.241622   -0.321969
     81          1           0       -7.794956   -2.903223   -2.037732
     82          1           0       -6.446321   -3.034573   -0.925447
     83          1           0        6.992747    0.519938   -0.344688
     84          1           0       -6.839759    0.623950    0.252874
     85          1           0        5.628662    3.263967    0.225073
     86          1           0       -4.997114   -1.932026   -0.877774
     87          1           0        4.620777    0.302214   -0.589242
     88          1           0       -4.168333    0.778946    0.429126
     89          1           0        3.800293    3.168205    1.488906
     90          1           0        1.809300    2.867166    1.429150
     91          1           0        2.732933    3.850953   -0.004934
     92          1           0       -2.964499   -2.630452   -0.212292
     93          1           0       -2.869662   -2.090643   -1.807365
     94          1           0       -1.293109   -2.245832   -1.177191
     95          1           0        2.435463   -0.171487   -0.253492
     96          1           0       -2.105835    1.368105    0.105649
     97          1           0        0.236602    1.868622    0.846270
     98          1           0        0.227112   -0.749517   -0.636061
 ---------------------------------------------------------------------

 SCF Done:  E(RCAM-B3LYP) =  -1706.96070221     A.U. after   14 cycles

 Excitation energies and oscillator strengths:

 Excited State   1:      Singlet-A      3.0451 eV  407.16 nm  f=3.2401  <S**2>=0.000
     155 ->158         0.18050
     156 ->157         0.67025
 This state for optimization and/or second-order correction.
 Total Energy, E(TD-HF/TD-DFT) =  -1706.84879724
 Copying the excited state density for this state as the 1-particle RhoCI density.

 The electronic state is 1-A.
 Alpha  occ. eigenvalues --  -19.21754 -19.21418 -10.29949 -10.29477 -10.27929
 Alpha  occ. eigenvalues --  -10.27765 -10.27562 -10.27536 -10.27416 -10.27322
 Alpha  occ. eigenvalues --  -10.27314 -10.27065 -10.26997 -10.26988 -10.26888
 Alpha  occ. eigenvalues --  -10.26727 -10.26561 -10.26561 -10.26507 -10.26495
 Alpha  occ. eigenvalues --  -10.26394 -10.26349 -10.26257 -10.26215 -10.26188
 Alpha  occ. eigenvalues --  -10.26140 -10.26041 -10.25950 -10.25857 -10.25713
 Alpha  occ. eigenvalues --  -10.25665 -10.25657 -10.25592 -10.25315 -10.25066
 Alpha  occ. eigenvalues --  -10.24628 -10.24544 -10.24407 -10.24373 -10.24045
 Alpha  occ. eigenvalues --  -10.24019 -10.22352  -1.10213  -1.06080  -0.94288
 Alpha  occ. eigenvalues --   -0.93513  -0.92875  -0.91945  -0.90734  -0.90275
 Alpha  occ. eigenvalues --   -0.87863  -0.86790  -0.86323  -0.85603  -0.84542
 Alpha  occ. eigenvalues --   -0.83291  -0.82082  -0.79851  -0.79782  -0.77789
 Alpha  occ. eigenvalues --   -0.77315  -0.77256  -0.76347  -0.76055  -0.75635
 Alpha  occ. eigenvalues --   -0.75511  -0.74927  -0.74333  -0.73936  -0.70107
 Alpha  occ. eigenvalues --   -0.69036  -0.66801  -0.65396  -0.64606  -0.63800
 Alpha  occ. eigenvalues --   -0.63096  -0.61764  -0.60650  -0.59842  -0.59666
 Alpha  occ. eigenvalues --   -0.59400  -0.59228  -0.58579  -0.57336  -0.56066
 Alpha  occ. eigenvalues --   -0.55658  -0.54900  -0.54524  -0.54211  -0.54045
 Alpha  occ. eigenvalues --   -0.53737  -0.53142  -0.52834  -0.52189  -0.51058
 Alpha  occ. eigenvalues --   -0.50704  -0.50410  -0.50324  -0.50012  -0.49861
 Alpha  occ. eigenvalues --   -0.49139  -0.49063  -0.48569  -0.48437  -0.48058
 Alpha  occ. eigenvalues --   -0.47412  -0.47087  -0.46843  -0.46596  -0.46465
 Alpha  occ. eigenvalues --   -0.45992  -0.45687  -0.45328  -0.44512  -0.44358
 Alpha  occ. eigenvalues --   -0.44198  -0.43868  -0.43815  -0.43695  -0.43153
 Alpha  occ. eigenvalues --   -0.42986  -0.42462  -0.42331  -0.42093  -0.41764
 Alpha  occ. eigenvalues --   -0.41600  -0.41328  -0.41021  -0.40651  -0.40464
 Alpha  occ. eigenvalues --   -0.40447  -0.40047  -0.39955  -0.39186  -0.38863
 Alpha  occ. eigenvalues --   -0.38420  -0.38154  -0.38070  -0.37733  -0.37702
 Alpha  occ. eigenvalues --   -0.37523  -0.37223  -0.37127  -0.36418  -0.35600
 Alpha  occ. eigenvalues --   -0.35219  -0.34416  -0.33408  -0.32158  -0.31171
 Alpha  occ. eigenvalues --   -0.31031  -0.29834  -0.28380  -0.26577  -0.24007
 Alpha  occ. eigenvalues --   -0.21518
 Alpha virt. eigenvalues --   -0.03247  -0.00234   0.03077   0.05957   0.07544
 Alpha virt. eigenvalues --    0.09029   0.10362   0.11014   0.11529   0.11783
 Alpha virt. eigenvalues --    0.11975   0.12382   0.13049   0.13154   0.13191

 Mulliken charges:
               1
     1  O   -0.554561
     2  O   -0.582082
     3  C   -0.059486
     4  C   -0.016613
     5  C   -0.151249
     6  C   -0.174648
     7  C    0.156336
     8  C    0.148344
     9  C    0.057898
    10  C    0.047755
    11  C   -0.229818
    12  C   -0.240732
    13  C    0.068471
    14  C    0.085371
    15  C   -0.292259
    16  C   -0.287996
    17  C   -0.285004
    18  C   -0.282584
    19  C   -0.099392
    20  C   -0.156470
    21  C   -0.368007
    22  C   -0.346673
    23  C   -0.125407
    24  C   -0.120186
    25  C    0.081528
    26  C    0.091819
    27  C   -0.361742
    28  C   -0.364305
    29  C   -0.097931
    30  C   -0.099813
    31  C   -0.095181
    32  C   -0.119319
    33  C   -0.106185
    34  C   -0.116198
    35  C    0.118974
    36  C    0.206827
    37  C   -0.346358
    38  C   -0.379559
    39  C   -0.144724
    40  C   -0.180338
    41  C   -0.086393
    42  C   -0.100777
    43  H    0.073603
    44  H    0.072747
    45  H    0.071583
    46  H    0.089375
    47  H    0.072699
    48  H    0.093539
    49  H    0.117106
    50  H    0.108376
    51  H    0.127289
    52  H    0.114452
    53  H    0.078048
    54  H    0.079490
    55  H    0.109854
    56  H    0.106115
    57  H    0.107400
    58  H    0.098043
    59  H    0.094504
    60  H    0.106301
    61  H    0.065351
    62  H    0.105494
    63  H    0.094709
    64  H    0.093937
    65  H    0.095467
    66  H    0.091892
    67  H    0.112014
    68  H    0.126594
    69  H    0.105340
    70  H    0.091810
    71  H    0.123949
    72  H    0.094519
    73  H    0.312498
    74  H    0.304425
    75  H    0.083873
    76  H    0.088820
    77  H    0.124169
    78  H    0.114418
    79  H    0.111556
    80  H    0.127967
    81  H    0.132542
    82  H    0.118235
    83  H    0.079087
    84  H    0.083967
    85  H    0.077985
    86  H    0.075650
    87  H    0.095325
    88  H    0.082401
    89  H    0.090935
    90  H    0.089356
    91  H    0.138379
    92  H    0.125511
    93  H    0.102478
    94  H    0.117236
    95  H    0.076480
    96  H    0.077769
    97  H    0.077294
    98  H    0.078709
 Sum of Mulliken charges =  -0.00000

 Dipole moment (field-independent basis, Debye):
    X=              1.4366    Y=             -2.2641    Z=              0.8920  Tot=              2.8259
 Quadrupole moment (field-independent basis, Debye-Ang):
   XX=           -284.6177   YY=           -242.3864   ZZ=           -260.8936
   XY=              0.9434   XZ=            -16.0212   YZ=              4.1467

 Normal termination of Gaussian 16 at Mon Jul  1 13:20:56 2019.
