 Gaussian 16, Revision A.03,
 Gaussian 16:  ES64L-G16RevA.03 25-Dec-2016

 -------------------------------------
 # td=(NStates=1) CAM-B3LYP/6-31G(d,p)
 -------------------------------------

 --
 TD
 --
 Symbolic Z-matrix:
 Charge =  0 Multiplicity = 1

                         Standard orientation:
 ---------------------------------------------------------------------
 Center     Atomic      Atomic             Coordinates (Angstroms)
 Number     Number       Type             X           Y           Z
 ---------------------------------------------------------------------
      1          8           0       14.880682   -2.036743   -0.311312
      2          8           0      -14.938855    1.912108    0.492720
      3          6           0       11.549886   -1.049236    1.081426
      4          6           0      -12.342883   -0.951170    0.793646
      5          6           0       12.941263   -1.384591    0.940559
      6          6           0      -13.754260   -0.176832    0.667481
      7          6           0       13.438992   -1.944938   -0.381652
      8          6           0      -13.628075    1.310584    0.568808
      9          6           0       10.992434   -0.299079   -0.062032
     10          6           0      -11.291857   -0.239640   -0.095344
     11          6           0       13.060259   -0.962241   -1.426912
     12          6           0      -12.895350    1.752343   -0.637067
     13          6           0       11.769243   -0.223751   -1.139684
     14          6           0      -11.600193    0.877658   -0.820926
     15          6           0       11.190751   -0.351104    2.490871
     16          6           0       10.748467   -2.432928    1.172338
     17          6           0      -11.826346   -0.808284    2.216810
     18          6           0      -12.533699   -2.389988    0.364718
     19          6           0        9.660012    0.407844    0.165814
     20          6           0      -10.059972   -0.980837   -0.316568
     21          6           0       11.369429    0.583590   -2.372968
     22          6           0      -10.572088    1.577509   -1.737051
     23          6           0        9.411573    1.691661    0.146001
     24          6           0       -8.764985   -0.577719   -0.261856
     25          6           0        8.007556    2.231460    0.224453
     26          6           0       -7.611658   -1.306748   -0.472829
     27          6           0        8.009016    3.686181    0.671195
     28          6           0       -7.805298   -2.806419   -0.773470
     29          6           0        6.897066    1.562142   -0.089887
     30          6           0       -6.453844   -0.638745   -0.316991
     31          6           0        5.532818    2.022609    0.026961
     32          6           0       -5.032756   -1.193745   -0.434654
     33          6           0        4.410667    1.249892   -0.224415
     34          6           0       -4.028818   -0.342119   -0.154042
     35          6           0        2.988194    1.688818   -0.024616
     36          6           0       -2.660781   -0.849500   -0.322346
     37          6           0        2.817366    3.103092    0.476906
     38          6           0       -2.417098   -2.298789   -0.756554
     39          6           0        2.064252    0.675904   -0.104243
     40          6           0       -1.578982    0.041813   -0.054328
     41          6           0        0.638258    0.869832    0.086754
     42          6           0       -0.160585   -0.188104   -0.239368
     43          1           0       13.692162   -0.461676    1.076351
     44          1           0       13.314817   -2.015533    1.839456
     45          1           0      -14.392493   -0.542173    1.464903
     46          1           0      -14.274380   -0.509731   -0.354385
     47          1           0       13.093938   -2.948232   -0.769642
     48          1           0      -13.220021    1.805254    1.492145
     49          1           0       13.955216   -0.045821   -1.459476
     50          1           0       13.181612   -1.494271   -2.518084
     51          1           0      -13.523070    1.428440   -1.531193
     52          1           0      -12.678073    2.785795   -0.538293
     53          1           0       11.763867   -1.036606    3.247001
     54          1           0       10.168026   -0.285009    2.759728
     55          1           0       11.708714    0.632154    2.653298
     56          1           0       11.333408   -3.064707    0.420304
     57          1           0       11.125826   -2.830099    2.006495
     58          1           0        9.600624   -2.384471    1.252232
     59          1           0      -11.729619    0.102954    2.765771
     60          1           0      -10.876101   -1.070955    2.355173
     61          1           0      -12.659699   -1.389316    2.826530
     62          1           0      -13.371129   -2.657920    0.809678
     63          1           0      -11.803504   -3.007189    0.721459
     64          1           0      -12.868926   -2.323523   -0.596586
     65          1           0        9.090812   -0.463408    0.609249
     66          1           0      -10.179443   -1.948535   -0.581508
     67          1           0       10.303557    0.996028   -2.182065
     68          1           0       12.033766    1.408595   -2.236177
     69          1           0       11.471873    0.133594   -3.347973
     70          1           0      -11.207400    1.880134   -2.591627
     71          1           0       -9.683450    1.018600   -2.118620
     72          1           0      -10.221206    2.595539   -1.136872
     73          1           0       15.213449   -2.627992    0.472626
     74          1           0      -15.351860    1.412149    1.216636
     75          1           0       10.143030    2.318716   -0.243768
     76          1           0       -8.779542    0.415900    0.129723
     77          1           0        8.549040    4.396191   -0.029817
     78          1           0        7.074336    4.359504    0.928608
     79          1           0        8.721797    3.689689    1.656062
     80          1           0       -8.800117   -3.138064   -0.129113
     81          1           0       -8.118843   -2.730136   -1.984177
     82          1           0       -6.825318   -3.333236   -0.656597
     83          1           0        7.004570    0.553137   -0.528749
     84          1           0       -6.536568    0.309792   -0.099126
     85          1           0        5.339488    2.914528    0.502556
     86          1           0       -4.893705   -2.297850   -0.713759
     87          1           0        4.429616    0.213951   -0.698371
     88          1           0       -4.255750    0.646488    0.259230
     89          1           0        2.992848    3.276890    1.538764
     90          1           0        1.799738    3.321304    0.636524
     91          1           0        3.277026    3.727734   -0.154398
     92          1           0       -2.782133   -3.028525   -0.078151
     93          1           0       -3.218767   -2.230475   -1.733745
     94          1           0       -1.338593   -2.561825   -1.125773
     95          1           0        2.460575   -0.304203   -0.405407
     96          1           0       -1.994246    1.034808    0.133638
     97          1           0        0.113796    1.877648    0.438580
     98          1           0        0.223985   -1.145494   -0.370176
 ---------------------------------------------------------------------

 SCF Done:  E(RCAM-B3LYP) =  -1706.98171585     A.U. after   14 cycles

 Excitation energies and oscillator strengths:

 Excited State   1:      Singlet-A      2.8585 eV  433.75 nm  f=3.5878  <S**2>=0.000
     155 ->158        -0.16723
     156 ->157         0.68134
 This state for optimization and/or second-order correction.
 Total Energy, E(TD-HF/TD-DFT) =  -1706.87666969
 Copying the excited state density for this state as the 1-particle RhoCI density.

 The electronic state is 1-A.
 Alpha  occ. eigenvalues --  -19.21273 -19.20335 -10.30983 -10.29924 -10.28698
 Alpha  occ. eigenvalues --  -10.27855 -10.27829 -10.27769 -10.27700 -10.27641
 Alpha  occ. eigenvalues --  -10.27549 -10.27435 -10.27410 -10.27159 -10.27142
 Alpha  occ. eigenvalues --  -10.26822 -10.26816 -10.26740 -10.26680 -10.26590
 Alpha  occ. eigenvalues --  -10.26461 -10.26418 -10.26359 -10.26315 -10.26271
 Alpha  occ. eigenvalues --  -10.26111 -10.26013 -10.25959 -10.25602 -10.25537
 Alpha  occ. eigenvalues --  -10.25492 -10.25437 -10.25361 -10.25189 -10.25062
 Alpha  occ. eigenvalues --  -10.24751 -10.24495 -10.24424 -10.24186 -10.24182
 Alpha  occ. eigenvalues --  -10.24002 -10.22378  -1.08940  -1.07406  -0.94393
 Alpha  occ. eigenvalues --   -0.93344  -0.91700  -0.91290  -0.90516  -0.89667
 Alpha  occ. eigenvalues --   -0.87316  -0.86871  -0.86510  -0.85436  -0.84683
 Alpha  occ. eigenvalues --   -0.82683  -0.81729  -0.79895  -0.79574  -0.78698
 Alpha  occ. eigenvalues --   -0.78305  -0.76121  -0.75907  -0.75789  -0.75743
 Alpha  occ. eigenvalues --   -0.75301  -0.74899  -0.74824  -0.73750  -0.69885
 Alpha  occ. eigenvalues --   -0.68547  -0.67059  -0.64922  -0.64416  -0.64238
 Alpha  occ. eigenvalues --   -0.63706  -0.62689  -0.62385  -0.60604  -0.60105
 Alpha  occ. eigenvalues --   -0.59664  -0.58337  -0.57553  -0.57391  -0.56203
 Alpha  occ. eigenvalues --   -0.55915  -0.55363  -0.54819  -0.54652  -0.54121
 Alpha  occ. eigenvalues --   -0.54069  -0.53112  -0.52766  -0.51664  -0.51106
 Alpha  occ. eigenvalues --   -0.50651  -0.50351  -0.49646  -0.49198  -0.48994
 Alpha  occ. eigenvalues --   -0.48808  -0.48581  -0.48031  -0.47809  -0.47498
 Alpha  occ. eigenvalues --   -0.47248  -0.47183  -0.46817  -0.46563  -0.46361
 Alpha  occ. eigenvalues --   -0.45850  -0.45537  -0.45348  -0.45035  -0.44862
 Alpha  occ. eigenvalues --   -0.44570  -0.44256  -0.44157  -0.43799  -0.43341
 Alpha  occ. eigenvalues --   -0.43161  -0.42950  -0.42762  -0.42462  -0.42166
 Alpha  occ. eigenvalues --   -0.41857  -0.41399  -0.40718  -0.40519  -0.40489
 Alpha  occ. eigenvalues --   -0.40393  -0.40328  -0.40162  -0.39724  -0.39573
 Alpha  occ. eigenvalues --   -0.39145  -0.38850  -0.38492  -0.38369  -0.37708
 Alpha  occ. eigenvalues --   -0.37314  -0.36807  -0.36619  -0.36171  -0.35636
 Alpha  occ. eigenvalues --   -0.35335  -0.34556  -0.33467  -0.32572  -0.31855
 Alpha  occ. eigenvalues --   -0.31779  -0.29431  -0.27753  -0.26527  -0.24114
 Alpha  occ. eigenvalues --   -0.20832
 Alpha virt. eigenvalues --   -0.03725   0.00290   0.03181   0.06103   0.08242
 Alpha virt. eigenvalues --    0.09574   0.10705   0.11030   0.11782   0.12070
 Alpha virt. eigenvalues --    0.12448   0.12762   0.12938   0.13250   0.13482

 Mulliken charges:
               1
     1  O   -0.582022
     2  O   -0.558666
     3  C   -0.025055
     4  C   -0.026224
     5  C   -0.220607
     6  C   -0.218617
     7  C    0.194635
     8  C    0.164375
     9  C    0.077568
    10  C    0.046307
    11  C   -0.206266
    12  C   -0.199573
    13  C    0.024750
    14  C    0.020029
    15  C   -0.298113
    16  C   -0.300733
    17  C   -0.296031
    18  C   -0.289022
    19  C   -0.084052
    20  C   -0.154589
    21  C   -0.358860
    22  C   -0.340242
    23  C   -0.096546
    24  C   -0.085829
    25  C    0.083894
    26  C    0.119321
    27  C   -0.369787
    28  C   -0.345114
    29  C   -0.104933
    30  C   -0.118875
    31  C   -0.092104
    32  C   -0.111074
    33  C   -0.116461
    34  C   -0.087563
    35  C    0.097962
    36  C    0.075246
    37  C   -0.367877
    38  C   -0.356985
    39  C   -0.140922
    40  C   -0.137280
    41  C   -0.079922
    42  C   -0.065430
    43  H    0.103573
    44  H    0.067667
    45  H    0.085123
    46  H    0.083874
    47  H    0.089781
    48  H    0.081202
    49  H    0.091840
    50  H    0.094458
    51  H    0.117673
    52  H    0.121594
    53  H    0.076715
    54  H    0.116060
    55  H    0.100048
    56  H    0.091189
    57  H    0.109991
    58  H    0.103190
    59  H    0.107131
    60  H    0.115792
    61  H    0.067914
    62  H    0.105608
    63  H    0.111258
    64  H    0.115416
    65  H    0.086855
    66  H    0.077397
    67  H    0.100549
    68  H    0.120045
    69  H    0.111581
    70  H    0.104626
    71  H    0.121545
    72  H    0.084897
    73  H    0.307273
    74  H    0.298010
    75  H    0.102911
    76  H    0.078667
    77  H    0.115236
    78  H    0.105393
    79  H    0.094824
    80  H    0.108988
    81  H    0.103192
    82  H    0.111784
    83  H    0.080181
    84  H    0.065308
    85  H    0.082105
    86  H    0.093113
    87  H    0.072486
    88  H    0.099869
    89  H    0.127237
    90  H    0.103524
    91  H    0.133307
    92  H    0.134420
    93  H    0.092328
    94  H    0.105383
    95  H    0.088946
    96  H    0.072487
    97  H    0.096985
    98  H    0.092734
 Sum of Mulliken charges =  -0.00000

 Dipole moment (field-independent basis, Debye):
    X=              0.4355    Y=             -1.7353    Z=              2.4489  Tot=              3.0328
 Quadrupole moment (field-independent basis, Debye-Ang):
   XX=           -286.8588   YY=           -247.0503   ZZ=           -261.8379
   XY=             13.1328   XZ=              0.3556   YZ=              2.3722

 Normal termination of Gaussian 16 at Mon Jul  1 19:11:20 2019.
