 Gaussian 16, Revision A.03,
 Gaussian 16:  ES64L-G16RevA.03 25-Dec-2016

 -------------------------------------
 # td=(NStates=1) CAM-B3LYP/6-31G(d,p)
 -------------------------------------

 --
 TD
 --
 Symbolic Z-matrix:
 Charge =  0 Multiplicity = 1

                         Standard orientation:
 ---------------------------------------------------------------------
 Center     Atomic      Atomic             Coordinates (Angstroms)
 Number     Number       Type             X           Y           Z
 ---------------------------------------------------------------------
      1          8           0       14.690793   -2.040584   -0.473672
      2          8           0      -14.771761    2.018817    0.660574
      3          6           0       11.472821   -1.009902    1.297157
      4          6           0      -12.314871   -0.809274    0.782815
      5          6           0       12.993671   -1.349127    1.002801
      6          6           0      -13.667790   -0.136816    0.736279
      7          6           0       13.325973   -1.830365   -0.392621
      8          6           0      -13.513882    1.327595    0.765440
      9          6           0       10.920201   -0.212094    0.001603
     10          6           0      -11.311339   -0.257502   -0.233651
     11          6           0       12.885112   -0.753176   -1.354631
     12          6           0      -12.722851    1.736081   -0.558888
     13          6           0       11.489610   -0.194095   -1.201745
     14          6           0      -11.576314    0.866467   -0.884930
     15          6           0       11.274487   -0.380387    2.575152
     16          6           0       10.716835   -2.361534    1.287325
     17          6           0      -11.651583   -0.643847    2.199123
     18          6           0      -12.504519   -2.345875    0.565520
     19          6           0        9.593372    0.397186    0.235042
     20          6           0      -10.131414   -1.026937   -0.424439
     21          6           0       11.019643    0.418378   -2.449496
     22          6           0      -10.704275    1.534148   -1.914151
     23          6           0        9.387812    1.667897   -0.095072
     24          6           0       -8.866474   -0.562930   -0.465483
     25          6           0        8.081319    2.308141    0.188533
     26          6           0       -7.609472   -1.322517   -0.596101
     27          6           0        8.107445    3.693723    0.540656
     28          6           0       -7.686444   -2.784264   -0.695419
     29          6           0        7.006557    1.489296   -0.053642
     30          6           0       -6.430561   -0.719062   -0.319266
     31          6           0        5.577809    1.866968    0.071856
     32          6           0       -5.022449   -1.173329   -0.428973
     33          6           0        4.510243    1.167798   -0.159476
     34          6           0       -3.955817   -0.377190   -0.236258
     35          6           0        3.072244    1.555274    0.056498
     36          6           0       -2.607072   -0.836403   -0.487785
     37          6           0        2.754292    2.861822    0.741547
     38          6           0       -2.366009   -2.354307   -0.633000
     39          6           0        2.163358    0.629391   -0.286608
     40          6           0       -1.662922    0.072440   -0.220316
     41          6           0        0.712340    0.828866   -0.097146
     42          6           0       -0.225802   -0.137535   -0.228609
     43          1           0       13.484482   -0.614941    1.311671
     44          1           0       13.407801   -1.954562    1.866484
     45          1           0      -14.253755   -0.789749    1.540372
     46          1           0      -14.056462   -0.654008   -0.269948
     47          1           0       12.774658   -2.735591   -0.796353
     48          1           0      -12.984238    1.623356    1.697787
     49          1           0       13.399210    0.132738   -1.252818
     50          1           0       12.902682   -1.130128   -2.360579
     51          1           0      -13.218276    1.869163   -1.314408
     52          1           0      -12.349524    2.815850   -0.329730
     53          1           0       11.581562   -1.112350    3.319990
     54          1           0       10.230215   -0.193490    2.779041
     55          1           0       11.625081    0.642570    2.961907
     56          1           0       11.047214   -2.979479    0.256026
     57          1           0       10.837026   -3.044479    2.115179
     58          1           0        9.656654   -2.464762    1.256926
     59          1           0      -11.333163    0.302343    2.527269
     60          1           0      -10.808270   -1.264696    2.255827
     61          1           0      -12.328057   -0.978181    2.985786
     62          1           0      -13.524480   -2.648782    0.993959
     63          1           0      -11.622157   -2.826087    0.837096
     64          1           0      -12.547277   -2.486611   -0.532857
     65          1           0        8.731751   -0.221476    0.658836
     66          1           0      -10.328402   -1.955374   -0.686991
     67          1           0       10.031905    0.902077   -2.295051
     68          1           0       11.560937    1.372167   -2.648555
     69          1           0       10.883614   -0.192010   -3.251177
     70          1           0      -11.315718    1.821027   -2.705485
     71          1           0       -9.924172    0.798724   -2.108721
     72          1           0      -10.021646    2.285008   -1.429905
     73          1           0       15.035634   -2.270593    0.410146
     74          1           0      -15.232123    2.050436    1.461142
     75          1           0       10.119563    2.521018   -0.226090
     76          1           0       -8.767853    0.550615   -0.116123
     77          1           0        8.821818    4.363801   -0.178227
     78          1           0        7.080547    4.198160    0.324881
     79          1           0        8.488152    3.914506    1.760511
     80          1           0       -8.311023   -3.186781    0.176362
     81          1           0       -8.239225   -3.109628   -1.602837
     82          1           0       -6.676657   -3.136632   -0.772621
     83          1           0        7.175840    0.417903   -0.482417
     84          1           0       -6.325107    0.274524   -0.107529
     85          1           0        5.526379    2.928110    0.688198
     86          1           0       -4.843127   -2.217050   -0.645551
     87          1           0        4.750897    0.216797   -0.793751
     88          1           0       -4.183247    0.670528    0.099389
     89          1           0        3.016232    2.784608    1.787872
     90          1           0        1.667090    3.021925    0.479445
     91          1           0        3.320357    3.780399    0.209035
     92          1           0       -2.891561   -2.968076    0.181979
     93          1           0       -3.093985   -2.744022   -1.462593
     94          1           0       -1.365195   -2.592616   -0.777631
     95          1           0        2.506078   -0.473389   -0.526418
     96          1           0       -1.852709    1.118954   -0.106533
     97          1           0        0.206542    1.655839    0.302319
     98          1           0       -0.024470   -0.971488   -0.737609
 ---------------------------------------------------------------------

 SCF Done:  E(RCAM-B3LYP) =  -1706.98825217     A.U. after   13 cycles

 Excitation energies and oscillator strengths:

 Excited State   1:      Singlet-A      3.1297 eV  396.15 nm  f=3.6219  <S**2>=0.000
     155 ->158        -0.20576
     156 ->157         0.66675
 This state for optimization and/or second-order correction.
 Total Energy, E(TD-HF/TD-DFT) =  -1706.87323738
 Copying the excited state density for this state as the 1-particle RhoCI density.

 The electronic state is 1-A.
 Alpha  occ. eigenvalues --  -19.20897 -19.19892 -10.30950 -10.30465 -10.29131
 Alpha  occ. eigenvalues --  -10.28446 -10.27854 -10.27434 -10.27322 -10.27092
 Alpha  occ. eigenvalues --  -10.26970 -10.26970 -10.26870 -10.26715 -10.26675
 Alpha  occ. eigenvalues --  -10.26606 -10.26575 -10.26458 -10.26334 -10.26303
 Alpha  occ. eigenvalues --  -10.26063 -10.25850 -10.25846 -10.25779 -10.25685
 Alpha  occ. eigenvalues --  -10.25679 -10.25504 -10.25471 -10.25375 -10.25290
 Alpha  occ. eigenvalues --  -10.24886 -10.24719 -10.24709 -10.24684 -10.24253
 Alpha  occ. eigenvalues --  -10.24225 -10.24207 -10.24010 -10.23672 -10.23594
 Alpha  occ. eigenvalues --  -10.23352 -10.22920  -1.10356  -1.08779  -0.94074
 Alpha  occ. eigenvalues --   -0.93564  -0.92301  -0.91466  -0.90779  -0.90150
 Alpha  occ. eigenvalues --   -0.88286  -0.87441  -0.87107  -0.85757  -0.84928
 Alpha  occ. eigenvalues --   -0.83538  -0.82069  -0.80820  -0.80061  -0.77840
 Alpha  occ. eigenvalues --   -0.77252  -0.76494  -0.76464  -0.76346  -0.75944
 Alpha  occ. eigenvalues --   -0.75713  -0.75563  -0.75243  -0.74177  -0.70398
 Alpha  occ. eigenvalues --   -0.69242  -0.68172  -0.66333  -0.65549  -0.64602
 Alpha  occ. eigenvalues --   -0.63494  -0.62883  -0.62001  -0.61068  -0.59810
 Alpha  occ. eigenvalues --   -0.58886  -0.58285  -0.57884  -0.57530  -0.56743
 Alpha  occ. eigenvalues --   -0.56460  -0.54971  -0.54729  -0.54481  -0.53582
 Alpha  occ. eigenvalues --   -0.53186  -0.52928  -0.52621  -0.52158  -0.51524
 Alpha  occ. eigenvalues --   -0.50708  -0.50575  -0.50001  -0.49925  -0.49697
 Alpha  occ. eigenvalues --   -0.49477  -0.49287  -0.49119  -0.47941  -0.47808
 Alpha  occ. eigenvalues --   -0.47555  -0.47435  -0.47103  -0.47006  -0.46892
 Alpha  occ. eigenvalues --   -0.46156  -0.45968  -0.45744  -0.45301  -0.45044
 Alpha  occ. eigenvalues --   -0.44560  -0.44320  -0.44135  -0.43937  -0.43731
 Alpha  occ. eigenvalues --   -0.43351  -0.43282  -0.43003  -0.42674  -0.42250
 Alpha  occ. eigenvalues --   -0.41488  -0.41022  -0.40871  -0.40646  -0.40588
 Alpha  occ. eigenvalues --   -0.40411  -0.40242  -0.39674  -0.39025  -0.38886
 Alpha  occ. eigenvalues --   -0.38841  -0.38627  -0.38385  -0.38149  -0.37905
 Alpha  occ. eigenvalues --   -0.37609  -0.36975  -0.36465  -0.36214  -0.35288
 Alpha  occ. eigenvalues --   -0.34896  -0.34024  -0.33442  -0.32297  -0.31825
 Alpha  occ. eigenvalues --   -0.31745  -0.29689  -0.28453  -0.26706  -0.24335
 Alpha  occ. eigenvalues --   -0.21817
 Alpha virt. eigenvalues --   -0.03286   0.00058   0.03072   0.06568   0.08347
 Alpha virt. eigenvalues --    0.09966   0.10472   0.11826   0.12199   0.12570
 Alpha virt. eigenvalues --    0.12875   0.13020   0.13361   0.13488   0.13625

 Mulliken charges:
               1
     1  O   -0.564001
     2  O   -0.565844
     3  C    0.007106
     4  C   -0.037702
     5  C   -0.209074
     6  C   -0.170448
     7  C    0.212378
     8  C    0.161913
     9  C    0.036187
    10  C    0.076284
    11  C   -0.202713
    12  C   -0.182658
    13  C    0.035480
    14  C    0.022497
    15  C   -0.323705
    16  C   -0.296240
    17  C   -0.305670
    18  C   -0.318609
    19  C   -0.121852
    20  C   -0.115917
    21  C   -0.368588
    22  C   -0.354806
    23  C   -0.101724
    24  C   -0.110629
    25  C    0.123677
    26  C    0.103818
    27  C   -0.375008
    28  C   -0.365939
    29  C   -0.127273
    30  C   -0.108033
    31  C   -0.084364
    32  C   -0.095002
    33  C   -0.115038
    34  C   -0.102513
    35  C    0.108963
    36  C    0.107688
    37  C   -0.357750
    38  C   -0.369604
    39  C   -0.126131
    40  C   -0.128370
    41  C   -0.093530
    42  C   -0.085864
    43  H    0.109425
    44  H    0.056993
    45  H    0.069457
    46  H    0.083575
    47  H    0.073434
    48  H    0.087927
    49  H    0.123423
    50  H    0.098879
    51  H    0.119186
    52  H    0.091596
    53  H    0.102769
    54  H    0.112037
    55  H    0.098600
    56  H    0.074721
    57  H    0.098940
    58  H    0.104598
    59  H    0.104096
    60  H    0.106889
    61  H    0.088591
    62  H    0.098080
    63  H    0.112881
    64  H    0.103477
    65  H    0.107175
    66  H    0.080613
    67  H    0.114729
    68  H    0.114625
    69  H    0.123615
    70  H    0.111496
    71  H    0.115536
    72  H    0.110821
    73  H    0.309099
    74  H    0.295979
    75  H    0.085706
    76  H    0.078760
    77  H    0.104757
    78  H    0.112510
    79  H    0.094512
    80  H    0.117513
    81  H    0.112241
    82  H    0.109585
    83  H    0.084855
    84  H    0.064746
    85  H    0.057295
    86  H    0.062534
    87  H    0.073279
    88  H    0.087556
    89  H    0.141114
    90  H    0.115112
    91  H    0.101484
    92  H    0.127035
    93  H    0.109851
    94  H    0.120362
    95  H    0.094106
    96  H    0.078719
    97  H    0.082664
    98  H    0.069047
 Sum of Mulliken charges =  -0.00000

 Dipole moment (field-independent basis, Debye):
    X=              1.3788    Y=             -0.0978    Z=              2.8589  Tot=              3.1755
 Quadrupole moment (field-independent basis, Debye-Ang):
   XX=           -284.6044   YY=           -248.1525   ZZ=           -257.6794
   XY=             17.8876   XZ=              3.9280   YZ=              2.9052

 Normal termination of Gaussian 16 at Thu Jun 27 05:36:05 2019.
