 Gaussian 16, Revision A.03,
 Gaussian 16:  ES64L-G16RevA.03 25-Dec-2016

 -------------------------------------
 # td=(NStates=1) CAM-B3LYP/6-31G(d,p)
 -------------------------------------

 --
 TD
 --
 Symbolic Z-matrix:
 Charge =  0 Multiplicity = 1

                         Standard orientation:
 ---------------------------------------------------------------------
 Center     Atomic      Atomic             Coordinates (Angstroms)
 Number     Number       Type             X           Y           Z
 ---------------------------------------------------------------------
      1          8           0       14.665937   -2.255304   -0.241879
      2          8           0      -14.598936    2.035708    0.853789
      3          6           0       11.395798   -0.997418    1.299003
      4          6           0      -12.289101   -0.953370    0.853086
      5          6           0       12.920870   -1.277164    1.110566
      6          6           0      -13.646753   -0.090518    0.815735
      7          6           0       13.287227   -2.016878   -0.120494
      8          6           0      -13.389692    1.425779    0.925018
      9          6           0       10.948509   -0.275222    0.013670
     10          6           0      -11.268204   -0.270579   -0.073594
     11          6           0       13.054922   -0.917909   -1.182606
     12          6           0      -12.635914    1.776491   -0.311162
     13          6           0       11.639961   -0.287893   -1.077503
     14          6           0      -11.431365    0.977844   -0.687940
     15          6           0       11.276783   -0.194514    2.585875
     16          6           0       10.534830   -2.258310    1.401453
     17          6           0      -11.818480   -1.033548    2.232668
     18          6           0      -12.721040   -2.398808    0.336005
     19          6           0        9.687517    0.404114    0.121518
     20          6           0      -10.072091   -1.017306   -0.428401
     21          6           0       11.136013    0.379654   -2.446714
     22          6           0      -10.516851    1.739810   -1.683718
     23          6           0        9.389338    1.670573   -0.173481
     24          6           0       -8.809502   -0.525325   -0.492177
     25          6           0        7.990451    2.311722   -0.011454
     26          6           0       -7.568426   -1.398766   -0.520675
     27          6           0        8.081334    3.797227    0.142615
     28          6           0       -7.721775   -2.800189   -0.869255
     29          6           0        6.800792    1.542905   -0.064356
     30          6           0       -6.434508   -0.728503   -0.399754
     31          6           0        5.433491    2.051142    0.099211
     32          6           0       -5.067392   -1.311791   -0.519691
     33          6           0        4.383844    1.235764    0.040852
     34          6           0       -4.036569   -0.487336   -0.427504
     35          6           0        3.055131    1.674177    0.088358
     36          6           0       -2.598460   -0.943852   -0.614651
     37          6           0        2.748570    3.073559    0.519877
     38          6           0       -2.368271   -2.258379   -1.109765
     39          6           0        2.083204    0.786732   -0.135503
     40          6           0       -1.554948   -0.011730   -0.295636
     41          6           0        0.691450    0.867334   -0.030123
     42          6           0       -0.196066   -0.255251   -0.366311
     43          1           0       13.425489   -0.488470    1.232802
     44          1           0       13.144501   -2.144387    2.028258
     45          1           0      -14.095388   -0.397886    1.628251
     46          1           0      -14.111605   -0.325245   -0.182418
     47          1           0       12.624333   -2.875136   -0.116619
     48          1           0      -12.709365    1.467354    1.723152
     49          1           0       13.705902   -0.237849   -0.957055
     50          1           0       13.200789   -1.257052   -2.298023
     51          1           0      -13.240534    1.600523   -1.130725
     52          1           0      -12.213426    2.790102   -0.286991
     53          1           0       11.627018   -0.604873    3.449547
     54          1           0       10.186393   -0.041733    2.767492
     55          1           0       11.980217    0.738987    2.347110
     56          1           0       11.087399   -3.026036    0.718353
     57          1           0       10.768172   -2.767210    2.541325
     58          1           0        9.433934   -2.060987    1.432229
     59          1           0      -11.490454    0.122249    2.409411
     60          1           0      -10.882245   -1.582432    2.253325
     61          1           0      -12.716735   -1.335353    2.817046
     62          1           0      -13.736143   -2.671244    0.655023
     63          1           0      -12.052690   -3.202364    0.595610
     64          1           0      -12.772947   -2.405128   -0.688963
     65          1           0        8.742961   -0.157587    0.447928
     66          1           0      -10.410871   -2.038853   -0.575200
     67          1           0       10.099018    0.451162   -2.324449
     68          1           0       11.748877    1.391385   -2.501660
     69          1           0       11.303826   -0.246970   -3.298684
     70          1           0      -11.056996    2.258673   -2.475367
     71          1           0      -10.009781    0.763932   -2.350948
     72          1           0       -9.682460    2.359507   -1.195419
     73          1           0       14.840728   -2.795474    0.469767
     74          1           0      -15.052404    2.062371    1.720911
     75          1           0       10.143579    2.158884   -0.351257
     76          1           0       -8.748337    0.701377   -0.297214
     77          1           0        8.474530    4.263541   -0.687322
     78          1           0        6.964994    4.062172    0.271383
     79          1           0        8.628869    4.027992    1.190128
     80          1           0       -8.199354   -3.175379    0.093343
     81          1           0       -8.324947   -2.618543   -1.763611
     82          1           0       -6.811963   -2.972762   -1.188812
     83          1           0        7.021263    0.464394   -0.111632
     84          1           0       -6.337234    0.359706   -0.297121
     85          1           0        5.164581    3.042389    0.195553
     86          1           0       -4.987490   -2.193010   -1.019235
     87          1           0        4.660088    0.160527   -0.133414
     88          1           0       -4.085920    0.682410   -0.461445
     89          1           0        3.428618    3.262615    1.450506
     90          1           0        1.701890    3.218103    0.823859
     91          1           0        2.857237    3.899621   -0.386934
     92          1           0       -2.696156   -3.142732   -0.375246
     93          1           0       -2.833286   -2.523613   -2.101508
     94          1           0       -1.264368   -2.497315   -1.390895
     95          1           0        2.274760   -0.293936   -0.446847
     96          1           0       -1.993678    0.932155    0.188474
     97          1           0        0.162237    1.831715    0.299469
     98          1           0        0.210797   -1.263140   -0.508780
 ---------------------------------------------------------------------

 SCF Done:  E(RCAM-B3LYP) =  -1706.90235129     A.U. after   15 cycles

 Excitation energies and oscillator strengths:

 Excited State   1:      Singlet-A      2.5333 eV  489.41 nm  f=3.3308  <S**2>=0.000
     155 ->158        -0.12440
     156 ->157         0.69286
 This state for optimization and/or second-order correction.
 Total Energy, E(TD-HF/TD-DFT) =  -1706.80925258
 Copying the excited state density for this state as the 1-particle RhoCI density.

 The electronic state is 1-A.
 Alpha  occ. eigenvalues --  -19.21794 -19.21386 -10.30068 -10.29024 -10.28015
 Alpha  occ. eigenvalues --  -10.27603 -10.27508 -10.27506 -10.27412 -10.27337
 Alpha  occ. eigenvalues --  -10.27335 -10.27302 -10.26917 -10.26870 -10.26810
 Alpha  occ. eigenvalues --  -10.26789 -10.26739 -10.26649 -10.26551 -10.26436
 Alpha  occ. eigenvalues --  -10.26300 -10.26207 -10.26198 -10.25710 -10.25566
 Alpha  occ. eigenvalues --  -10.25344 -10.25276 -10.25232 -10.25212 -10.25163
 Alpha  occ. eigenvalues --  -10.25076 -10.24951 -10.24900 -10.24882 -10.24827
 Alpha  occ. eigenvalues --  -10.24781 -10.24658 -10.24549 -10.24045 -10.23852
 Alpha  occ. eigenvalues --  -10.23105 -10.22957  -1.11972  -1.11558  -0.94494
 Alpha  occ. eigenvalues --   -0.93088  -0.92484  -0.91766  -0.90259  -0.89542
 Alpha  occ. eigenvalues --   -0.87305  -0.86899  -0.86410  -0.85848  -0.84971
 Alpha  occ. eigenvalues --   -0.83826  -0.82001  -0.80465  -0.79625  -0.78076
 Alpha  occ. eigenvalues --   -0.76791  -0.76561  -0.76426  -0.75605  -0.75383
 Alpha  occ. eigenvalues --   -0.75254  -0.74916  -0.74372  -0.73033  -0.70091
 Alpha  occ. eigenvalues --   -0.68758  -0.67971  -0.66079  -0.64977  -0.63653
 Alpha  occ. eigenvalues --   -0.63310  -0.62455  -0.61414  -0.60939  -0.60760
 Alpha  occ. eigenvalues --   -0.60602  -0.60346  -0.59015  -0.57045  -0.56109
 Alpha  occ. eigenvalues --   -0.55794  -0.55220  -0.54874  -0.54160  -0.52985
 Alpha  occ. eigenvalues --   -0.52230  -0.52117  -0.51989  -0.51691  -0.51548
 Alpha  occ. eigenvalues --   -0.51263  -0.50248  -0.50029  -0.49415  -0.49311
 Alpha  occ. eigenvalues --   -0.49282  -0.48927  -0.48650  -0.48247  -0.48101
 Alpha  occ. eigenvalues --   -0.48018  -0.47648  -0.47173  -0.46741  -0.46499
 Alpha  occ. eigenvalues --   -0.46194  -0.45954  -0.45654  -0.45482  -0.45289
 Alpha  occ. eigenvalues --   -0.45079  -0.44548  -0.44148  -0.44063  -0.43551
 Alpha  occ. eigenvalues --   -0.43125  -0.43062  -0.42882  -0.42439  -0.42063
 Alpha  occ. eigenvalues --   -0.41829  -0.41606  -0.41294  -0.41211  -0.40346
 Alpha  occ. eigenvalues --   -0.39778  -0.39650  -0.39545  -0.39483  -0.39104
 Alpha  occ. eigenvalues --   -0.38895  -0.38840  -0.38444  -0.37834  -0.37434
 Alpha  occ. eigenvalues --   -0.37282  -0.37000  -0.36760  -0.36267  -0.35367
 Alpha  occ. eigenvalues --   -0.34314  -0.33864  -0.33059  -0.32702  -0.32106
 Alpha  occ. eigenvalues --   -0.30685  -0.29596  -0.28524  -0.25878  -0.23794
 Alpha  occ. eigenvalues --   -0.19874
 Alpha virt. eigenvalues --   -0.04721   0.00909   0.02953   0.06493   0.08207
 Alpha virt. eigenvalues --    0.10056   0.10794   0.11188   0.11782   0.12496
 Alpha virt. eigenvalues --    0.12656   0.13081   0.13408   0.13524   0.13756

 Mulliken charges:
               1
     1  O   -0.531033
     2  O   -0.545402
     3  C   -0.021067
     4  C   -0.042107
     5  C   -0.162650
     6  C   -0.166698
     7  C    0.159686
     8  C    0.173070
     9  C    0.091976
    10  C    0.038791
    11  C   -0.196120
    12  C   -0.202313
    13  C   -0.003174
    14  C    0.033440
    15  C   -0.276893
    16  C   -0.287106
    17  C   -0.265367
    18  C   -0.330321
    19  C   -0.131958
    20  C   -0.136272
    21  C   -0.342811
    22  C   -0.359576
    23  C   -0.035577
    24  C   -0.091744
    25  C    0.045476
    26  C    0.036030
    27  C   -0.353433
    28  C   -0.319645
    29  C   -0.120787
    30  C   -0.105907
    31  C   -0.081518
    32  C   -0.098292
    33  C   -0.095587
    34  C   -0.119606
    35  C    0.125058
    36  C    0.111800
    37  C   -0.372617
    38  C   -0.394253
    39  C   -0.119977
    40  C   -0.114888
    41  C   -0.097874
    42  C   -0.099724
    43  H    0.099792
    44  H    0.023654
    45  H    0.067975
    46  H    0.094046
    47  H    0.078225
    48  H    0.079989
    49  H    0.131066
    50  H    0.087831
    51  H    0.122402
    52  H    0.093901
    53  H    0.116791
    54  H    0.098474
    55  H    0.077615
    56  H    0.098886
    57  H    0.056035
    58  H    0.121932
    59  H    0.076281
    60  H    0.111319
    61  H    0.100244
    62  H    0.101178
    63  H    0.099486
    64  H    0.117674
    65  H    0.065589
    66  H    0.081095
    67  H    0.131108
    68  H    0.102088
    69  H    0.110997
    70  H    0.119313
    71  H    0.090285
    72  H    0.119535
    73  H    0.291720
    74  H    0.307677
    75  H    0.042336
    76  H    0.074793
    77  H    0.135370
    78  H    0.099000
    79  H    0.109140
    80  H    0.132206
    81  H    0.128999
    82  H    0.107322
    83  H    0.079408
    84  H    0.076009
    85  H    0.086094
    86  H    0.095711
    87  H    0.078740
    88  H    0.087548
    89  H    0.114984
    90  H    0.116043
    91  H    0.102866
    92  H    0.110374
    93  H    0.119644
    94  H    0.097156
    95  H    0.073213
    96  H    0.084062
    97  H    0.078918
    98  H    0.102830
 Sum of Mulliken charges =  -0.00000

 Dipole moment (field-independent basis, Debye):
    X=             -0.7654    Y=             -0.5929    Z=              1.7831  Tot=              2.0290
 Quadrupole moment (field-independent basis, Debye-Ang):
   XX=           -260.7533   YY=           -247.2116   ZZ=           -259.3346
   XY=              6.1715   XZ=             -2.3489   YZ=              1.9282

 Normal termination of Gaussian 16 at Mon Jul  8 08:27:36 2019.
