 Gaussian 16, Revision A.03,
 Gaussian 16:  ES64L-G16RevA.03 25-Dec-2016

 -------------------------------------
 # td=(NStates=1) CAM-B3LYP/6-31G(d,p)
 -------------------------------------

 --
 TD
 --
 Symbolic Z-matrix:
 Charge =  0 Multiplicity = 1

                         Standard orientation:
 ---------------------------------------------------------------------
 Center     Atomic      Atomic             Coordinates (Angstroms)
 Number     Number       Type             X           Y           Z
 ---------------------------------------------------------------------
      1          8           0       14.620128   -2.353383   -0.367159
      2          8           0      -14.748475    1.986556    0.581752
      3          6           0       11.430741   -1.116034    1.165502
      4          6           0      -12.400467   -0.954974    0.867063
      5          6           0       12.939813   -1.465211    1.007459
      6          6           0      -13.751664   -0.206978    0.609741
      7          6           0       13.287899   -2.068522   -0.356890
      8          6           0      -13.549309    1.299643    0.595304
      9          6           0       10.902980   -0.282115   -0.007787
     10          6           0      -11.344798   -0.320781   -0.117758
     11          6           0       12.918495   -0.984312   -1.413343
     12          6           0      -12.691079    1.696607   -0.603777
     13          6           0       11.562421   -0.277759   -1.155449
     14          6           0      -11.534984    0.816199   -0.839800
     15          6           0       11.388746   -0.371194    2.508322
     16          6           0       10.641714   -2.336026    1.361773
     17          6           0      -11.929507   -0.880702    2.281379
     18          6           0      -12.586655   -2.434818    0.413648
     19          6           0        9.727326    0.406917    0.197337
     20          6           0      -10.090863   -1.187908   -0.218802
     21          6           0       11.035554    0.327380   -2.457661
     22          6           0      -10.624696    1.327659   -1.764270
     23          6           0        9.415725    1.676417   -0.022294
     24          6           0       -8.787407   -0.560538   -0.226918
     25          6           0        8.092236    2.271978    0.139806
     26          6           0       -7.524063   -1.342315   -0.320062
     27          6           0        8.072635    3.749809    0.564651
     28          6           0       -7.524547   -2.823477   -0.514997
     29          6           0        6.884169    1.589606    0.035295
     30          6           0       -6.363669   -0.534613   -0.416315
     31          6           0        5.553499    2.190893    0.225795
     32          6           0       -4.995052   -1.049871   -0.509536
     33          6           0        4.442267    1.421395    0.031591
     34          6           0       -4.011147   -0.210170   -0.425870
     35          6           0        3.167066    1.787827    0.095583
     36          6           0       -2.615624   -0.668027   -0.479835
     37          6           0        2.745035    3.250369    0.449394
     38          6           0       -2.446858   -2.113058   -0.937967
     39          6           0        2.186278    0.820631   -0.067351
     40          6           0       -1.559778    0.168202   -0.176168
     41          6           0        0.731246    0.942815   -0.102985
     42          6           0       -0.156416    0.023000   -0.287864
     43          1           0       13.676028   -0.577003    1.179238
     44          1           0       13.507750   -2.167238    1.800183
     45          1           0      -14.395366   -0.630404    1.477313
     46          1           0      -14.010131   -0.524383   -0.367115
     47          1           0       12.796320   -3.114368   -0.660133
     48          1           0      -13.067754    1.647200    1.404397
     49          1           0       13.692253   -0.270833   -1.496191
     50          1           0       12.886605   -1.493956   -2.397430
     51          1           0      -13.323002    1.409768   -1.594315
     52          1           0      -12.659845    2.717143   -0.297984
     53          1           0       11.680614   -1.087428    3.294497
     54          1           0       10.401229    0.038933    2.822464
     55          1           0       12.175720    0.583718    2.499031
     56          1           0       10.670227   -2.874313    0.313096
     57          1           0       11.079792   -3.141190    1.964723
     58          1           0        9.687516   -2.183518    1.719456
     59          1           0      -11.533279    0.252386    2.466256
     60          1           0      -11.078844   -1.570862    2.391899
     61          1           0      -12.589628   -1.213602    2.949314
     62          1           0      -13.603206   -2.979926    0.870874
     63          1           0      -11.670499   -2.997587    0.790949
     64          1           0      -12.722365   -2.592732   -0.740175
     65          1           0        8.905743   -0.315346    0.530636
     66          1           0      -10.130503   -2.238199   -0.058048
     67          1           0       10.041522    0.696201   -2.162324
     68          1           0       11.746370    1.055499   -2.706813
     69          1           0       10.966232   -0.469869   -3.192013
     70          1           0      -11.293204    1.610662   -2.761796
     71          1           0      -10.056435    0.464932   -2.244292
     72          1           0       -9.994379    2.097893   -1.349803
     73          1           0       14.781193   -3.171741    0.077350
     74          1           0      -15.209760    1.656487    1.376302
     75          1           0       10.164334    2.446046   -0.383733
     76          1           0       -8.839241    0.631070   -0.288827
     77          1           0        8.934440    4.362024   -0.092691
     78          1           0        7.203695    4.359624    0.078983
     79          1           0        8.220655    4.161432    1.774947
     80          1           0       -8.152559   -3.237605    0.124740
     81          1           0       -8.142271   -3.117706   -1.446712
     82          1           0       -6.642313   -3.281561   -0.875530
     83          1           0        6.891299    0.438640   -0.145353
     84          1           0       -6.556262    0.464824   -0.304102
     85          1           0        5.570498    3.350116    0.459707
     86          1           0       -5.147894   -2.050187   -0.743825
     87          1           0        4.564323    0.324774   -0.200478
     88          1           0       -3.964869    0.879404   -0.273923
     89          1           0        3.404542    3.714960    1.444110
     90          1           0        1.679002    3.199772    0.721884
     91          1           0        2.918716    3.875098   -0.459520
     92          1           0       -2.689509   -2.882506   -0.213562
     93          1           0       -2.974692   -2.264621   -1.869162
     94          1           0       -1.397454   -2.306207   -1.302298
     95          1           0        2.429628   -0.215407   -0.310555
     96          1           0       -2.221656    1.135928    0.297181
     97          1           0        0.228176    1.929065    0.157040
     98          1           0        0.365705   -1.066339   -0.520266
 ---------------------------------------------------------------------

 SCF Done:  E(RCAM-B3LYP) =  -1706.95930513     A.U. after   14 cycles

 Excitation energies and oscillator strengths:

 Excited State   1:      Singlet-A      2.6601 eV  466.10 nm  f=3.7846  <S**2>=0.000
     155 ->158        -0.18890
     156 ->157         0.67454
 This state for optimization and/or second-order correction.
 Total Energy, E(TD-HF/TD-DFT) =  -1706.86154992
 Copying the excited state density for this state as the 1-particle RhoCI density.

 The electronic state is 1-A.
 Alpha  occ. eigenvalues --  -19.20735 -19.20642 -10.30933 -10.29125 -10.28501
 Alpha  occ. eigenvalues --  -10.28243 -10.28168 -10.27847 -10.27801 -10.27659
 Alpha  occ. eigenvalues --  -10.27411 -10.27407 -10.27369 -10.27349 -10.27330
 Alpha  occ. eigenvalues --  -10.27217 -10.27127 -10.26923 -10.26912 -10.26607
 Alpha  occ. eigenvalues --  -10.26379 -10.26341 -10.26235 -10.26220 -10.26154
 Alpha  occ. eigenvalues --  -10.25976 -10.25887 -10.25776 -10.25736 -10.25672
 Alpha  occ. eigenvalues --  -10.25657 -10.25590 -10.25430 -10.25321 -10.25227
 Alpha  occ. eigenvalues --  -10.25143 -10.24937 -10.24823 -10.24738 -10.24667
 Alpha  occ. eigenvalues --  -10.24263 -10.23865  -1.11579  -1.10596  -0.94157
 Alpha  occ. eigenvalues --   -0.93592  -0.92482  -0.91930  -0.90111  -0.89503
 Alpha  occ. eigenvalues --   -0.88190  -0.88022  -0.87056  -0.85178  -0.84437
 Alpha  occ. eigenvalues --   -0.83280  -0.81795  -0.79984  -0.79706  -0.77716
 Alpha  occ. eigenvalues --   -0.77216  -0.76346  -0.76132  -0.75557  -0.75418
 Alpha  occ. eigenvalues --   -0.75028  -0.74403  -0.74116  -0.73447  -0.70469
 Alpha  occ. eigenvalues --   -0.69136  -0.67563  -0.66203  -0.64844  -0.63696
 Alpha  occ. eigenvalues --   -0.63234  -0.62569  -0.61790  -0.60040  -0.59617
 Alpha  occ. eigenvalues --   -0.59084  -0.58822  -0.58550  -0.57680  -0.56397
 Alpha  occ. eigenvalues --   -0.55989  -0.55320  -0.55032  -0.54278  -0.53843
 Alpha  occ. eigenvalues --   -0.53302  -0.52509  -0.51777  -0.51713  -0.51499
 Alpha  occ. eigenvalues --   -0.50866  -0.50425  -0.50184  -0.49824  -0.49563
 Alpha  occ. eigenvalues --   -0.49381  -0.49263  -0.48941  -0.48650  -0.48128
 Alpha  occ. eigenvalues --   -0.47983  -0.47662  -0.47237  -0.46484  -0.46241
 Alpha  occ. eigenvalues --   -0.46019  -0.45855  -0.45507  -0.45215  -0.44837
 Alpha  occ. eigenvalues --   -0.43968  -0.43830  -0.43606  -0.43528  -0.43098
 Alpha  occ. eigenvalues --   -0.42730  -0.42102  -0.42066  -0.41961  -0.41696
 Alpha  occ. eigenvalues --   -0.41312  -0.41054  -0.41024  -0.40859  -0.40395
 Alpha  occ. eigenvalues --   -0.39894  -0.39746  -0.39579  -0.39368  -0.39219
 Alpha  occ. eigenvalues --   -0.39151  -0.38539  -0.38440  -0.38154  -0.37648
 Alpha  occ. eigenvalues --   -0.37380  -0.37200  -0.36441  -0.35650  -0.35199
 Alpha  occ. eigenvalues --   -0.35147  -0.34186  -0.33751  -0.32162  -0.31883
 Alpha  occ. eigenvalues --   -0.31050  -0.30065  -0.28451  -0.26735  -0.23510
 Alpha  occ. eigenvalues --   -0.20828
 Alpha virt. eigenvalues --   -0.04733  -0.01030   0.02800   0.05739   0.08243
 Alpha virt. eigenvalues --    0.09602   0.10390   0.10974   0.11465   0.11648
 Alpha virt. eigenvalues --    0.12160   0.12203   0.12486   0.13328   0.13442

 Mulliken charges:
               1
     1  O   -0.545980
     2  O   -0.558974
     3  C   -0.016349
     4  C   -0.025625
     5  C   -0.177343
     6  C   -0.190318
     7  C    0.171873
     8  C    0.176015
     9  C    0.105816
    10  C    0.062345
    11  C   -0.214670
    12  C   -0.216078
    13  C    0.006762
    14  C    0.076920
    15  C   -0.290644
    16  C   -0.294247
    17  C   -0.277150
    18  C   -0.296178
    19  C   -0.130815
    20  C   -0.146327
    21  C   -0.346288
    22  C   -0.375309
    23  C   -0.092269
    24  C   -0.107509
    25  C    0.071535
    26  C    0.087365
    27  C   -0.352702
    28  C   -0.378343
    29  C   -0.103519
    30  C   -0.127005
    31  C   -0.101920
    32  C   -0.046717
    33  C   -0.102031
    34  C   -0.101317
    35  C    0.138210
    36  C    0.107072
    37  C   -0.349317
    38  C   -0.377796
    39  C   -0.154517
    40  C   -0.139224
    41  C   -0.057974
    42  C   -0.091584
    43  H    0.099502
    44  H    0.053709
    45  H    0.063907
    46  H    0.105020
    47  H    0.050214
    48  H    0.079202
    49  H    0.126717
    50  H    0.096396
    51  H    0.095641
    52  H    0.120866
    53  H    0.099779
    54  H    0.098864
    55  H    0.072549
    56  H    0.082077
    57  H    0.104376
    58  H    0.111994
    59  H    0.089500
    60  H    0.099757
    61  H    0.109255
    62  H    0.071690
    63  H    0.093000
    64  H    0.103679
    65  H    0.086783
    66  H    0.075251
    67  H    0.115571
    68  H    0.119769
    69  H    0.112131
    70  H    0.076092
    71  H    0.123274
    72  H    0.125788
    73  H    0.305933
    74  H    0.304348
    75  H    0.091397
    76  H    0.091379
    77  H    0.076283
    78  H    0.108669
    79  H    0.104037
    80  H    0.133937
    81  H    0.110747
    82  H    0.126313
    83  H    0.080446
    84  H    0.072018
    85  H    0.093556
    86  H    0.085167
    87  H    0.082771
    88  H    0.090105
    89  H    0.087485
    90  H    0.117676
    91  H    0.127657
    92  H    0.126006
    93  H    0.118918
    94  H    0.098893
    95  H    0.076971
    96  H    0.057712
    97  H    0.076705
    98  H    0.074645
 Sum of Mulliken charges =  -0.00000

 Dipole moment (field-independent basis, Debye):
    X=             -0.4690    Y=             -2.5860    Z=              1.2196  Tot=              2.8974
 Quadrupole moment (field-independent basis, Debye-Ang):
   XX=           -282.0617   YY=           -242.9709   ZZ=           -262.8201
   XY=              7.4348   XZ=            -11.4750   YZ=              2.4497

 Normal termination of Gaussian 16 at Sat Jul  6 02:07:08 2019.
