 Gaussian 16, Revision A.03,
 Gaussian 16:  ES64L-G16RevA.03 25-Dec-2016

 -------------------------------------
 # td=(NStates=1) CAM-B3LYP/6-31G(d,p)
 -------------------------------------

 --
 TD
 --
 Symbolic Z-matrix:
 Charge =  0 Multiplicity = 1

                         Standard orientation:
 ---------------------------------------------------------------------
 Center     Atomic      Atomic             Coordinates (Angstroms)
 Number     Number       Type             X           Y           Z
 ---------------------------------------------------------------------
      1          8           0       14.570576   -2.413836   -0.418101
      2          8           0      -14.868746    1.793872    0.936329
      3          6           0       11.409681   -1.163815    1.306476
      4          6           0      -12.201645   -0.952469    0.842753
      5          6           0       12.896455   -1.562463    1.121168
      6          6           0      -13.527161   -0.332281    0.952590
      7          6           0       13.232779   -2.141977   -0.259487
      8          6           0      -13.572633    1.221919    0.852334
      9          6           0       10.958154   -0.309573    0.089823
     10          6           0      -11.285079   -0.295254   -0.168186
     11          6           0       12.950118   -0.992006   -1.227395
     12          6           0      -13.014644    1.604235   -0.503820
     13          6           0       11.687295   -0.217808   -1.017468
     14          6           0      -11.638505    0.857132   -0.800995
     15          6           0       11.295344   -0.296963    2.621644
     16          6           0       10.531595   -2.409682    1.321315
     17          6           0      -11.571487   -0.874675    2.325459
     18          6           0      -12.430776   -2.460769    0.494418
     19          6           0        9.642389    0.462758    0.226672
     20          6           0      -10.084403   -0.974007   -0.383021
     21          6           0       11.324153    0.612843   -2.221857
     22          6           0      -10.854855    1.450141   -1.789422
     23          6           0        9.355128    1.713551    0.064368
     24          6           0       -8.822007   -0.504343   -0.248801
     25          6           0        8.011066    2.307251    0.167252
     26          6           0       -7.556029   -1.235503   -0.596649
     27          6           0        8.112365    3.819559    0.470214
     28          6           0       -7.649733   -2.593389   -1.089866
     29          6           0        6.943866    1.510220   -0.107553
     30          6           0       -6.459316   -0.622127   -0.379577
     31          6           0        5.608296    2.108329    0.027842
     32          6           0       -5.060061   -1.062264   -0.552157
     33          6           0        4.560717    1.386124   -0.346825
     34          6           0       -4.013029   -0.265231   -0.381158
     35          6           0        3.079838    1.698402   -0.128082
     36          6           0       -2.699785   -0.664782   -0.558801
     37          6           0        2.904940    2.979772    0.462616
     38          6           0       -2.452882   -2.117584   -1.043537
     39          6           0        2.178539    0.759424   -0.359290
     40          6           0       -1.630434    0.166229   -0.173744
     41          6           0        0.791832    0.992785   -0.071350
     42          6           0       -0.209945   -0.021103   -0.236908
     43          1           0       13.396552   -0.550437    1.342551
     44          1           0       13.225337   -2.305387    2.018394
     45          1           0      -14.147156   -0.567502    1.843980
     46          1           0      -14.102727   -0.725493    0.094623
     47          1           0       12.703285   -2.990603   -0.594139
     48          1           0      -12.926633    1.689213    1.726519
     49          1           0       13.874429   -0.536487   -1.295480
     50          1           0       12.995566   -1.325167   -2.327812
     51          1           0      -13.687539    1.293119   -1.300935
     52          1           0      -12.781483    2.705567   -0.391205
     53          1           0       11.685100   -0.891831    3.410806
     54          1           0       10.280512   -0.094547    2.924903
     55          1           0       11.862273    0.636905    2.519338
     56          1           0       10.382390   -3.021179    0.567424
     57          1           0       10.811449   -2.930921    2.212529
     58          1           0        9.533603   -2.181979    1.574346
     59          1           0      -11.663201    0.176141    2.761895
     60          1           0      -10.617346   -1.416594    2.255266
     61          1           0      -12.284153   -1.285564    3.076248
     62          1           0      -13.128071   -2.796685    1.062025
     63          1           0      -11.714937   -3.155783    0.670584
     64          1           0      -12.713758   -2.561754   -0.599578
     65          1           0        8.804015   -0.142189    0.642220
     66          1           0      -10.049137   -1.993835   -0.632700
     67          1           0       10.302538    0.782570   -2.525688
     68          1           0       11.760617    1.674962   -2.115923
     69          1           0       11.999522    0.074767   -3.189814
     70          1           0      -11.687772    1.693802   -2.518789
     71          1           0      -10.288624    0.844396   -2.527490
     72          1           0      -10.238241    2.263283   -1.441643
     73          1           0       14.678383   -3.205850   -0.030549
     74          1           0      -15.377038    1.591276    1.724939
     75          1           0       10.104689    2.511492   -0.106141
     76          1           0       -8.521159    0.609308   -0.060370
     77          1           0        8.510319    4.286811   -0.483560
     78          1           0        7.040307    4.082387    0.653587
     79          1           0        8.608789    4.048331    1.419887
     80          1           0       -8.199348   -3.141928   -0.416947
     81          1           0       -8.496185   -2.633789   -1.868782
     82          1           0       -6.635459   -2.941607   -1.649778
     83          1           0        7.191106    0.426561   -0.366211
     84          1           0       -6.385051    0.513145   -0.152981
     85          1           0        5.374535    3.124605    0.566083
     86          1           0       -4.870610   -2.093649   -0.703559
     87          1           0        4.767415    0.325268   -0.674832
     88          1           0       -4.297403    0.969744   -0.246386
     89          1           0        3.728883    3.048376    1.402597
     90          1           0        1.828341    3.555058    0.880634
     91          1           0        3.434872    3.610164   -0.433403
     92          1           0       -2.886948   -2.991713   -0.705841
     93          1           0       -2.905930   -2.137246   -2.210729
     94          1           0       -1.551072   -2.242857   -1.381272
     95          1           0        2.515323   -0.235180   -0.844846
     96          1           0       -1.911070    1.157381    0.290569
     97          1           0        0.423057    1.812720    0.369046
     98          1           0        0.189364   -0.933513   -0.565409
 ---------------------------------------------------------------------

 SCF Done:  E(RCAM-B3LYP) =  -1706.95774935     A.U. after   14 cycles

 Excitation energies and oscillator strengths:

 Excited State   1:      Singlet-A      2.8719 eV  431.72 nm  f=3.4278  <S**2>=0.000
     155 ->158        -0.14133
     156 ->157         0.68833
 This state for optimization and/or second-order correction.
 Total Energy, E(TD-HF/TD-DFT) =  -1706.85220975
 Copying the excited state density for this state as the 1-particle RhoCI density.

 The electronic state is 1-A.
 Alpha  occ. eigenvalues --  -19.20744 -19.20711 -10.30956 -10.29859 -10.29524
 Alpha  occ. eigenvalues --  -10.27902 -10.27686 -10.27338 -10.27074 -10.26917
 Alpha  occ. eigenvalues --  -10.26855 -10.26810 -10.26711 -10.26612 -10.26603
 Alpha  occ. eigenvalues --  -10.26540 -10.26519 -10.26422 -10.26345 -10.26302
 Alpha  occ. eigenvalues --  -10.26256 -10.26236 -10.26055 -10.25996 -10.25873
 Alpha  occ. eigenvalues --  -10.25679 -10.25657 -10.25653 -10.25625 -10.25355
 Alpha  occ. eigenvalues --  -10.25226 -10.25174 -10.25074 -10.24836 -10.24741
 Alpha  occ. eigenvalues --  -10.24687 -10.24437 -10.24362 -10.24118 -10.24015
 Alpha  occ. eigenvalues --  -10.22690 -10.22678  -1.13130  -1.08866  -0.93808
 Alpha  occ. eigenvalues --   -0.93160  -0.92425  -0.92031  -0.90684  -0.90280
 Alpha  occ. eigenvalues --   -0.87548  -0.86995  -0.86624  -0.85503  -0.84706
 Alpha  occ. eigenvalues --   -0.83170  -0.81894  -0.80612  -0.80127  -0.78365
 Alpha  occ. eigenvalues --   -0.77773  -0.77225  -0.76820  -0.75947  -0.75717
 Alpha  occ. eigenvalues --   -0.75080  -0.74624  -0.74408  -0.74066  -0.70430
 Alpha  occ. eigenvalues --   -0.68664  -0.67509  -0.65927  -0.64987  -0.64239
 Alpha  occ. eigenvalues --   -0.63713  -0.62376  -0.62104  -0.60646  -0.60069
 Alpha  occ. eigenvalues --   -0.59028  -0.58406  -0.57699  -0.56874  -0.56024
 Alpha  occ. eigenvalues --   -0.55890  -0.55381  -0.54655  -0.54376  -0.53734
 Alpha  occ. eigenvalues --   -0.53125  -0.52984  -0.52405  -0.51991  -0.51776
 Alpha  occ. eigenvalues --   -0.51119  -0.50899  -0.50117  -0.49746  -0.49376
 Alpha  occ. eigenvalues --   -0.49115  -0.48896  -0.48823  -0.48592  -0.48487
 Alpha  occ. eigenvalues --   -0.47650  -0.47418  -0.46965  -0.46631  -0.46136
 Alpha  occ. eigenvalues --   -0.45885  -0.45787  -0.45554  -0.45002  -0.44755
 Alpha  occ. eigenvalues --   -0.44444  -0.44148  -0.43969  -0.43716  -0.43069
 Alpha  occ. eigenvalues --   -0.42707  -0.42635  -0.42437  -0.42368  -0.41895
 Alpha  occ. eigenvalues --   -0.41619  -0.41561  -0.41116  -0.40878  -0.40255
 Alpha  occ. eigenvalues --   -0.40073  -0.39868  -0.39571  -0.39338  -0.38790
 Alpha  occ. eigenvalues --   -0.38485  -0.38337  -0.37993  -0.37721  -0.37685
 Alpha  occ. eigenvalues --   -0.37170  -0.37009  -0.36610  -0.36409  -0.35765
 Alpha  occ. eigenvalues --   -0.34816  -0.34500  -0.33748  -0.32481  -0.32221
 Alpha  occ. eigenvalues --   -0.31552  -0.29293  -0.28215  -0.26237  -0.24758
 Alpha  occ. eigenvalues --   -0.20930
 Alpha virt. eigenvalues --   -0.03935   0.00886   0.03272   0.06274   0.08213
 Alpha virt. eigenvalues --    0.09618   0.11454   0.11810   0.12040   0.12354
 Alpha virt. eigenvalues --    0.12419   0.12845   0.13318   0.13542   0.14028

 Mulliken charges:
               1
     1  O   -0.524661
     2  O   -0.569382
     3  C   -0.023161
     4  C   -0.006964
     5  C   -0.182131
     6  C   -0.200244
     7  C    0.163105
     8  C    0.184553
     9  C    0.037434
    10  C    0.102358
    11  C   -0.246690
    12  C   -0.204541
    13  C    0.091369
    14  C    0.029509
    15  C   -0.313261
    16  C   -0.303652
    17  C   -0.303862
    18  C   -0.306029
    19  C   -0.141633
    20  C   -0.161743
    21  C   -0.348084
    22  C   -0.365355
    23  C   -0.064618
    24  C   -0.073604
    25  C    0.058695
    26  C    0.153442
    27  C   -0.361494
    28  C   -0.389710
    29  C   -0.122777
    30  C   -0.144944
    31  C   -0.091831
    32  C   -0.079469
    33  C   -0.127226
    34  C   -0.097006
    35  C    0.170962
    36  C    0.100202
    37  C   -0.374152
    38  C   -0.360967
    39  C   -0.142617
    40  C   -0.130710
    41  C   -0.070502
    42  C   -0.095719
    43  H    0.098988
    44  H    0.054907
    45  H    0.071142
    46  H    0.090459
    47  H    0.087430
    48  H    0.058939
    49  H    0.138328
    50  H    0.084463
    51  H    0.126257
    52  H    0.110969
    53  H    0.103789
    54  H    0.108966
    55  H    0.111510
    56  H    0.115956
    57  H    0.093922
    58  H    0.099643
    59  H    0.093964
    60  H    0.110350
    61  H    0.089425
    62  H    0.109403
    63  H    0.100860
    64  H    0.091924
    65  H    0.079970
    66  H    0.073726
    67  H    0.128088
    68  H    0.109582
    69  H    0.057795
    70  H    0.095025
    71  H    0.116874
    72  H    0.124491
    73  H    0.291013
    74  H    0.304048
    75  H    0.076842
    76  H    0.071150
    77  H    0.129963
    78  H    0.101884
    79  H    0.130097
    80  H    0.136271
    81  H    0.109187
    82  H    0.108941
    83  H    0.102550
    84  H    0.064749
    85  H    0.091299
    86  H    0.077268
    87  H    0.077803
    88  H    0.064423
    89  H    0.103533
    90  H    0.098604
    91  H    0.114908
    92  H    0.139604
    93  H    0.072029
    94  H    0.119601
    95  H    0.087999
    96  H    0.077933
    97  H    0.075402
    98  H    0.072861
 Sum of Mulliken charges =  -0.00000

 Dipole moment (field-independent basis, Debye):
    X=              0.4825    Y=             -1.7087    Z=              1.6293  Tot=              2.4098
 Quadrupole moment (field-independent basis, Debye-Ang):
   XX=           -272.4086   YY=           -241.3520   ZZ=           -259.5270
   XY=              7.5518   XZ=              0.3595   YZ=              4.9556

 Normal termination of Gaussian 16 at Wed Jul 10 21:11:51 2019.
