 Gaussian 16, Revision A.03,
 Gaussian 16:  ES64L-G16RevA.03 25-Dec-2016

 -------------------------------------
 # td=(NStates=1) CAM-B3LYP/6-31G(d,p)
 -------------------------------------

 --
 TD
 --
 Symbolic Z-matrix:
 Charge =  0 Multiplicity = 1

                         Standard orientation:
 ---------------------------------------------------------------------
 Center     Atomic      Atomic             Coordinates (Angstroms)
 Number     Number       Type             X           Y           Z
 ---------------------------------------------------------------------
      1          8           0       14.698942   -2.358132   -0.658759
      2          8           0      -14.982119    1.919441    0.543621
      3          6           0       11.669734   -1.139279    1.127220
      4          6           0      -12.481963   -0.985023    0.784471
      5          6           0       13.082517   -1.551463    0.933827
      6          6           0      -13.803378   -0.221111    0.774733
      7          6           0       13.334871   -1.954701   -0.520232
      8          6           0      -13.669190    1.211246    0.578615
      9          6           0       11.212379   -0.213873   -0.026114
     10          6           0      -11.468645   -0.353748   -0.208850
     11          6           0       13.049972   -0.858707   -1.440107
     12          6           0      -12.972197    1.682861   -0.706647
     13          6           0       11.751386   -0.169375   -1.227244
     14          6           0      -11.825964    0.773035   -0.972520
     15          6           0       11.521429   -0.260028    2.390443
     16          6           0       10.778729   -2.359769    1.344620
     17          6           0      -11.897126   -1.008154    2.206658
     18          6           0      -12.645001   -2.466138    0.332950
     19          6           0        9.921272    0.328086    0.236658
     20          6           0      -10.192891   -1.027113   -0.340014
     21          6           0       11.215577    0.559982   -2.423683
     22          6           0      -10.941536    1.418332   -2.040771
     23          6           0        9.495091    1.575404    0.122610
     24          6           0       -8.972899   -0.447324   -0.308726
     25          6           0        8.136303    2.224134    0.269549
     26          6           0       -7.627653   -1.098415   -0.384406
     27          6           0        8.163367    3.613915    0.846614
     28          6           0       -7.691534   -2.683289   -0.531719
     29          6           0        6.997177    1.455529    0.009512
     30          6           0       -6.502909   -0.419131   -0.330506
     31          6           0        5.650078    2.002017    0.104607
     32          6           0       -5.068863   -0.956467   -0.349953
     33          6           0        4.549457    1.211665   -0.107573
     34          6           0       -4.024370   -0.240166   -0.243978
     35          6           0        3.105725    1.671045    0.073793
     36          6           0       -2.604335   -0.748538   -0.273214
     37          6           0        2.925670    3.067607    0.694133
     38          6           0       -2.345607   -2.147284   -0.717072
     39          6           0        2.145286    0.838041   -0.116132
     40          6           0       -1.681946    0.147098   -0.065926
     41          6           0        0.683373    1.016234   -0.102495
     42          6           0       -0.273817   -0.065081   -0.139953
     43          1           0       13.919795   -0.743872    0.964550
     44          1           0       13.167463   -2.358009    1.668207
     45          1           0      -14.321526   -0.560215    1.584577
     46          1           0      -14.124283   -0.601639   -0.155865
     47          1           0       12.553053   -2.873090   -0.666830
     48          1           0      -13.072667    1.619229    1.683988
     49          1           0       13.805947   -0.141615   -1.338285
     50          1           0       13.182551   -1.199947   -2.578769
     51          1           0      -13.431342    1.461521   -1.584286
     52          1           0      -12.687951    2.662486   -0.621375
     53          1           0       11.753317   -0.773323    3.256580
     54          1           0       10.529952   -0.020270    2.666223
     55          1           0       12.206001    0.788966    2.330823
     56          1           0       10.638859   -3.040319    0.293620
     57          1           0       11.243634   -2.958569    2.085548
     58          1           0        9.910205   -1.978912    1.704700
     59          1           0      -11.936178   -0.133019    2.778224
     60          1           0      -10.987064   -1.588281    2.255315
     61          1           0      -12.622699   -1.496568    2.744941
     62          1           0      -13.320904   -3.043549    1.082682
     63          1           0      -11.712471   -2.896229    0.553921
     64          1           0      -12.862826   -2.641255   -0.731004
     65          1           0        9.059023   -0.273707    0.583748
     66          1           0      -10.214034   -2.061161   -0.453595
     67          1           0       10.252464    0.925829   -2.240495
     68          1           0       11.735135    1.482165   -2.784030
     69          1           0       11.490255   -0.215320   -3.182436
     70          1           0      -11.455373    1.968513   -2.790920
     71          1           0      -10.127678    0.778698   -2.410787
     72          1           0      -10.350369    2.280036   -1.488211
     73          1           0       14.861840   -3.055623   -0.175296
     74          1           0      -15.280436    1.619557    1.423172
     75          1           0       10.299779    2.337715   -0.114762
     76          1           0       -8.760558    0.657963   -0.431987
     77          1           0        8.843802    4.078801    0.146400
     78          1           0        7.168123    4.114290    0.886481
     79          1           0        8.631106    3.764325    1.927450
     80          1           0       -8.354095   -2.885252    0.283722
     81          1           0       -8.066272   -3.179965   -1.485188
     82          1           0       -6.634513   -3.136618   -0.569172
     83          1           0        7.038002    0.577796   -0.457031
     84          1           0       -6.676686    0.573050   -0.238715
     85          1           0        5.386566    3.109008    0.607009
     86          1           0       -5.105260   -2.210217   -0.421246
     87          1           0        4.477869    0.382687   -0.774432
     88          1           0       -4.085354    0.860789   -0.051374
     89          1           0        3.004843    2.934472    1.780862
     90          1           0        1.788535    3.618507    0.642659
     91          1           0        3.590191    3.898869    0.306468
     92          1           0       -2.807946   -2.787984    0.277891
     93          1           0       -2.906677   -2.560658   -1.479712
     94          1           0       -1.333169   -2.261265   -0.842589
     95          1           0        2.429824   -0.161033   -0.680131
     96          1           0       -2.182101    1.297794   -0.134431
     97          1           0        0.246555    2.104340   -0.093509
     98          1           0        0.285755   -1.082727   -0.141262
 ---------------------------------------------------------------------

 SCF Done:  E(RCAM-B3LYP) =  -1706.93777566     A.U. after   14 cycles

 Excitation energies and oscillator strengths:

 Excited State   1:      Singlet-A      3.2266 eV  384.25 nm  f=3.3868  <S**2>=0.000
     155 ->158        -0.17959
     156 ->157         0.67038
 This state for optimization and/or second-order correction.
 Total Energy, E(TD-HF/TD-DFT) =  -1706.81919940
 Copying the excited state density for this state as the 1-particle RhoCI density.

 The electronic state is 1-A.
 Alpha  occ. eigenvalues --  -19.20901 -19.20414 -10.32308 -10.31195 -10.28366
 Alpha  occ. eigenvalues --  -10.28078 -10.27984 -10.27949 -10.27637 -10.27511
 Alpha  occ. eigenvalues --  -10.27454 -10.27237 -10.27187 -10.27042 -10.26897
 Alpha  occ. eigenvalues --  -10.26860 -10.26855 -10.26779 -10.26746 -10.26406
 Alpha  occ. eigenvalues --  -10.26309 -10.26279 -10.26257 -10.26005 -10.25988
 Alpha  occ. eigenvalues --  -10.25952 -10.25824 -10.25803 -10.25682 -10.25548
 Alpha  occ. eigenvalues --  -10.25408 -10.25399 -10.25312 -10.25293 -10.25276
 Alpha  occ. eigenvalues --  -10.25004 -10.24989 -10.24853 -10.24690 -10.24201
 Alpha  occ. eigenvalues --  -10.23888 -10.23112  -1.11459  -1.07641  -0.95052
 Alpha  occ. eigenvalues --   -0.94024  -0.92162  -0.91084  -0.90218  -0.89723
 Alpha  occ. eigenvalues --   -0.88435  -0.88096  -0.86717  -0.86286  -0.84723
 Alpha  occ. eigenvalues --   -0.83469  -0.81787  -0.80845  -0.80434  -0.77762
 Alpha  occ. eigenvalues --   -0.77195  -0.76964  -0.76767  -0.76490  -0.76400
 Alpha  occ. eigenvalues --   -0.75967  -0.75578  -0.75260  -0.74505  -0.69963
 Alpha  occ. eigenvalues --   -0.68843  -0.67459  -0.65768  -0.65186  -0.64429
 Alpha  occ. eigenvalues --   -0.63839  -0.62155  -0.60152  -0.59634  -0.59414
 Alpha  occ. eigenvalues --   -0.59358  -0.58805  -0.57515  -0.57038  -0.56799
 Alpha  occ. eigenvalues --   -0.56367  -0.55562  -0.55243  -0.55078  -0.54574
 Alpha  occ. eigenvalues --   -0.54033  -0.53257  -0.52991  -0.52118  -0.50936
 Alpha  occ. eigenvalues --   -0.50536  -0.50211  -0.49900  -0.49554  -0.49517
 Alpha  occ. eigenvalues --   -0.49205  -0.48343  -0.48210  -0.48121  -0.47955
 Alpha  occ. eigenvalues --   -0.47478  -0.47231  -0.47102  -0.46985  -0.46756
 Alpha  occ. eigenvalues --   -0.46588  -0.46266  -0.45639  -0.45079  -0.44962
 Alpha  occ. eigenvalues --   -0.44384  -0.44323  -0.44292  -0.44140  -0.43604
 Alpha  occ. eigenvalues --   -0.43489  -0.43188  -0.42970  -0.42890  -0.42426
 Alpha  occ. eigenvalues --   -0.41740  -0.41631  -0.41572  -0.41420  -0.40699
 Alpha  occ. eigenvalues --   -0.40225  -0.40195  -0.40105  -0.39819  -0.39381
 Alpha  occ. eigenvalues --   -0.39172  -0.39042  -0.38668  -0.37880  -0.37590
 Alpha  occ. eigenvalues --   -0.37127  -0.36849  -0.36812  -0.36392  -0.36272
 Alpha  occ. eigenvalues --   -0.35327  -0.34579  -0.33693  -0.32514  -0.31783
 Alpha  occ. eigenvalues --   -0.31528  -0.29558  -0.28574  -0.26235  -0.24651
 Alpha  occ. eigenvalues --   -0.22040
 Alpha virt. eigenvalues --   -0.02975   0.00158   0.02574   0.06167   0.07787
 Alpha virt. eigenvalues --    0.09542   0.10178   0.11072   0.11134   0.11495
 Alpha virt. eigenvalues --    0.11552   0.12268   0.12573   0.12897   0.13407

 Mulliken charges:
               1
     1  O   -0.536028
     2  O   -0.552241
     3  C   -0.028918
     4  C   -0.051432
     5  C   -0.175265
     6  C   -0.163619
     7  C    0.157402
     8  C    0.149090
     9  C    0.071663
    10  C    0.074368
    11  C   -0.212020
    12  C   -0.181361
    13  C    0.067703
    14  C    0.002935
    15  C   -0.295370
    16  C   -0.285943
    17  C   -0.301466
    18  C   -0.308946
    19  C   -0.127508
    20  C   -0.154750
    21  C   -0.346290
    22  C   -0.361744
    23  C   -0.117416
    24  C   -0.088269
    25  C    0.072630
    26  C    0.102394
    27  C   -0.351395
    28  C   -0.359713
    29  C   -0.102216
    30  C   -0.128144
    31  C   -0.091617
    32  C   -0.089879
    33  C   -0.116401
    34  C   -0.092112
    35  C    0.129424
    36  C    0.136261
    37  C   -0.373708
    38  C   -0.338858
    39  C   -0.146533
    40  C   -0.132240
    41  C   -0.096255
    42  C   -0.118473
    43  H    0.093934
    44  H    0.075910
    45  H    0.090590
    46  H    0.110948
    47  H    0.047443
    48  H    0.020746
    49  H    0.132461
    50  H    0.089415
    51  H    0.136021
    52  H    0.131901
    53  H    0.095113
    54  H    0.112794
    55  H    0.080962
    56  H    0.081920
    57  H    0.107982
    58  H    0.117007
    59  H    0.107771
    60  H    0.107987
    61  H    0.096943
    62  H    0.086775
    63  H    0.111655
    64  H    0.112421
    65  H    0.083734
    66  H    0.093263
    67  H    0.125142
    68  H    0.111479
    69  H    0.105311
    70  H    0.111374
    71  H    0.120491
    72  H    0.097365
    73  H    0.288327
    74  H    0.299737
    75  H    0.063043
    76  H    0.079397
    77  H    0.125718
    78  H    0.111129
    79  H    0.113819
    80  H    0.123788
    81  H    0.112448
    82  H    0.090608
    83  H    0.086451
    84  H    0.065692
    85  H    0.075626
    86  H    0.066847
    87  H    0.087544
    88  H    0.084761
    89  H    0.139651
    90  H    0.078445
    91  H    0.116748
    92  H    0.080729
    93  H    0.137123
    94  H    0.115214
    95  H    0.070247
    96  H    0.074091
    97  H    0.082486
    98  H    0.095737
 Sum of Mulliken charges =  -0.00000

 Dipole moment (field-independent basis, Debye):
    X=              0.7057    Y=             -1.6098    Z=              1.4229  Tot=              2.2615
 Quadrupole moment (field-independent basis, Debye-Ang):
   XX=           -287.8038   YY=           -244.9959   ZZ=           -258.9973
   XY=             15.1949   XZ=             -0.2668   YZ=             -0.2888

 Normal termination of Gaussian 16 at Sun Jul  7 13:04:06 2019.
