 Gaussian 16, Revision A.03,
 Gaussian 16:  ES64L-G16RevA.03 25-Dec-2016

 -------------------------------------
 # td=(NStates=1) CAM-B3LYP/6-31G(d,p)
 -------------------------------------

 --
 TD
 --
 Symbolic Z-matrix:
 Charge =  0 Multiplicity = 1

                         Standard orientation:
 ---------------------------------------------------------------------
 Center     Atomic      Atomic             Coordinates (Angstroms)
 Number     Number       Type             X           Y           Z
 ---------------------------------------------------------------------
      1          8           0       14.564066   -2.470679   -0.414727
      2          8           0      -14.697216    2.018744    0.562336
      3          6           0       11.408074   -1.069363    1.151848
      4          6           0      -12.242830   -0.890284    0.796309
      5          6           0       12.858707   -1.405867    0.987617
      6          6           0      -13.623351   -0.166869    0.770113
      7          6           0       13.227158   -2.106949   -0.199386
      8          6           0      -13.497883    1.278005    0.535203
      9          6           0       10.835246   -0.408774   -0.161931
     10          6           0      -11.300214   -0.399845   -0.242907
     11          6           0       12.898524   -1.180585   -1.417053
     12          6           0      -12.787622    1.608870   -0.748858
     13          6           0       11.571507   -0.313282   -1.237334
     14          6           0      -11.571360    0.799440   -0.929352
     15          6           0       11.294112   -0.137207    2.372759
     16          6           0       10.620166   -2.438298    1.426299
     17          6           0      -11.559055   -0.749133    2.125276
     18          6           0      -12.533179   -2.391397    0.443355
     19          6           0        9.499012    0.315117    0.154770
     20          6           0      -10.089042   -1.200132   -0.414935
     21          6           0       11.182596    0.247275   -2.503042
     22          6           0      -10.592375    1.319146   -1.989626
     23          6           0        9.297268    1.596060   -0.236871
     24          6           0       -8.861761   -0.600148   -0.356551
     25          6           0        8.042484    2.328220   -0.010373
     26          6           0       -7.544739   -1.381744   -0.433594
     27          6           0        8.252943    3.853287    0.270696
     28          6           0       -7.656104   -2.806514   -0.805696
     29          6           0        6.874141    1.739918   -0.207188
     30          6           0       -6.415718   -0.696830   -0.191692
     31          6           0        5.555655    2.230042    0.181424
     32          6           0       -5.069485   -1.150780   -0.118818
     33          6           0        4.475483    1.475258    0.103548
     34          6           0       -3.957865   -0.336942   -0.020042
     35          6           0        3.078836    1.834711    0.282342
     36          6           0       -2.603081   -0.825813   -0.255812
     37          6           0        2.745072    3.316409    0.690538
     38          6           0       -2.216877   -2.145016   -0.682042
     39          6           0        2.047062    0.974029    0.080763
     40          6           0       -1.617866    0.136782   -0.017538
     41          6           0        0.680222    1.054735    0.087108
     42          6           0       -0.152308    0.033733   -0.146615
     43          1           0       13.543548   -0.413832    1.009866
     44          1           0       13.168925   -1.967085    1.898136
     45          1           0      -14.171700   -0.491687    1.711419
     46          1           0      -14.425874   -0.666372   -0.052439
     47          1           0       12.595671   -3.088553   -0.379977
     48          1           0      -12.838816    1.863355    1.187955
     49          1           0       13.699981   -0.398492   -1.632198
     50          1           0       12.823724   -1.864119   -2.294490
     51          1           0      -13.410080    1.680930   -1.575779
     52          1           0      -12.711968    2.600687   -0.652259
     53          1           0       11.960542   -0.417090    3.339001
     54          1           0       10.232671    0.071942    2.850648
     55          1           0       11.705514    1.017723    2.191248
     56          1           0       10.505729   -3.025977    0.360657
     57          1           0       11.005161   -2.947729    2.563465
     58          1           0        9.642716   -2.293054    1.671023
     59          1           0      -11.187201    0.334926    2.268329
     60          1           0      -10.544705   -1.374012    1.985982
     61          1           0      -11.906590   -1.310204    3.074483
     62          1           0      -13.211367   -2.887704    1.202641
     63          1           0      -11.778791   -3.154777    0.376793
     64          1           0      -13.322725   -2.265157   -0.503648
     65          1           0        8.740490   -0.084865    0.717131
     66          1           0      -10.113423   -2.276150   -0.592914
     67          1           0       10.148022    0.692228   -2.527668
     68          1           0       11.893756    1.153684   -2.837352
     69          1           0       11.173904   -0.516538   -3.263473
     70          1           0      -11.292341    1.659089   -2.761383
     71          1           0       -9.972489    0.591646   -2.473674
     72          1           0       -9.954683    2.181699   -1.662050
     73          1           0       14.884062   -3.104018    0.261513
     74          1           0      -15.167778    1.684944    1.386346
     75          1           0       10.190606    2.090257   -0.421350
     76          1           0       -8.962144    0.306478   -0.077381
     77          1           0        9.024034    4.304254   -0.471145
     78          1           0        7.292529    4.537400    0.036629
     79          1           0        8.493162    4.113929    1.467544
     80          1           0       -8.340842   -3.192220    0.010358
     81          1           0       -8.179076   -2.983862   -1.934927
     82          1           0       -6.777516   -3.445977   -0.634662
     83          1           0        6.818035    0.662775   -0.678748
     84          1           0       -6.478138    0.282624    0.074491
     85          1           0        5.385118    3.252169    0.457335
     86          1           0       -5.002820   -2.089359   -0.687590
     87          1           0        4.570992    0.342811   -0.061261
     88          1           0       -4.160476    0.836097    0.118343
     89          1           0        3.175421    3.668309    1.764886
     90          1           0        1.612609    3.503045    0.697454
     91          1           0        2.997097    4.049456   -0.094985
     92          1           0       -2.806712   -2.938888    0.001364
     93          1           0       -2.730667   -2.455992   -1.621718
     94          1           0       -1.282683   -2.554976   -0.547405
     95          1           0        2.383629   -0.070319   -0.447387
     96          1           0       -2.047690    1.184544    0.142050
     97          1           0        0.409723    2.026093    0.496326
     98          1           0        0.457807   -0.834194   -0.412680
 ---------------------------------------------------------------------

 SCF Done:  E(RCAM-B3LYP) =  -1706.96969338     A.U. after   14 cycles

 Excitation energies and oscillator strengths:

 Excited State   1:      Singlet-A      2.7670 eV  448.08 nm  f=3.6406  <S**2>=0.000
     155 ->158         0.16440
     156 ->157         0.68261
 This state for optimization and/or second-order correction.
 Total Energy, E(TD-HF/TD-DFT) =  -1706.86800746
 Copying the excited state density for this state as the 1-particle RhoCI density.

 The electronic state is 1-A.
 Alpha  occ. eigenvalues --  -19.21200 -19.21136 -10.30395 -10.29539 -10.28950
 Alpha  occ. eigenvalues --  -10.28432 -10.28221 -10.28089 -10.28048 -10.27760
 Alpha  occ. eigenvalues --  -10.27620 -10.27584 -10.27511 -10.27464 -10.27437
 Alpha  occ. eigenvalues --  -10.27347 -10.27323 -10.27052 -10.27035 -10.26857
 Alpha  occ. eigenvalues --  -10.26650 -10.26554 -10.26422 -10.26323 -10.26266
 Alpha  occ. eigenvalues --  -10.26228 -10.26226 -10.26007 -10.25994 -10.25947
 Alpha  occ. eigenvalues --  -10.25922 -10.25884 -10.25836 -10.25689 -10.25563
 Alpha  occ. eigenvalues --  -10.25286 -10.25199 -10.25058 -10.24860 -10.24711
 Alpha  occ. eigenvalues --  -10.24495 -10.23181  -1.09499  -1.09334  -0.93991
 Alpha  occ. eigenvalues --   -0.93374  -0.92221  -0.91527  -0.90622  -0.89878
 Alpha  occ. eigenvalues --   -0.87728  -0.87262  -0.86789  -0.85970  -0.84428
 Alpha  occ. eigenvalues --   -0.83078  -0.82233  -0.79969  -0.79784  -0.77881
 Alpha  occ. eigenvalues --   -0.76721  -0.76414  -0.75388  -0.75263  -0.75042
 Alpha  occ. eigenvalues --   -0.74914  -0.74777  -0.73958  -0.73788  -0.70595
 Alpha  occ. eigenvalues --   -0.68369  -0.67333  -0.65796  -0.65034  -0.64317
 Alpha  occ. eigenvalues --   -0.63202  -0.62771  -0.61870  -0.60849  -0.60415
 Alpha  occ. eigenvalues --   -0.59618  -0.58740  -0.57861  -0.57480  -0.56141
 Alpha  occ. eigenvalues --   -0.55999  -0.55712  -0.55171  -0.54000  -0.53710
 Alpha  occ. eigenvalues --   -0.52804  -0.52511  -0.52073  -0.51461  -0.50790
 Alpha  occ. eigenvalues --   -0.50078  -0.49768  -0.49458  -0.49173  -0.48853
 Alpha  occ. eigenvalues --   -0.48546  -0.48263  -0.48112  -0.47983  -0.47839
 Alpha  occ. eigenvalues --   -0.47562  -0.47305  -0.47046  -0.46530  -0.45883
 Alpha  occ. eigenvalues --   -0.45707  -0.45472  -0.45173  -0.44592  -0.44440
 Alpha  occ. eigenvalues --   -0.44014  -0.43855  -0.43341  -0.43292  -0.43113
 Alpha  occ. eigenvalues --   -0.42235  -0.42215  -0.41898  -0.41715  -0.41629
 Alpha  occ. eigenvalues --   -0.41374  -0.41260  -0.40875  -0.40555  -0.40522
 Alpha  occ. eigenvalues --   -0.40171  -0.40044  -0.39911  -0.39744  -0.39436
 Alpha  occ. eigenvalues --   -0.39314  -0.38730  -0.38091  -0.37949  -0.37656
 Alpha  occ. eigenvalues --   -0.37424  -0.37254  -0.36536  -0.36289  -0.35840
 Alpha  occ. eigenvalues --   -0.35414  -0.34210  -0.33156  -0.32299  -0.31846
 Alpha  occ. eigenvalues --   -0.31824  -0.30238  -0.28500  -0.26736  -0.24468
 Alpha  occ. eigenvalues --   -0.21109
 Alpha virt. eigenvalues --   -0.04526  -0.00158   0.02782   0.05634   0.07716
 Alpha virt. eigenvalues --    0.09265   0.10463   0.11226   0.11960   0.12064
 Alpha virt. eigenvalues --    0.12338   0.12620   0.12688   0.12998   0.13374

 Mulliken charges:
               1
     1  O   -0.560441
     2  O   -0.574172
     3  C    0.016321
     4  C   -0.005212
     5  C   -0.164562
     6  C   -0.192688
     7  C    0.187541
     8  C    0.175527
     9  C    0.047637
    10  C    0.057927
    11  C   -0.216112
    12  C   -0.221721
    13  C    0.050474
    14  C    0.044383
    15  C   -0.298303
    16  C   -0.293814
    17  C   -0.297111
    18  C   -0.308969
    19  C   -0.105156
    20  C   -0.143300
    21  C   -0.365005
    22  C   -0.362556
    23  C   -0.099782
    24  C   -0.049576
    25  C    0.087315
    26  C    0.103298
    27  C   -0.355498
    28  C   -0.373665
    29  C   -0.127885
    30  C   -0.109575
    31  C   -0.076059
    32  C   -0.109230
    33  C   -0.100227
    34  C   -0.114532
    35  C    0.110194
    36  C    0.155308
    37  C   -0.378872
    38  C   -0.389324
    39  C   -0.140378
    40  C   -0.146878
    41  C   -0.028753
    42  C   -0.098474
    43  H    0.081669
    44  H    0.075249
    45  H    0.081709
    46  H    0.074483
    47  H    0.058243
    48  H    0.082963
    49  H    0.110962
    50  H    0.109240
    51  H    0.119257
    52  H    0.121129
    53  H    0.085566
    54  H    0.094337
    55  H    0.084975
    56  H    0.097622
    57  H    0.067161
    58  H    0.119995
    59  H    0.102434
    60  H    0.089384
    61  H    0.097794
    62  H    0.086425
    63  H    0.109434
    64  H    0.085092
    65  H    0.093102
    66  H    0.093230
    67  H    0.115016
    68  H    0.093334
    69  H    0.118597
    70  H    0.099134
    71  H    0.125700
    72  H    0.110318
    73  H    0.302893
    74  H    0.305829
    75  H    0.089948
    76  H    0.068280
    77  H    0.117544
    78  H    0.096982
    79  H    0.100008
    80  H    0.118687
    81  H    0.105124
    82  H    0.114980
    83  H    0.086762
    84  H    0.068004
    85  H    0.087980
    86  H    0.078583
    87  H    0.073816
    88  H    0.091993
    89  H    0.105127
    90  H    0.100357
    91  H    0.126289
    92  H    0.093632
    93  H    0.128765
    94  H    0.133699
    95  H    0.048113
    96  H    0.083201
    97  H    0.074419
    98  H    0.087340
 Sum of Mulliken charges =  -0.00000

 Dipole moment (field-independent basis, Debye):
    X=             -0.0089    Y=             -1.2902    Z=              1.6564  Tot=              2.0996
 Quadrupole moment (field-independent basis, Debye-Ang):
   XX=           -282.1010   YY=           -245.1894   ZZ=           -261.1248
   XY=             13.2041   XZ=              0.4559   YZ=              0.1548

 Normal termination of Gaussian 16 at Fri Jul  5 10:07:02 2019.
