 Gaussian 16, Revision A.03,
 Gaussian 16:  ES64L-G16RevA.03 25-Dec-2016

 -------------------------------------
 # td=(NStates=1) CAM-B3LYP/6-31G(d,p)
 -------------------------------------

 --
 TD
 --
 Symbolic Z-matrix:
 Charge =  0 Multiplicity = 1

                         Standard orientation:
 ---------------------------------------------------------------------
 Center     Atomic      Atomic             Coordinates (Angstroms)
 Number     Number       Type             X           Y           Z
 ---------------------------------------------------------------------
      1          8           0       14.648398   -2.208305   -0.552737
      2          8           0      -14.682034    2.028648    0.700139
      3          6           0       11.524617   -1.115896    1.298306
      4          6           0      -12.306075   -0.838986    0.951974
      5          6           0       12.932472   -1.420750    1.049133
      6          6           0      -13.622181   -0.160749    0.767283
      7          6           0       13.187394   -1.897799   -0.408435
      8          6           0      -13.426194    1.258964    0.656586
      9          6           0       10.958047   -0.320240    0.040381
     10          6           0      -11.328605   -0.355991   -0.119152
     11          6           0       12.867025   -0.796124   -1.376589
     12          6           0      -12.755431    1.620179   -0.576741
     13          6           0       11.645392   -0.278744   -1.143900
     14          6           0      -11.519151    0.847399   -0.826974
     15          6           0       11.377954   -0.320763    2.492744
     16          6           0       10.656216   -2.371571    1.436593
     17          6           0      -11.737168   -0.733081    2.286276
     18          6           0      -12.460182   -2.406361    0.624844
     19          6           0        9.606893    0.271830    0.245264
     20          6           0      -10.037719   -1.100997   -0.270992
     21          6           0       11.052022    0.352649   -2.478123
     22          6           0      -10.778446    1.315049   -2.093543
     23          6           0        9.365237    1.573259    0.007757
     24          6           0       -8.811931   -0.625498   -0.333342
     25          6           0        8.021907    2.203244    0.098044
     26          6           0       -7.515791   -1.281003   -0.499389
     27          6           0        8.088769    3.761367    0.454631
     28          6           0       -7.646852   -2.724644   -0.809646
     29          6           0        6.833570    1.698310    0.000874
     30          6           0       -6.351804   -0.596146   -0.454426
     31          6           0        5.543857    2.181607    0.199042
     32          6           0       -5.104395   -1.032365   -0.587489
     33          6           0        4.520220    1.337506    0.048972
     34          6           0       -3.931836   -0.342242   -0.484781
     35          6           0        3.066416    1.707216    0.159632
     36          6           0       -2.604692   -0.824489   -0.536488
     37          6           0        2.657808    3.023639    0.556412
     38          6           0       -2.386552   -2.296058   -0.678461
     39          6           0        2.124811    0.746013   -0.038159
     40          6           0       -1.665450    0.153676   -0.366577
     41          6           0        0.689423    0.899304    0.061740
     42          6           0       -0.221090   -0.053596   -0.320236
     43          1           0       13.675978   -0.599738    1.328199
     44          1           0       13.225979   -2.276119    1.653689
     45          1           0      -14.126638   -0.410278    1.648747
     46          1           0      -14.272949   -0.752065   -0.004207
     47          1           0       12.636628   -2.751850   -0.554882
     48          1           0      -12.872436    1.692011    1.589941
     49          1           0       13.514177   -0.213077   -1.400290
     50          1           0       12.992682   -1.433872   -2.364104
     51          1           0      -13.664438    1.527115   -1.288985
     52          1           0      -12.508555    2.742366   -0.360759
     53          1           0       11.532919   -0.852840    3.422374
     54          1           0       10.284004    0.144688    2.734192
     55          1           0       11.834957    0.628865    2.527544
     56          1           0       10.838851   -2.989808    0.557053
     57          1           0       10.931515   -3.028064    2.314440
     58          1           0        9.425926   -2.204612    1.261103
     59          1           0      -11.491907    0.371224    2.514750
     60          1           0      -10.642052   -1.212905    2.263692
     61          1           0      -12.270980   -1.255078    3.100447
     62          1           0      -13.239364   -2.845479    1.149315
     63          1           0      -11.408625   -3.032576    1.006727
     64          1           0      -12.794586   -2.416437   -0.545708
     65          1           0        8.859288   -0.235338    0.762017
     66          1           0      -10.045743   -2.178857   -0.483165
     67          1           0        9.949678    0.842105   -2.299074
     68          1           0       11.791570    1.225362   -2.639968
     69          1           0       10.968450   -0.107761   -3.359420
     70          1           0      -11.616322    1.419488   -2.754068
     71          1           0      -10.103886    0.792004   -2.642458
     72          1           0      -10.212355    2.205362   -1.892916
     73          1           0       15.028401   -2.896226   -0.025038
     74          1           0      -15.267699    1.746708    1.402904
     75          1           0       10.191907    2.182752   -0.443403
     76          1           0       -8.844877    0.538395   -0.113628
     77          1           0        8.790273    4.408443   -0.146811
     78          1           0        7.119948    4.326550    0.576162
     79          1           0        8.581639    3.674289    1.372329
     80          1           0       -8.067213   -3.420743   -0.064072
     81          1           0       -8.266066   -3.034350   -1.666449
     82          1           0       -6.606375   -3.418807   -1.035781
     83          1           0        6.670194    0.576161    0.008599
     84          1           0       -6.345578    0.580657   -0.464047
     85          1           0        5.425607    3.340846    0.153446
     86          1           0       -4.682473   -2.134876   -0.621686
     87          1           0        4.751167    0.293216   -0.080562
     88          1           0       -3.750349    0.792515   -0.295238
     89          1           0        2.945212    3.334975    1.618426
     90          1           0        1.622989    3.261543    0.621429
     91          1           0        3.209812    3.763027   -0.087138
     92          1           0       -2.986510   -2.779801    0.056930
     93          1           0       -2.860041   -2.233765   -1.807515
     94          1           0       -1.283327   -2.479261   -0.735847
     95          1           0        2.507771   -0.146061   -0.329232
     96          1           0       -2.026303    1.280762   -0.145852
     97          1           0        0.134368    1.805802    0.177520
     98          1           0        0.033818   -1.062036   -0.547157
 ---------------------------------------------------------------------

 SCF Done:  E(RCAM-B3LYP) =  -1706.91192947     A.U. after   14 cycles

 Excitation energies and oscillator strengths:

 Excited State   1:      Singlet-A      2.7491 eV  451.00 nm  f=3.7037  <S**2>=0.000
     155 ->158         0.16400
     156 ->157         0.68338
 This state for optimization and/or second-order correction.
 Total Energy, E(TD-HF/TD-DFT) =  -1706.81090310
 Copying the excited state density for this state as the 1-particle RhoCI density.

 The electronic state is 1-A.
 Alpha  occ. eigenvalues --  -19.19943 -19.19919 -10.30168 -10.30041 -10.27710
 Alpha  occ. eigenvalues --  -10.27550 -10.27370 -10.27343 -10.27132 -10.27131
 Alpha  occ. eigenvalues --  -10.27106 -10.27102 -10.27077 -10.27066 -10.26853
 Alpha  occ. eigenvalues --  -10.26796 -10.26646 -10.26626 -10.26582 -10.26482
 Alpha  occ. eigenvalues --  -10.26471 -10.26445 -10.26386 -10.26326 -10.26278
 Alpha  occ. eigenvalues --  -10.26277 -10.26025 -10.25843 -10.25772 -10.25588
 Alpha  occ. eigenvalues --  -10.25544 -10.25451 -10.25370 -10.25367 -10.25191
 Alpha  occ. eigenvalues --  -10.25121 -10.24956 -10.24717 -10.24673 -10.24116
 Alpha  occ. eigenvalues --  -10.23727 -10.23004  -1.07528  -1.06652  -0.95162
 Alpha  occ. eigenvalues --   -0.94573  -0.93066  -0.92278  -0.90991  -0.90288
 Alpha  occ. eigenvalues --   -0.89612  -0.87587  -0.87367  -0.86580  -0.85350
 Alpha  occ. eigenvalues --   -0.83513  -0.82818  -0.80258  -0.80077  -0.78595
 Alpha  occ. eigenvalues --   -0.77045  -0.76804  -0.76766  -0.76001  -0.75851
 Alpha  occ. eigenvalues --   -0.75445  -0.75374  -0.74604  -0.74315  -0.70940
 Alpha  occ. eigenvalues --   -0.69708  -0.67992  -0.66833  -0.65481  -0.64096
 Alpha  occ. eigenvalues --   -0.63378  -0.63087  -0.61352  -0.60857  -0.60124
 Alpha  occ. eigenvalues --   -0.59830  -0.58678  -0.57907  -0.57453  -0.56537
 Alpha  occ. eigenvalues --   -0.56195  -0.55767  -0.55242  -0.54518  -0.54179
 Alpha  occ. eigenvalues --   -0.53419  -0.53125  -0.52442  -0.52369  -0.51694
 Alpha  occ. eigenvalues --   -0.51408  -0.50910  -0.50651  -0.50275  -0.49463
 Alpha  occ. eigenvalues --   -0.49156  -0.48986  -0.48824  -0.48596  -0.48015
 Alpha  occ. eigenvalues --   -0.47790  -0.47364  -0.47250  -0.46730  -0.46494
 Alpha  occ. eigenvalues --   -0.46437  -0.45179  -0.44764  -0.44612  -0.44395
 Alpha  occ. eigenvalues --   -0.44274  -0.43911  -0.43666  -0.43433  -0.43212
 Alpha  occ. eigenvalues --   -0.42986  -0.42209  -0.42059  -0.41778  -0.41429
 Alpha  occ. eigenvalues --   -0.41231  -0.41142  -0.40821  -0.40343  -0.40318
 Alpha  occ. eigenvalues --   -0.40114  -0.39885  -0.39811  -0.39751  -0.39384
 Alpha  occ. eigenvalues --   -0.39228  -0.39007  -0.38572  -0.37704  -0.37462
 Alpha  occ. eigenvalues --   -0.37347  -0.37150  -0.36431  -0.36406  -0.35750
 Alpha  occ. eigenvalues --   -0.35291  -0.34587  -0.33403  -0.32587  -0.31887
 Alpha  occ. eigenvalues --   -0.31701  -0.29796  -0.28253  -0.26817  -0.24289
 Alpha  occ. eigenvalues --   -0.20827
 Alpha virt. eigenvalues --   -0.04385  -0.00216   0.03151   0.05655   0.07467
 Alpha virt. eigenvalues --    0.09591   0.11176   0.11572   0.11965   0.12199
 Alpha virt. eigenvalues --    0.12573   0.12876   0.13547   0.13636   0.13854

 Mulliken charges:
               1
     1  O   -0.600834
     2  O   -0.593580
     3  C    0.032362
     4  C   -0.001177
     5  C   -0.201041
     6  C   -0.179248
     7  C    0.147390
     8  C    0.162258
     9  C    0.015294
    10  C    0.043193
    11  C   -0.154880
    12  C   -0.203650
    13  C    0.046621
    14  C    0.028864
    15  C   -0.302403
    16  C   -0.303675
    17  C   -0.293534
    18  C   -0.293795
    19  C   -0.088991
    20  C   -0.124557
    21  C   -0.349527
    22  C   -0.341419
    23  C   -0.111867
    24  C   -0.097838
    25  C    0.057631
    26  C    0.144820
    27  C   -0.373913
    28  C   -0.399521
    29  C   -0.103657
    30  C   -0.132196
    31  C   -0.055061
    32  C   -0.090389
    33  C   -0.125790
    34  C   -0.081434
    35  C    0.133761
    36  C    0.107127
    37  C   -0.384290
    38  C   -0.351428
    39  C   -0.121203
    40  C   -0.161200
    41  C   -0.091238
    42  C   -0.077852
    43  H    0.103820
    44  H    0.076921
    45  H    0.086927
    46  H    0.091854
    47  H    0.099586
    48  H    0.081665
    49  H    0.118485
    50  H    0.100501
    51  H    0.117375
    52  H    0.105566
    53  H    0.099742
    54  H    0.074328
    55  H    0.110383
    56  H    0.102520
    57  H    0.101377
    58  H    0.086409
    59  H    0.096664
    60  H    0.096133
    61  H    0.102031
    62  H    0.106336
    63  H    0.078396
    64  H    0.089077
    65  H    0.093924
    66  H    0.079463
    67  H    0.096820
    68  H    0.094860
    69  H    0.126801
    70  H    0.116393
    71  H    0.123095
    72  H    0.115290
    73  H    0.300730
    74  H    0.299733
    75  H    0.097222
    76  H    0.062547
    77  H    0.103538
    78  H    0.103940
    79  H    0.133024
    80  H    0.122909
    81  H    0.131948
    82  H    0.076456
    83  H    0.055552
    84  H    0.088724
    85  H    0.079891
    86  H    0.067321
    87  H    0.088774
    88  H    0.061551
    89  H    0.112174
    90  H    0.119294
    91  H    0.109722
    92  H    0.146113
    93  H    0.121944
    94  H    0.112881
    95  H    0.072422
    96  H    0.077462
    97  H    0.083816
    98  H    0.069439
 Sum of Mulliken charges =  -0.00000

 Dipole moment (field-independent basis, Debye):
    X=              0.6467    Y=             -2.3489    Z=              1.7640  Tot=              3.0079
 Quadrupole moment (field-independent basis, Debye-Ang):
   XX=           -263.2192   YY=           -246.7787   ZZ=           -261.1082
   XY=             10.8040   XZ=             -1.4795   YZ=             -0.4297

 Normal termination of Gaussian 16 at Mon Jul  1 00:01:18 2019.
