 Gaussian 16, Revision A.03,
 Gaussian 16:  ES64L-G16RevA.03 25-Dec-2016

 -------------------------------------
 # td=(NStates=1) CAM-B3LYP/6-31G(d,p)
 -------------------------------------

 --
 TD
 --
 Symbolic Z-matrix:
 Charge =  0 Multiplicity = 1

                         Standard orientation:
 ---------------------------------------------------------------------
 Center     Atomic      Atomic             Coordinates (Angstroms)
 Number     Number       Type             X           Y           Z
 ---------------------------------------------------------------------
      1          8           0       14.702431   -2.460049   -0.480543
      2          8           0      -14.825001    1.949073    0.632777
      3          6           0       11.421579   -1.094632    1.178018
      4          6           0      -12.166801   -0.926311    0.763485
      5          6           0       12.943829   -1.473774    1.046735
      6          6           0      -13.655505   -0.250356    0.583795
      7          6           0       13.289053   -2.005071   -0.419065
      8          6           0      -13.484568    1.287810    0.600226
      9          6           0       10.962447   -0.229674   -0.009809
     10          6           0      -11.308299   -0.292317   -0.275593
     11          6           0       13.035230   -0.802315   -1.387707
     12          6           0      -12.767707    1.706872   -0.592112
     13          6           0       11.706830   -0.293543   -1.213894
     14          6           0      -11.595526    0.811972   -0.903991
     15          6           0       11.239815   -0.331925    2.593600
     16          6           0       10.503447   -2.417971    1.268211
     17          6           0      -11.697477   -0.712992    2.221569
     18          6           0      -12.486744   -2.460191    0.551331
     19          6           0        9.615018    0.366530    0.104547
     20          6           0      -10.114493   -1.045355   -0.486349
     21          6           0       11.163666    0.450998   -2.499626
     22          6           0      -10.692880    1.401723   -1.981073
     23          6           0        9.382231    1.662194   -0.131107
     24          6           0       -8.850406   -0.557717   -0.258390
     25          6           0        8.010188    2.343609    0.150317
     26          6           0       -7.635844   -1.345947   -0.494506
     27          6           0        8.104904    3.793234    0.417631
     28          6           0       -7.702138   -2.690149   -0.963708
     29          6           0        6.913562    1.662314   -0.100892
     30          6           0       -6.439097   -0.684012   -0.190898
     31          6           0        5.468502    2.028918    0.181260
     32          6           0       -5.062488   -1.191861   -0.244183
     33          6           0        4.496972    1.259101   -0.127387
     34          6           0       -3.923899   -0.358613   -0.137647
     35          6           0        3.114871    1.709370    0.135402
     36          6           0       -2.574659   -0.850488   -0.224479
     37          6           0        2.976632    3.185388    0.649436
     38          6           0       -2.350928   -2.133137   -0.704809
     39          6           0        2.092177    0.866664    0.062989
     40          6           0       -1.656603    0.131453    0.036900
     41          6           0        0.632624    0.973683    0.207911
     42          6           0       -0.234130   -0.008934   -0.143748
     43          1           0       13.312426   -0.659046    1.230827
     44          1           0       13.231835   -2.187147    1.765754
     45          1           0      -14.108780   -0.662225    1.535270
     46          1           0      -14.104149   -0.434260   -0.295054
     47          1           0       12.483404   -2.895819   -0.625465
     48          1           0      -12.974060    1.824221    1.432143
     49          1           0       13.777877   -0.125913   -1.018670
     50          1           0       13.337443   -1.119943   -2.391479
     51          1           0      -13.343349    1.774202   -1.522024
     52          1           0      -12.345949    2.658090   -0.589011
     53          1           0       11.925752   -1.111766    3.159530
     54          1           0       10.086264   -0.261345    2.808088
     55          1           0       11.611643    0.671385    2.490333
     56          1           0       10.600137   -3.079223    0.427106
     57          1           0       10.628423   -3.016713    2.249153
     58          1           0        9.632804   -1.984730    1.383258
     59          1           0      -11.399727    0.369214    2.334703
     60          1           0      -10.851041   -1.450998    2.470743
     61          1           0      -12.436708   -0.885111    2.979154
     62          1           0      -13.419448   -2.800127    1.113328
     63          1           0      -11.519483   -3.080232    0.775581
     64          1           0      -12.547382   -2.564381   -0.546973
     65          1           0        8.639512   -0.141721    0.582042
     66          1           0      -10.236988   -2.111343   -0.660249
     67          1           0       10.087957    1.001119   -2.408797
     68          1           0       11.959987    1.265606   -2.647797
     69          1           0       10.851877   -0.324448   -3.408676
     70          1           0      -11.222583    1.481901   -2.880050
     71          1           0      -10.090954    0.660054   -2.441008
     72          1           0      -10.173793    2.153378   -1.619695
     73          1           0       14.785154   -3.004284    0.341606
     74          1           0      -15.337148    1.738898    1.485407
     75          1           0       10.142986    2.288093   -0.471314
     76          1           0       -8.857148    0.470864    0.149894
     77          1           0        8.573611    4.314285   -0.566287
     78          1           0        7.148777    4.297556    0.550821
     79          1           0        8.938840    3.912729    1.130162
     80          1           0       -8.289309   -3.668629   -0.205546
     81          1           0       -8.321855   -2.754421   -1.894042
     82          1           0       -6.793518   -3.002308   -1.392511
     83          1           0        6.953266    0.598467   -0.588294
     84          1           0       -6.709824    0.332257    0.003045
     85          1           0        5.232615    3.145108    0.684047
     86          1           0       -4.924863   -2.181191   -0.517544
     87          1           0        4.674292    0.335703   -0.556011
     88          1           0       -4.026311    0.751555   -0.091126
     89          1           0        3.368032    3.240926    1.740064
     90          1           0        1.828180    3.337715    0.637652
     91          1           0        3.441256    3.894956   -0.001979
     92          1           0       -2.762591   -2.830860   -0.201197
     93          1           0       -2.657804   -2.275867   -1.840499
     94          1           0       -1.447417   -2.410638   -0.916962
     95          1           0        2.412288   -0.074698   -0.410099
     96          1           0       -2.106181    1.032536    0.236740
     97          1           0        0.162738    1.701854    0.733638
     98          1           0        0.119240   -0.972769   -0.513929
 ---------------------------------------------------------------------

 SCF Done:  E(RCAM-B3LYP) =  -1706.94262966     A.U. after   14 cycles

 Excitation energies and oscillator strengths:

 Excited State   1:      Singlet-A      2.9201 eV  424.59 nm  f=3.3985  <S**2>=0.000
     155 ->158         0.14372
     156 ->157         0.68605
 This state for optimization and/or second-order correction.
 Total Energy, E(TD-HF/TD-DFT) =  -1706.83531928
 Copying the excited state density for this state as the 1-particle RhoCI density.

 The electronic state is 1-A.
 Alpha  occ. eigenvalues --  -19.21870 -19.19679 -10.32402 -10.30037 -10.27998
 Alpha  occ. eigenvalues --  -10.27910 -10.27838 -10.27320 -10.27155 -10.27144
 Alpha  occ. eigenvalues --  -10.27120 -10.27098 -10.26963 -10.26940 -10.26921
 Alpha  occ. eigenvalues --  -10.26892 -10.26865 -10.26653 -10.26523 -10.26511
 Alpha  occ. eigenvalues --  -10.26490 -10.26432 -10.26364 -10.26133 -10.26029
 Alpha  occ. eigenvalues --  -10.26028 -10.25878 -10.25858 -10.25784 -10.25600
 Alpha  occ. eigenvalues --  -10.25554 -10.25530 -10.25023 -10.24809 -10.24764
 Alpha  occ. eigenvalues --  -10.24754 -10.24111 -10.24040 -10.23894 -10.23535
 Alpha  occ. eigenvalues --  -10.23446 -10.22558  -1.07490  -1.05055  -0.94002
 Alpha  occ. eigenvalues --   -0.93102  -0.92965  -0.91720  -0.90451  -0.89941
 Alpha  occ. eigenvalues --   -0.87563  -0.86827  -0.86538  -0.85498  -0.84959
 Alpha  occ. eigenvalues --   -0.83200  -0.82520  -0.80212  -0.79794  -0.79391
 Alpha  occ. eigenvalues --   -0.76822  -0.76633  -0.76497  -0.75951  -0.75747
 Alpha  occ. eigenvalues --   -0.75125  -0.74853  -0.74662  -0.74139  -0.70483
 Alpha  occ. eigenvalues --   -0.67808  -0.67149  -0.65519  -0.64714  -0.64103
 Alpha  occ. eigenvalues --   -0.63062  -0.62509  -0.62263  -0.61433  -0.59861
 Alpha  occ. eigenvalues --   -0.59420  -0.58315  -0.58302  -0.57215  -0.56444
 Alpha  occ. eigenvalues --   -0.55221  -0.54961  -0.54851  -0.54263  -0.53997
 Alpha  occ. eigenvalues --   -0.53284  -0.52684  -0.52135  -0.51865  -0.51617
 Alpha  occ. eigenvalues --   -0.51459  -0.50992  -0.50777  -0.49909  -0.49849
 Alpha  occ. eigenvalues --   -0.49193  -0.48853  -0.48529  -0.48495  -0.48158
 Alpha  occ. eigenvalues --   -0.47151  -0.47054  -0.46784  -0.46005  -0.45863
 Alpha  occ. eigenvalues --   -0.45813  -0.45534  -0.45288  -0.45223  -0.44838
 Alpha  occ. eigenvalues --   -0.44767  -0.44544  -0.44103  -0.44014  -0.43900
 Alpha  occ. eigenvalues --   -0.43271  -0.42969  -0.42892  -0.42756  -0.42455
 Alpha  occ. eigenvalues --   -0.42135  -0.41836  -0.41536  -0.41319  -0.41187
 Alpha  occ. eigenvalues --   -0.40769  -0.40113  -0.40022  -0.39645  -0.39195
 Alpha  occ. eigenvalues --   -0.39122  -0.38805  -0.38386  -0.38159  -0.37967
 Alpha  occ. eigenvalues --   -0.37320  -0.36853  -0.36575  -0.36037  -0.35061
 Alpha  occ. eigenvalues --   -0.34667  -0.34221  -0.33444  -0.32228  -0.32006
 Alpha  occ. eigenvalues --   -0.30685  -0.29637  -0.28166  -0.26353  -0.24593
 Alpha  occ. eigenvalues --   -0.21130
 Alpha virt. eigenvalues --   -0.03837   0.00454   0.02763   0.05611   0.07719
 Alpha virt. eigenvalues --    0.09006   0.10374   0.11098   0.12049   0.12214
 Alpha virt. eigenvalues --    0.12284   0.12461   0.12801   0.12952   0.13345

 Mulliken charges:
               1
     1  O   -0.567698
     2  O   -0.601830
     3  C   -0.057926
     4  C   -0.036562
     5  C   -0.180476
     6  C   -0.175894
     7  C    0.152343
     8  C    0.166035
     9  C    0.035311
    10  C    0.080714
    11  C   -0.229070
    12  C   -0.205549
    13  C    0.063560
    14  C    0.008942
    15  C   -0.297252
    16  C   -0.290727
    17  C   -0.294377
    18  C   -0.307874
    19  C   -0.113173
    20  C   -0.156124
    21  C   -0.345941
    22  C   -0.354893
    23  C   -0.100580
    24  C   -0.090510
    25  C    0.084378
    26  C    0.129103
    27  C   -0.362415
    28  C   -0.365147
    29  C   -0.140834
    30  C   -0.113880
    31  C   -0.081587
    32  C   -0.114848
    33  C   -0.070007
    34  C   -0.122090
    35  C    0.093616
    36  C    0.144516
    37  C   -0.374494
    38  C   -0.366120
    39  C   -0.140907
    40  C   -0.128198
    41  C   -0.074993
    42  C   -0.084167
    43  H    0.108163
    44  H    0.078243
    45  H    0.075788
    46  H    0.114560
    47  H    0.064177
    48  H    0.083655
    49  H    0.136465
    50  H    0.123020
    51  H    0.117351
    52  H    0.114794
    53  H    0.095629
    54  H    0.098504
    55  H    0.112636
    56  H    0.105928
    57  H    0.080598
    58  H    0.113795
    59  H    0.096701
    60  H    0.102002
    61  H    0.103469
    62  H    0.104190
    63  H    0.086855
    64  H    0.107141
    65  H    0.095119
    66  H    0.083094
    67  H    0.104950
    68  H    0.110613
    69  H    0.093358
    70  H    0.109021
    71  H    0.117332
    72  H    0.125562
    73  H    0.310622
    74  H    0.301171
    75  H    0.088060
    76  H    0.083946
    77  H    0.102591
    78  H    0.119412
    79  H    0.122902
    80  H    0.066756
    81  H    0.118094
    82  H    0.114973
    83  H    0.080463
    84  H    0.075943
    85  H    0.072311
    86  H    0.086308
    87  H    0.080560
    88  H    0.090474
    89  H    0.120339
    90  H    0.097180
    91  H    0.130503
    92  H    0.133073
    93  H    0.102497
    94  H    0.114335
    95  H    0.069356
    96  H    0.076620
    97  H    0.082231
    98  H    0.084197
 Sum of Mulliken charges =  -0.00000

 Dipole moment (field-independent basis, Debye):
    X=              0.6691    Y=             -0.6491    Z=              1.1016  Tot=              1.4431
 Quadrupole moment (field-independent basis, Debye-Ang):
   XX=           -299.7673   YY=           -247.7724   ZZ=           -259.1853
   XY=             20.4275   XZ=              4.5860   YZ=              1.6511

 Normal termination of Gaussian 16 at Mon Jul  1 11:51:36 2019.
