 Gaussian 16, Revision A.03,
 Gaussian 16:  ES64L-G16RevA.03 25-Dec-2016

 -------------------------------------
 # td=(NStates=1) CAM-B3LYP/6-31G(d,p)
 -------------------------------------

 --
 TD
 --
 Symbolic Z-matrix:
 Charge =  0 Multiplicity = 1

                         Standard orientation:
 ---------------------------------------------------------------------
 Center     Atomic      Atomic             Coordinates (Angstroms)
 Number     Number       Type             X           Y           Z
 ---------------------------------------------------------------------
      1          8           0       14.858498   -2.055581   -0.280489
      2          8           0      -14.920232    1.959530    0.749410
      3          6           0       11.410053   -1.094090    1.200622
      4          6           0      -12.291957   -0.920721    0.785140
      5          6           0       12.935854   -1.389863    1.074883
      6          6           0      -13.635585   -0.186827    0.788484
      7          6           0       13.469802   -1.886764   -0.265611
      8          6           0      -13.595809    1.289110    0.766769
      9          6           0       10.968134   -0.279287   -0.040705
     10          6           0      -11.368277   -0.167057   -0.153446
     11          6           0       13.172664   -0.802245   -1.249210
     12          6           0      -12.883112    1.840041   -0.373369
     13          6           0       11.872312   -0.133985   -1.087783
     14          6           0      -11.566846    0.996598   -0.709607
     15          6           0       11.158141   -0.323768    2.484459
     16          6           0       10.577316   -2.506261    1.333725
     17          6           0      -11.683609   -1.025246    2.211057
     18          6           0      -12.573185   -2.335127    0.367449
     19          6           0        9.647672    0.300605    0.205917
     20          6           0      -10.138815   -0.955537   -0.427668
     21          6           0       11.438176    0.748213   -2.250954
     22          6           0      -10.697099    1.712142   -1.692201
     23          6           0        9.327646    1.550905   -0.020241
     24          6           0       -8.805927   -0.578089   -0.117219
     25          6           0        8.032002    2.274109    0.197246
     26          6           0       -7.664414   -1.277149   -0.447218
     27          6           0        8.053379    3.664269    0.634411
     28          6           0       -7.770029   -2.638331   -0.974622
     29          6           0        6.897743    1.536488   -0.044153
     30          6           0       -6.455525   -0.646377   -0.190417
     31          6           0        5.463643    2.023019    0.144350
     32          6           0       -5.109310   -1.252092   -0.403017
     33          6           0        4.428991    1.316212   -0.225050
     34          6           0       -4.017337   -0.488890   -0.251145
     35          6           0        3.081360    1.607727   -0.045790
     36          6           0       -2.639585   -0.918720   -0.591115
     37          6           0        2.778675    2.941357    0.617198
     38          6           0       -2.469331   -2.345887   -1.106130
     39          6           0        2.163981    0.713741   -0.333038
     40          6           0       -1.668919    0.032497   -0.346270
     41          6           0        0.739624    0.871475   -0.287290
     42          6           0       -0.151387   -0.171184   -0.498890
     43          1           0       13.513570   -0.607931    1.534868
     44          1           0       13.051791   -2.047373    1.704314
     45          1           0      -14.223901   -0.641075    1.591392
     46          1           0      -14.174318   -0.349324   -0.179823
     47          1           0       12.800465   -2.832774   -0.370022
     48          1           0      -13.069640    1.660433    1.706905
     49          1           0       13.967709   -0.074560   -1.215021
     50          1           0       13.415809   -1.203365   -2.262036
     51          1           0      -13.277803    1.649668   -1.258416
     52          1           0      -12.445068    2.838577   -0.337558
     53          1           0       11.575491   -0.982234    3.184749
     54          1           0        9.869222   -0.302201    2.612722
     55          1           0       11.727863    0.664774    2.442039
     56          1           0       10.744017   -3.304307    0.598806
     57          1           0       10.977727   -3.014312    2.314302
     58          1           0        9.370888   -2.268875    1.331118
     59          1           0      -11.444602    0.052964    2.585815
     60          1           0      -10.743421   -1.685789    2.114291
     61          1           0      -12.402955   -1.405678    2.891584
     62          1           0      -13.374386   -2.700154    0.975705
     63          1           0      -11.772680   -2.974501    0.502282
     64          1           0      -12.768404   -2.499167   -0.734085
     65          1           0        8.769519   -0.422202    0.295230
     66          1           0      -10.197490   -2.130227   -0.738222
     67          1           0       10.225244    1.067091   -2.102921
     68          1           0       11.930359    1.818303   -2.469343
     69          1           0       11.610864    0.187602   -3.119169
     70          1           0      -11.281209    2.501245   -2.186593
     71          1           0       -9.969593    1.019565   -2.249618
     72          1           0      -10.081367    2.375961   -1.129404
     73          1           0       15.176283   -2.916057    0.087400
     74          1           0      -15.389181    1.432040    1.361084
     75          1           0       10.214445    2.329514   -0.200421
     76          1           0       -8.691045    0.400241    0.222340
     77          1           0        8.599491    4.313652    0.041167
     78          1           0        6.970181    4.174664    0.824817
     79          1           0        8.466849    3.789462    1.651483
     80          1           0       -8.283633   -3.596253   -0.569606
     81          1           0       -8.006475   -2.645029   -2.204455
     82          1           0       -6.630682   -2.985297   -0.999080
     83          1           0        6.888231    0.489479   -0.507872
     84          1           0       -6.562501    0.289161    0.064799
     85          1           0        5.328776    3.016737    0.560469
     86          1           0       -5.110171   -2.293369   -0.636478
     87          1           0        4.556228    0.428278   -0.939499
     88          1           0       -4.151375    0.656567   -0.162501
     89          1           0        3.179913    2.817572    1.883139
     90          1           0        1.771903    3.109932    0.347612
     91          1           0        3.416787    3.790548    0.097395
     92          1           0       -3.102626   -3.024340   -0.425318
     93          1           0       -2.723762   -2.615877   -2.153405
     94          1           0       -1.327846   -2.539306   -0.854539
     95          1           0        2.398021   -0.279352   -0.623728
     96          1           0       -2.104604    0.854685    0.130708
     97          1           0        0.417412    1.856146    0.116257
     98          1           0        0.282871   -1.045602   -0.974356
 ---------------------------------------------------------------------

 SCF Done:  E(RCAM-B3LYP) =  -1706.97438626     A.U. after   14 cycles

 Excitation energies and oscillator strengths:

 Excited State   1:      Singlet-A      2.9546 eV  419.63 nm  f=3.6511  <S**2>=0.000
     155 ->158         0.19242
     156 ->157         0.67144
 This state for optimization and/or second-order correction.
 Total Energy, E(TD-HF/TD-DFT) =  -1706.86580724
 Copying the excited state density for this state as the 1-particle RhoCI density.

 The electronic state is 1-A.
 Alpha  occ. eigenvalues --  -19.22062 -19.20372 -10.30864 -10.30230 -10.28024
 Alpha  occ. eigenvalues --  -10.27957 -10.27871 -10.27848 -10.27602 -10.27478
 Alpha  occ. eigenvalues --  -10.27256 -10.27127 -10.27067 -10.27043 -10.26942
 Alpha  occ. eigenvalues --  -10.26871 -10.26870 -10.26844 -10.26837 -10.26728
 Alpha  occ. eigenvalues --  -10.26509 -10.26366 -10.26253 -10.26169 -10.26091
 Alpha  occ. eigenvalues --  -10.25927 -10.25837 -10.25824 -10.25765 -10.25624
 Alpha  occ. eigenvalues --  -10.25479 -10.25428 -10.25339 -10.25266 -10.25225
 Alpha  occ. eigenvalues --  -10.25129 -10.25023 -10.24843 -10.24754 -10.24093
 Alpha  occ. eigenvalues --  -10.23852 -10.21825  -1.09981  -1.08382  -0.94281
 Alpha  occ. eigenvalues --   -0.92981  -0.92751  -0.91913  -0.90274  -0.89938
 Alpha  occ. eigenvalues --   -0.87951  -0.86999  -0.86411  -0.85507  -0.85049
 Alpha  occ. eigenvalues --   -0.83542  -0.81732  -0.80314  -0.79656  -0.77466
 Alpha  occ. eigenvalues --   -0.76673  -0.76476  -0.76039  -0.75849  -0.75815
 Alpha  occ. eigenvalues --   -0.75639  -0.74891  -0.74209  -0.73838  -0.70300
 Alpha  occ. eigenvalues --   -0.68630  -0.67502  -0.66092  -0.65133  -0.64530
 Alpha  occ. eigenvalues --   -0.62925  -0.62473  -0.61736  -0.60430  -0.59755
 Alpha  occ. eigenvalues --   -0.59448  -0.59141  -0.57890  -0.57332  -0.56577
 Alpha  occ. eigenvalues --   -0.56149  -0.55578  -0.54706  -0.54210  -0.53564
 Alpha  occ. eigenvalues --   -0.52960  -0.52787  -0.51778  -0.51679  -0.50967
 Alpha  occ. eigenvalues --   -0.50329  -0.50281  -0.49360  -0.49137  -0.48874
 Alpha  occ. eigenvalues --   -0.48698  -0.48573  -0.47949  -0.47779  -0.47475
 Alpha  occ. eigenvalues --   -0.47357  -0.46957  -0.46594  -0.46421  -0.46124
 Alpha  occ. eigenvalues --   -0.45738  -0.45473  -0.45143  -0.44913  -0.44853
 Alpha  occ. eigenvalues --   -0.44437  -0.44331  -0.44224  -0.44105  -0.43502
 Alpha  occ. eigenvalues --   -0.43325  -0.42886  -0.42840  -0.42543  -0.41878
 Alpha  occ. eigenvalues --   -0.41731  -0.41363  -0.41258  -0.40671  -0.40618
 Alpha  occ. eigenvalues --   -0.40444  -0.39996  -0.39848  -0.39537  -0.39286
 Alpha  occ. eigenvalues --   -0.39003  -0.38755  -0.38602  -0.38021  -0.37674
 Alpha  occ. eigenvalues --   -0.37606  -0.37350  -0.37146  -0.36333  -0.35659
 Alpha  occ. eigenvalues --   -0.35196  -0.34708  -0.33420  -0.32103  -0.31977
 Alpha  occ. eigenvalues --   -0.31351  -0.29361  -0.28096  -0.26471  -0.23984
 Alpha  occ. eigenvalues --   -0.21390
 Alpha virt. eigenvalues --   -0.03777  -0.00315   0.02912   0.06227   0.08047
 Alpha virt. eigenvalues --    0.09481   0.10853   0.11139   0.11439   0.12070
 Alpha virt. eigenvalues --    0.12289   0.12429   0.12688   0.12920   0.13570

 Mulliken charges:
               1
     1  O   -0.562023
     2  O   -0.556803
     3  C   -0.034605
     4  C   -0.019100
     5  C   -0.165214
     6  C   -0.208744
     7  C    0.173324
     8  C    0.150564
     9  C    0.063703
    10  C    0.076894
    11  C   -0.223354
    12  C   -0.186955
    13  C    0.070444
    14  C    0.013587
    15  C   -0.267911
    16  C   -0.308155
    17  C   -0.289100
    18  C   -0.293978
    19  C   -0.104665
    20  C   -0.182289
    21  C   -0.359078
    22  C   -0.371747
    23  C   -0.117094
    24  C   -0.099306
    25  C    0.103274
    26  C    0.160075
    27  C   -0.380445
    28  C   -0.377848
    29  C   -0.129508
    30  C   -0.106659
    31  C   -0.101391
    32  C   -0.088544
    33  C   -0.090712
    34  C   -0.121404
    35  C    0.116007
    36  C    0.109749
    37  C   -0.338283
    38  C   -0.366985
    39  C   -0.112980
    40  C   -0.124826
    41  C   -0.076207
    42  C   -0.121200
    43  H    0.089875
    44  H    0.071325
    45  H    0.080735
    46  H    0.102474
    47  H    0.066588
    48  H    0.069714
    49  H    0.133544
    50  H    0.104056
    51  H    0.135442
    52  H    0.110426
    53  H    0.103804
    54  H    0.079556
    55  H    0.105069
    56  H    0.107159
    57  H    0.085165
    58  H    0.083890
    59  H    0.090979
    60  H    0.110039
    61  H    0.102383
    62  H    0.098919
    63  H    0.105535
    64  H    0.097634
    65  H    0.094459
    66  H    0.072946
    67  H    0.094970
    68  H    0.089369
    69  H    0.110628
    70  H    0.108223
    71  H    0.126527
    72  H    0.126344
    73  H    0.311590
    74  H    0.296502
    75  H    0.076939
    76  H    0.073167
    77  H    0.134252
    78  H    0.094315
    79  H    0.126874
    80  H    0.123295
    81  H    0.097934
    82  H    0.080027
    83  H    0.085809
    84  H    0.065376
    85  H    0.079475
    86  H    0.091213
    87  H    0.072864
    88  H    0.086343
    89  H    0.096062
    90  H    0.112039
    91  H    0.103759
    92  H    0.114798
    93  H    0.132030
    94  H    0.099278
    95  H    0.074898
    96  H    0.087801
    97  H    0.080389
    98  H    0.094686
 Sum of Mulliken charges =  -0.00000

 Dipole moment (field-independent basis, Debye):
    X=              1.2790    Y=             -2.2932    Z=              0.9882  Tot=              2.8056
 Quadrupole moment (field-independent basis, Debye-Ang):
   XX=           -274.9479   YY=           -242.2819   ZZ=           -263.2300
   XY=              8.3263   XZ=             -0.9159   YZ=              1.9450

 Normal termination of Gaussian 16 at Thu Jun 27 05:41:53 2019.
