 Gaussian 16, Revision A.03,
 Gaussian 16:  ES64L-G16RevA.03 25-Dec-2016

 -------------------------------------
 # td=(NStates=1) CAM-B3LYP/6-31G(d,p)
 -------------------------------------

 --
 TD
 --
 Symbolic Z-matrix:
 Charge =  0 Multiplicity = 1

                         Standard orientation:
 ---------------------------------------------------------------------
 Center     Atomic      Atomic             Coordinates (Angstroms)
 Number     Number       Type             X           Y           Z
 ---------------------------------------------------------------------
      1          8           0       14.690661   -2.259650   -0.512749
      2          8           0      -14.666016    1.868282    0.980385
      3          6           0       11.563010   -1.024702    1.299801
      4          6           0      -12.304059   -0.951135    0.975012
      5          6           0       13.066158   -1.368978    1.091327
      6          6           0      -13.685450   -0.212121    1.003803
      7          6           0       13.242969   -1.992904   -0.202087
      8          6           0      -13.375255    1.270893    0.933133
      9          6           0       10.971844   -0.320792    0.077605
     10          6           0      -11.292293   -0.271930   -0.077567
     11          6           0       12.941776   -0.834809   -1.258319
     12          6           0      -12.813419    1.688535   -0.395375
     13          6           0       11.606433   -0.281004   -1.082869
     14          6           0      -11.637221    0.829475   -0.755939
     15          6           0       11.374994   -0.213157    2.564868
     16          6           0       10.777170   -2.402246    1.621127
     17          6           0      -11.600607   -0.894277    2.412046
     18          6           0      -12.523561   -2.372594    0.637499
     19          6           0        9.644508    0.241489    0.310746
     20          6           0      -10.149187   -1.168415   -0.281826
     21          6           0       10.991562    0.409767   -2.293251
     22          6           0      -10.760173    1.453921   -1.883210
     23          6           0        9.341201    1.554362    0.083892
     24          6           0       -8.942048   -0.681770   -0.414253
     25          6           0        8.012737    2.263691    0.220679
     26          6           0       -7.657184   -1.264573   -0.664114
     27          6           0        8.188793    3.728541    0.616065
     28          6           0       -7.594219   -2.762478   -0.912464
     29          6           0        6.964957    1.516215   -0.112772
     30          6           0       -6.514183   -0.581128   -0.466577
     31          6           0        5.583673    1.975775   -0.003640
     32          6           0       -5.214631   -1.079998   -0.745791
     33          6           0        4.464217    1.191153   -0.131961
     34          6           0       -4.106535   -0.217922   -0.600640
     35          6           0        3.120508    1.633677   -0.047956
     36          6           0       -2.705846   -0.593365   -0.684206
     37          6           0        2.865943    3.108577    0.344960
     38          6           0       -2.427117   -1.999578   -1.271927
     39          6           0        2.135903    0.688099   -0.237444
     40          6           0       -1.744977    0.261793   -0.425910
     41          6           0        0.629964    0.978774   -0.337183
     42          6           0       -0.220096    0.054413   -0.519776
     43          1           0       13.953071   -0.549322    1.075376
     44          1           0       13.397623   -2.039517    2.050162
     45          1           0      -14.393030   -0.424947    1.652395
     46          1           0      -14.267663   -0.462514    0.088008
     47          1           0       12.641327   -2.965674   -0.160432
     48          1           0      -12.905116    1.546868    1.786089
     49          1           0       13.811641   -0.115249   -1.327295
     50          1           0       13.038488   -1.364805   -2.208528
     51          1           0      -13.524797    1.436022   -1.171125
     52          1           0      -12.518832    2.699084   -0.532063
     53          1           0       11.790609   -0.742016    3.466526
     54          1           0       10.278168   -0.467998    2.918101
     55          1           0       11.608162    0.820507    2.633545
     56          1           0       10.864105   -3.185341    0.829608
     57          1           0       11.205724   -2.663550    2.574447
     58          1           0        9.739267   -2.209605    1.788554
     59          1           0      -11.294332    0.038840    2.841750
     60          1           0      -10.553823   -1.431064    2.431418
     61          1           0      -12.284621   -1.519214    3.019048
     62          1           0      -13.415744   -2.694747    1.062499
     63          1           0      -11.751637   -2.978765    1.062454
     64          1           0      -12.711532   -2.582384   -0.483663
     65          1           0        8.674716   -0.219235    0.814253
     66          1           0      -10.324256   -2.195639   -0.304517
     67          1           0       10.008354    0.668815   -2.261141
     68          1           0       11.767594    1.286513   -2.222009
     69          1           0       11.119031   -0.242870   -3.051911
     70          1           0      -11.493843    1.724508   -2.621108
     71          1           0       -9.746495    0.781718   -2.153826
     72          1           0      -10.285170    2.392199   -1.705223
     73          1           0       14.845965   -2.860218    0.049612
     74          1           0      -15.234233    1.899034    2.073698
     75          1           0       10.047899    2.212435   -0.120309
     76          1           0       -8.737810    0.393665   -0.352652
     77          1           0        8.734842    4.229427   -0.218639
     78          1           0        7.074331    3.899463    0.865432
     79          1           0        8.667930    3.811649    1.442186
     80          1           0       -7.691300   -3.492835   -0.043245
     81          1           0       -8.367359   -2.885434   -1.872250
     82          1           0       -6.513349   -3.038023   -1.327068
     83          1           0        7.117686    0.566696   -0.607812
     84          1           0       -6.379583    0.467576   -0.054449
     85          1           0        5.252630    2.988559    0.071959
     86          1           0       -4.861626   -1.982178   -1.159699
     87          1           0        4.465701    0.198371   -0.303903
     88          1           0       -4.199711    0.673190   -0.057770
     89          1           0        3.318491    3.388697    1.451990
     90          1           0        1.741027    3.355190    0.300216
     91          1           0        3.320110    3.735936   -0.365772
     92          1           0       -2.950889   -2.664892   -0.566054
     93          1           0       -2.909733   -2.098788   -2.141043
     94          1           0       -1.310239   -2.152439   -1.534384
     95          1           0        2.340016   -0.322800   -0.504224
     96          1           0       -2.114764    1.334326   -0.132345
     97          1           0        0.316842    1.868629   -0.056918
     98          1           0        0.081412   -0.890547   -0.782090
 ---------------------------------------------------------------------

 SCF Done:  E(RCAM-B3LYP) =  -1706.92514042     A.U. after   13 cycles

 Excitation energies and oscillator strengths:

 Excited State   1:      Singlet-A      3.1551 eV  392.97 nm  f=3.6713  <S**2>=0.000
     155 ->158        -0.22766
     156 ->157         0.65938
 This state for optimization and/or second-order correction.
 Total Energy, E(TD-HF/TD-DFT) =  -1706.80919331
 Copying the excited state density for this state as the 1-particle RhoCI density.

 The electronic state is 1-A.
 Alpha  occ. eigenvalues --  -19.21022 -19.19757 -10.31110 -10.28807 -10.28000
 Alpha  occ. eigenvalues --  -10.27647 -10.27311 -10.27255 -10.27208 -10.26799
 Alpha  occ. eigenvalues --  -10.26763 -10.26735 -10.26606 -10.26550 -10.26523
 Alpha  occ. eigenvalues --  -10.26501 -10.26374 -10.26311 -10.26159 -10.25922
 Alpha  occ. eigenvalues --  -10.25921 -10.25810 -10.25807 -10.25663 -10.25659
 Alpha  occ. eigenvalues --  -10.25431 -10.25409 -10.25332 -10.25204 -10.25199
 Alpha  occ. eigenvalues --  -10.25155 -10.25147 -10.24915 -10.24790 -10.24750
 Alpha  occ. eigenvalues --  -10.24688 -10.24674 -10.24581 -10.24259 -10.23843
 Alpha  occ. eigenvalues --  -10.23713 -10.23201  -1.10620  -1.05585  -0.94107
 Alpha  occ. eigenvalues --   -0.92862  -0.91956  -0.91519  -0.90554  -0.89838
 Alpha  occ. eigenvalues --   -0.87641  -0.87362  -0.86823  -0.85600  -0.85180
 Alpha  occ. eigenvalues --   -0.82584  -0.81795  -0.80710  -0.79436  -0.77755
 Alpha  occ. eigenvalues --   -0.77201  -0.76446  -0.75979  -0.75848  -0.75568
 Alpha  occ. eigenvalues --   -0.75365  -0.75289  -0.75049  -0.74268  -0.70438
 Alpha  occ. eigenvalues --   -0.68792  -0.67181  -0.66411  -0.64994  -0.64506
 Alpha  occ. eigenvalues --   -0.63801  -0.63232  -0.62930  -0.60746  -0.60387
 Alpha  occ. eigenvalues --   -0.59166  -0.59086  -0.58226  -0.57385  -0.56152
 Alpha  occ. eigenvalues --   -0.55525  -0.55214  -0.54605  -0.53827  -0.53564
 Alpha  occ. eigenvalues --   -0.53147  -0.52905  -0.52270  -0.51779  -0.51312
 Alpha  occ. eigenvalues --   -0.50571  -0.50515  -0.50300  -0.50095  -0.49667
 Alpha  occ. eigenvalues --   -0.49061  -0.48742  -0.48071  -0.47804  -0.47668
 Alpha  occ. eigenvalues --   -0.47402  -0.47116  -0.46729  -0.46591  -0.46162
 Alpha  occ. eigenvalues --   -0.45906  -0.45822  -0.45529  -0.45116  -0.44895
 Alpha  occ. eigenvalues --   -0.44484  -0.44356  -0.43952  -0.43879  -0.43752
 Alpha  occ. eigenvalues --   -0.43558  -0.43337  -0.42950  -0.42646  -0.42412
 Alpha  occ. eigenvalues --   -0.41896  -0.41338  -0.41204  -0.40754  -0.40479
 Alpha  occ. eigenvalues --   -0.40334  -0.40050  -0.39620  -0.39355  -0.39310
 Alpha  occ. eigenvalues --   -0.39134  -0.38456  -0.38271  -0.38241  -0.37779
 Alpha  occ. eigenvalues --   -0.37343  -0.37147  -0.36662  -0.36121  -0.35801
 Alpha  occ. eigenvalues --   -0.34998  -0.33997  -0.33301  -0.32846  -0.31906
 Alpha  occ. eigenvalues --   -0.30184  -0.30014  -0.28088  -0.26909  -0.23802
 Alpha  occ. eigenvalues --   -0.21710
 Alpha virt. eigenvalues --   -0.03141  -0.00309   0.03813   0.06025   0.06336
 Alpha virt. eigenvalues --    0.08900   0.10222   0.11804   0.12357   0.12839
 Alpha virt. eigenvalues --    0.13323   0.13535   0.13729   0.14092   0.14198

 Mulliken charges:
               1
     1  O   -0.532702
     2  O   -0.584055
     3  C   -0.021610
     4  C   -0.015668
     5  C   -0.162539
     6  C   -0.169095
     7  C    0.114195
     8  C    0.186675
     9  C    0.095068
    10  C    0.043057
    11  C   -0.225251
    12  C   -0.202552
    13  C    0.018739
    14  C    0.035779
    15  C   -0.301445
    16  C   -0.319015
    17  C   -0.312298
    18  C   -0.317330
    19  C   -0.142446
    20  C   -0.112363
    21  C   -0.317018
    22  C   -0.360852
    23  C   -0.083330
    24  C   -0.089482
    25  C    0.051993
    26  C    0.093997
    27  C   -0.346570
    28  C   -0.356495
    29  C   -0.116601
    30  C   -0.117861
    31  C   -0.113978
    32  C   -0.070730
    33  C   -0.083304
    34  C   -0.133775
    35  C    0.118704
    36  C    0.122754
    37  C   -0.374298
    38  C   -0.376593
    39  C   -0.163167
    40  C   -0.164743
    41  C   -0.044523
    42  C   -0.065527
    43  H    0.093188
    44  H    0.051261
    45  H    0.083252
    46  H    0.091070
    47  H    0.089570
    48  H    0.088436
    49  H    0.128270
    50  H    0.114818
    51  H    0.128338
    52  H    0.117029
    53  H    0.090120
    54  H    0.083280
    55  H    0.115961
    56  H    0.100491
    57  H    0.108798
    58  H    0.116310
    59  H    0.110630
    60  H    0.089440
    61  H    0.094920
    62  H    0.104035
    63  H    0.105837
    64  H    0.100194
    65  H    0.085933
    66  H    0.098224
    67  H    0.124260
    68  H    0.102830
    69  H    0.113058
    70  H    0.106702
    71  H    0.098848
    72  H    0.117433
    73  H    0.277499
    74  H    0.277061
    75  H    0.059098
    76  H    0.079509
    77  H    0.128350
    78  H    0.106835
    79  H    0.140155
    80  H    0.126288
    81  H    0.092321
    82  H    0.093129
    83  H    0.102850
    84  H    0.090898
    85  H    0.078516
    86  H    0.082167
    87  H    0.061535
    88  H    0.073942
    89  H    0.106346
    90  H    0.103525
    91  H    0.135242
    92  H    0.120586
    93  H    0.139842
    94  H    0.101261
    95  H    0.082391
    96  H    0.068270
    97  H    0.065261
    98  H    0.070841
 Sum of Mulliken charges =  -0.00000

 Dipole moment (field-independent basis, Debye):
    X=             -0.2499    Y=             -0.5577    Z=              2.2236  Tot=              2.3060
 Quadrupole moment (field-independent basis, Debye-Ang):
   XX=           -279.8074   YY=           -244.3143   ZZ=           -258.4017
   XY=              8.2007   XZ=             -7.1199   YZ=              1.4642

 Normal termination of Gaussian 16 at Thu Jun 27 07:02:48 2019.
