 Gaussian 16, Revision A.03,
 Gaussian 16:  ES64L-G16RevA.03 25-Dec-2016

 -------------------------------------
 # td=(NStates=1) CAM-B3LYP/6-31G(d,p)
 -------------------------------------

 --
 TD
 --
 Symbolic Z-matrix:
 Charge =  0 Multiplicity = 1

                         Standard orientation:
 ---------------------------------------------------------------------
 Center     Atomic      Atomic             Coordinates (Angstroms)
 Number     Number       Type             X           Y           Z
 ---------------------------------------------------------------------
      1          8           0       14.748888   -2.161896   -0.324353
      2          8           0      -14.760745    1.960478    0.740020
      3          6           0       11.440234   -1.076956    1.191072
      4          6           0      -12.283660   -0.897169    0.829843
      5          6           0       13.003309   -1.288756    1.092639
      6          6           0      -13.697488   -0.191073    0.792686
      7          6           0       13.420790   -1.859397   -0.267466
      8          6           0      -13.526459    1.325328    0.742695
      9          6           0       10.980927   -0.350604    0.046923
     10          6           0      -11.308803   -0.320518   -0.307130
     11          6           0       13.136320   -0.928202   -1.372441
     12          6           0      -12.828213    1.664279   -0.583374
     13          6           0       11.693230   -0.201592   -1.139818
     14          6           0      -11.548482    0.911907   -0.823800
     15          6           0       11.165935   -0.265150    2.460242
     16          6           0       10.702251   -2.392609    1.252747
     17          6           0      -11.771291   -0.909174    2.258772
     18          6           0      -12.633109   -2.366245    0.335612
     19          6           0        9.598369    0.318455    0.190995
     20          6           0      -10.137830   -1.068910   -0.412450
     21          6           0       11.233246    0.393274   -2.400398
     22          6           0      -10.589796    1.552367   -1.805932
     23          6           0        9.336128    1.636298   -0.200963
     24          6           0       -8.847111   -0.570918   -0.373892
     25          6           0        7.963707    2.203942    0.039670
     26          6           0       -7.604719   -1.260522   -0.668463
     27          6           0        8.144227    3.761666    0.218203
     28          6           0       -7.720401   -2.717644   -0.990587
     29          6           0        6.846941    1.515338   -0.070708
     30          6           0       -6.441467   -0.545643   -0.374464
     31          6           0        5.489713    2.060080    0.154274
     32          6           0       -5.085641   -1.178311   -0.476425
     33          6           0        4.470340    1.201563    0.128075
     34          6           0       -4.015042   -0.456562   -0.172504
     35          6           0        3.063080    1.596994    0.222161
     36          6           0       -2.625118   -0.930928   -0.355721
     37          6           0        2.835267    3.124392    0.654556
     38          6           0       -2.262494   -2.288357   -0.700539
     39          6           0        2.115465    0.713294   -0.076349
     40          6           0       -1.699054    0.082886   -0.289776
     41          6           0        0.644578    0.970786    0.127913
     42          6           0       -0.240324   -0.071797   -0.172161
     43          1           0       13.492233   -0.300390    1.237378
     44          1           0       13.203722   -1.934664    1.916136
     45          1           0      -14.397257   -0.245993    1.683162
     46          1           0      -14.209476   -0.411648   -0.034987
     47          1           0       12.648411   -2.645747   -0.434409
     48          1           0      -13.093434    1.800481    1.813849
     49          1           0       13.844137   -0.185321   -1.531900
     50          1           0       13.256971   -1.427980   -2.247580
     51          1           0      -13.649577    1.364642   -1.317403
     52          1           0      -12.555854    2.851007   -0.599180
     53          1           0       11.576795   -0.613498    3.458307
     54          1           0       10.165085    0.162155    2.603258
     55          1           0       11.807821    0.670570    2.393074
     56          1           0       11.078265   -3.046417    0.357306
     57          1           0       11.099462   -3.052600    2.173311
     58          1           0        9.617551   -2.204897    1.252990
     59          1           0      -11.436166    0.083066    2.639824
     60          1           0      -10.625407   -1.057671    2.394365
     61          1           0      -12.388569   -1.243583    3.071470
     62          1           0      -13.368749   -2.744270    1.051389
     63          1           0      -11.836686   -2.968244    0.445412
     64          1           0      -13.050497   -2.274562   -0.714376
     65          1           0        8.964757   -0.315212    1.037080
     66          1           0      -10.250989   -2.077253   -0.483856
     67          1           0       10.231232    0.813625   -2.159297
     68          1           0       11.591232    1.407780   -2.641183
     69          1           0       11.208561   -0.191618   -3.382993
     70          1           0      -11.268076    1.827232   -2.603849
     71          1           0      -10.033338    0.819167   -2.203146
     72          1           0      -10.036715    2.389470   -1.396733
     73          1           0       15.050545   -2.790800    0.411732
     74          1           0      -15.554827    1.600046    1.305118
     75          1           0       10.225409    2.141574   -0.749061
     76          1           0       -8.745429    0.373993    0.008483
     77          1           0        9.067866    3.943209   -0.248091
     78          1           0        7.162623    4.343574   -0.144326
     79          1           0        8.549668    3.756378    1.336551
     80          1           0       -8.025780   -3.235984   -0.075807
     81          1           0       -8.458043   -2.700879   -1.826968
     82          1           0       -6.861090   -3.028363   -1.395507
     83          1           0        7.009285    0.393041   -0.242728
     84          1           0       -6.579258    0.495122   -0.426921
     85          1           0        5.342449    3.221031    0.321128
     86          1           0       -5.002543   -2.111856   -0.572266
     87          1           0        4.512088    0.194926   -0.075722
     88          1           0       -4.029831    0.622914    0.212642
     89          1           0        3.501629    3.333133    1.441478
     90          1           0        1.836528    3.204515    0.840455
     91          1           0        3.040551    3.906345   -0.317265
     92          1           0       -2.894064   -2.980081   -0.004711
     93          1           0       -2.671797   -2.436063   -1.720194
     94          1           0       -1.124819   -2.876983   -0.662858
     95          1           0        2.360692   -0.185695   -0.616933
     96          1           0       -2.034915    1.012737   -0.100059
     97          1           0        0.397935    1.843361    0.663474
     98          1           0       -0.070782   -1.050342   -0.686722
 ---------------------------------------------------------------------

 SCF Done:  E(RCAM-B3LYP) =  -1706.93673323     A.U. after   14 cycles

 Excitation energies and oscillator strengths:

 Excited State   1:      Singlet-A      2.9184 eV  424.83 nm  f=3.4481  <S**2>=0.000
     155 ->158        -0.19862
     156 ->157         0.66846
 This state for optimization and/or second-order correction.
 Total Energy, E(TD-HF/TD-DFT) =  -1706.82948344
 Copying the excited state density for this state as the 1-particle RhoCI density.

 The electronic state is 1-A.
 Alpha  occ. eigenvalues --  -19.21785 -19.20179 -10.30760 -10.29466 -10.28264
 Alpha  occ. eigenvalues --  -10.28157 -10.27966 -10.27732 -10.27351 -10.27305
 Alpha  occ. eigenvalues --  -10.27148 -10.26986 -10.26982 -10.26926 -10.26895
 Alpha  occ. eigenvalues --  -10.26813 -10.26766 -10.26760 -10.26673 -10.26568
 Alpha  occ. eigenvalues --  -10.26476 -10.26339 -10.26308 -10.26297 -10.26144
 Alpha  occ. eigenvalues --  -10.25679 -10.25651 -10.25356 -10.25052 -10.25032
 Alpha  occ. eigenvalues --  -10.24838 -10.24836 -10.24820 -10.24769 -10.24763
 Alpha  occ. eigenvalues --  -10.24673 -10.24564 -10.24471 -10.24174 -10.23673
 Alpha  occ. eigenvalues --  -10.23365 -10.23235  -1.10433  -1.08135  -0.93879
 Alpha  occ. eigenvalues --   -0.93040  -0.91990  -0.91056  -0.90143  -0.89268
 Alpha  occ. eigenvalues --   -0.86689  -0.86440  -0.86244  -0.85094  -0.84174
 Alpha  occ. eigenvalues --   -0.83228  -0.81471  -0.80039  -0.79011  -0.77683
 Alpha  occ. eigenvalues --   -0.77438  -0.76557  -0.76226  -0.76110  -0.75846
 Alpha  occ. eigenvalues --   -0.75834  -0.75158  -0.74766  -0.73940  -0.70299
 Alpha  occ. eigenvalues --   -0.68118  -0.67154  -0.65252  -0.64550  -0.64304
 Alpha  occ. eigenvalues --   -0.63523  -0.63021  -0.62206  -0.60708  -0.59714
 Alpha  occ. eigenvalues --   -0.59184  -0.59055  -0.57794  -0.57484  -0.56184
 Alpha  occ. eigenvalues --   -0.55455  -0.55070  -0.54722  -0.53762  -0.53515
 Alpha  occ. eigenvalues --   -0.52829  -0.52761  -0.52103  -0.51745  -0.51246
 Alpha  occ. eigenvalues --   -0.50656  -0.50393  -0.49720  -0.49568  -0.49431
 Alpha  occ. eigenvalues --   -0.49191  -0.48888  -0.48739  -0.48198  -0.47820
 Alpha  occ. eigenvalues --   -0.47482  -0.46931  -0.46880  -0.46567  -0.46360
 Alpha  occ. eigenvalues --   -0.46011  -0.45816  -0.45416  -0.45184  -0.45009
 Alpha  occ. eigenvalues --   -0.44807  -0.44683  -0.44452  -0.44188  -0.43561
 Alpha  occ. eigenvalues --   -0.43311  -0.43130  -0.42472  -0.42170  -0.41822
 Alpha  occ. eigenvalues --   -0.41586  -0.41352  -0.41003  -0.40856  -0.40628
 Alpha  occ. eigenvalues --   -0.40362  -0.40265  -0.39582  -0.39291  -0.39054
 Alpha  occ. eigenvalues --   -0.38845  -0.38645  -0.38133  -0.37830  -0.37672
 Alpha  occ. eigenvalues --   -0.37068  -0.36981  -0.36068  -0.36049  -0.35340
 Alpha  occ. eigenvalues --   -0.34279  -0.33425  -0.32724  -0.31543  -0.31243
 Alpha  occ. eigenvalues --   -0.30147  -0.29505  -0.28081  -0.25905  -0.23721
 Alpha  occ. eigenvalues --   -0.21088
 Alpha virt. eigenvalues --   -0.03425  -0.00307   0.02140   0.05468   0.07874
 Alpha virt. eigenvalues --    0.09302   0.10892   0.11013   0.11498   0.11647
 Alpha virt. eigenvalues --    0.12170   0.12363   0.12915   0.13322   0.13815

 Mulliken charges:
               1
     1  O   -0.562138
     2  O   -0.588571
     3  C   -0.051904
     4  C    0.003748
     5  C   -0.189733
     6  C   -0.177945
     7  C    0.197626
     8  C    0.201031
     9  C    0.098894
    10  C    0.058004
    11  C   -0.207619
    12  C   -0.215019
    13  C    0.030340
    14  C    0.031684
    15  C   -0.314095
    16  C   -0.278402
    17  C   -0.327601
    18  C   -0.301587
    19  C   -0.113819
    20  C   -0.137044
    21  C   -0.389884
    22  C   -0.349834
    23  C   -0.146999
    24  C   -0.087224
    25  C    0.069289
    26  C    0.071848
    27  C   -0.353326
    28  C   -0.355823
    29  C   -0.116039
    30  C   -0.134549
    31  C   -0.101287
    32  C   -0.072278
    33  C   -0.080924
    34  C   -0.099843
    35  C    0.089033
    36  C    0.133323
    37  C   -0.342119
    38  C   -0.389529
    39  C   -0.136418
    40  C   -0.140155
    41  C   -0.101793
    42  C   -0.082160
    43  H    0.097165
    44  H    0.078532
    45  H    0.065755
    46  H    0.099536
    47  H    0.060262
    48  H    0.047563
    49  H    0.114471
    50  H    0.113161
    51  H    0.118631
    52  H    0.091634
    53  H    0.092808
    54  H    0.109894
    55  H    0.094037
    56  H    0.096627
    57  H    0.081220
    58  H    0.107299
    59  H    0.101792
    60  H    0.092758
    61  H    0.115831
    62  H    0.092741
    63  H    0.108434
    64  H    0.097274
    65  H    0.085981
    66  H    0.082612
    67  H    0.109839
    68  H    0.111173
    69  H    0.114108
    70  H    0.104943
    71  H    0.126138
    72  H    0.118575
    73  H    0.308245
    74  H    0.308468
    75  H    0.112227
    76  H    0.076136
    77  H    0.126659
    78  H    0.107903
    79  H    0.114886
    80  H    0.132133
    81  H    0.119355
    82  H    0.114917
    83  H    0.086717
    84  H    0.091631
    85  H    0.092222
    86  H    0.067312
    87  H    0.076820
    88  H    0.090326
    89  H    0.128988
    90  H    0.109642
    91  H    0.089440
    92  H    0.108636
    93  H    0.133546
    94  H    0.106418
    95  H    0.087161
    96  H    0.064447
    97  H    0.095058
    98  H    0.080754
 Sum of Mulliken charges =  -0.00000

 Dipole moment (field-independent basis, Debye):
    X=             -0.3525    Y=             -1.5657    Z=              1.4217  Tot=              2.1440
 Quadrupole moment (field-independent basis, Debye-Ang):
   XX=           -257.1029   YY=           -249.4411   ZZ=           -259.0651
   XY=             11.3563   XZ=              4.0836   YZ=             -0.0216

 Normal termination of Gaussian 16 at Thu Jun 27 14:22:17 2019.
