 Gaussian 16, Revision A.03,
 Gaussian 16:  ES64L-G16RevA.03 25-Dec-2016

 -------------------------------------
 # td=(NStates=1) CAM-B3LYP/6-31G(d,p)
 -------------------------------------

 --
 TD
 --
 Symbolic Z-matrix:
 Charge =  0 Multiplicity = 1

                         Standard orientation:
 ---------------------------------------------------------------------
 Center     Atomic      Atomic             Coordinates (Angstroms)
 Number     Number       Type             X           Y           Z
 ---------------------------------------------------------------------
      1          8           0       14.721609   -2.251899   -0.226362
      2          8           0      -14.880981    1.933618    0.594141
      3          6           0       11.484614   -0.997438    1.198479
      4          6           0      -12.256360   -0.862137    0.936528
      5          6           0       13.005004   -1.254297    1.169021
      6          6           0      -13.675734   -0.222721    0.821069
      7          6           0       13.315483   -1.872918   -0.113209
      8          6           0      -13.576760    1.333618    0.681220
      9          6           0       11.064418   -0.286130   -0.023300
     10          6           0      -11.304566   -0.279037   -0.110247
     11          6           0       13.189572   -0.863710   -1.336386
     12          6           0      -12.828691    1.655407   -0.613293
     13          6           0       11.745877   -0.254433   -1.212742
     14          6           0      -11.631338    0.853418   -0.817892
     15          6           0       11.214602   -0.220027    2.543250
     16          6           0       10.804769   -2.358095    1.258343
     17          6           0      -11.713887   -0.799726    2.385462
     18          6           0      -12.513465   -2.478232    0.710737
     19          6           0        9.713935    0.262849    0.061415
     20          6           0      -10.040386   -1.051455   -0.424215
     21          6           0       11.320288    0.430729   -2.465331
     22          6           0      -10.790263    1.217653   -2.020115
     23          6           0        9.274463    1.500550   -0.175615
     24          6           0       -8.821285   -0.557195   -0.238568
     25          6           0        8.050254    2.168289   -0.000072
     26          6           0       -7.587409   -1.380447   -0.539483
     27          6           0        8.077291    3.577832    0.460657
     28          6           0       -7.656201   -2.657017   -1.118715
     29          6           0        6.891138    1.435869   -0.069534
     30          6           0       -6.417840   -0.605308   -0.421291
     31          6           0        5.544259    1.989876    0.134074
     32          6           0       -5.074538   -1.096324   -0.681424
     33          6           0        4.376786    1.243545   -0.127208
     34          6           0       -4.005267   -0.348148   -0.341160
     35          6           0        3.020699    1.744951    0.154205
     36          6           0       -2.642692   -0.796431   -0.395010
     37          6           0        2.773769    3.136704    0.580346
     38          6           0       -2.273828   -2.072264   -0.992392
     39          6           0        1.955481    0.904432   -0.178986
     40          6           0       -1.759261    0.114938   -0.062830
     41          6           0        0.612824    1.044576    0.210950
     42          6           0       -0.280135    0.022816   -0.227813
     43          1           0       13.316238   -0.324572    1.190825
     44          1           0       13.253125   -1.811710    2.021752
     45          1           0      -14.216624   -0.436607    1.860165
     46          1           0      -14.220246   -0.610878    0.077393
     47          1           0       12.859050   -2.826431   -0.389792
     48          1           0      -13.177961    1.821495    1.579970
     49          1           0       14.115833    0.000426   -1.304108
     50          1           0       13.155412   -1.490400   -2.261059
     51          1           0      -13.693346    1.846546   -1.420525
     52          1           0      -12.493870    2.709441   -0.473183
     53          1           0       11.792818   -0.933823    3.282836
     54          1           0       10.091909   -0.171184    2.745109
     55          1           0       11.567419    0.661197    2.491576
     56          1           0       10.741341   -3.236813    0.554529
     57          1           0       10.732922   -2.876807    2.369030
     58          1           0        9.747692   -2.003623    1.241569
     59          1           0      -11.463229    0.300128    2.702582
     60          1           0      -10.698064   -1.359703    2.671544
     61          1           0      -12.377704   -1.343059    3.289374
     62          1           0      -13.528336   -2.712034    1.155717
     63          1           0      -11.593590   -3.040140    1.099260
     64          1           0      -12.778673   -2.881366   -0.256847
     65          1           0        9.132995   -0.304104    0.728347
     66          1           0      -10.251849   -2.016459   -0.647614
     67          1           0       10.161560    0.615293   -2.516116
     68          1           0       11.823937    1.417033   -2.794394
     69          1           0       11.405112   -0.261149   -3.300024
     70          1           0      -11.335582    1.441681   -3.039609
     71          1           0       -9.848420    0.430869   -2.331565
     72          1           0      -10.317165    2.178060   -1.879592
     73          1           0       15.072577   -3.111904    0.388342
     74          1           0      -15.330767    1.906661    1.578664
     75          1           0        9.955192    2.141944   -0.742919
     76          1           0       -8.603824    0.405150    0.169334
     77          1           0        8.807759    4.189981   -0.073820
     78          1           0        7.114156    4.310078    0.449263
     79          1           0        8.583140    3.914031    1.434167
     80          1           0       -8.174015   -3.279222   -0.393627
     81          1           0       -8.260688   -2.725399   -1.952748
     82          1           0       -6.740468   -3.225188   -1.250232
     83          1           0        6.841831    0.397962   -0.463026
     84          1           0       -6.575884    0.331306   -0.048374
     85          1           0        5.446420    2.848412    0.619722
     86          1           0       -4.736917   -2.171007   -1.026791
     87          1           0        4.411609    0.286169   -0.496948
     88          1           0       -4.192422    0.555862   -0.002635
     89          1           0        3.329666    3.195391    1.634917
     90          1           0        1.742807    3.420135    0.841817
     91          1           0        3.376002    3.775795   -0.067959
     92          1           0       -2.621734   -2.792921   -0.250107
     93          1           0       -2.635765   -2.265936   -2.057648
     94          1           0       -1.267477   -2.372025   -1.146553
     95          1           0        2.240714    0.001912   -0.481414
     96          1           0       -2.217819    1.124225    0.337263
     97          1           0        0.137544    1.849958    0.681874
     98          1           0        0.156918   -0.893801   -0.663520
 ---------------------------------------------------------------------

 SCF Done:  E(RCAM-B3LYP) =  -1706.95889268     A.U. after   14 cycles

 Excitation energies and oscillator strengths:

 Excited State   1:      Singlet-A      2.6456 eV  468.64 nm  f=3.5879  <S**2>=0.000
     155 ->158        -0.16376
     156 ->157         0.68302
 This state for optimization and/or second-order correction.
 Total Energy, E(TD-HF/TD-DFT) =  -1706.86166873
 Copying the excited state density for this state as the 1-particle RhoCI density.

 The electronic state is 1-A.
 Alpha  occ. eigenvalues --  -19.21357 -19.19816 -10.30258 -10.29618 -10.28750
 Alpha  occ. eigenvalues --  -10.27581 -10.27391 -10.27255 -10.27240 -10.27174
 Alpha  occ. eigenvalues --  -10.27130 -10.27103 -10.26960 -10.26849 -10.26706
 Alpha  occ. eigenvalues --  -10.26391 -10.26372 -10.26361 -10.26325 -10.26280
 Alpha  occ. eigenvalues --  -10.26260 -10.26246 -10.26112 -10.26030 -10.25964
 Alpha  occ. eigenvalues --  -10.25933 -10.25912 -10.25850 -10.25765 -10.25698
 Alpha  occ. eigenvalues --  -10.25573 -10.25567 -10.25548 -10.25368 -10.25059
 Alpha  occ. eigenvalues --  -10.25013 -10.24994 -10.24910 -10.24852 -10.24343
 Alpha  occ. eigenvalues --  -10.24178 -10.22605  -1.06799  -1.04463  -0.94412
 Alpha  occ. eigenvalues --   -0.92823  -0.92478  -0.91551  -0.90733  -0.90399
 Alpha  occ. eigenvalues --   -0.86907  -0.86312  -0.85882  -0.85174  -0.84401
 Alpha  occ. eigenvalues --   -0.83257  -0.81895  -0.79851  -0.79570  -0.78484
 Alpha  occ. eigenvalues --   -0.77571  -0.76920  -0.76192  -0.75629  -0.75013
 Alpha  occ. eigenvalues --   -0.74875  -0.74588  -0.74234  -0.73521  -0.70426
 Alpha  occ. eigenvalues --   -0.68578  -0.66865  -0.65244  -0.64609  -0.64244
 Alpha  occ. eigenvalues --   -0.63653  -0.63237  -0.61863  -0.61556  -0.61027
 Alpha  occ. eigenvalues --   -0.60053  -0.58687  -0.58028  -0.57602  -0.55880
 Alpha  occ. eigenvalues --   -0.55646  -0.55079  -0.54713  -0.54116  -0.53679
 Alpha  occ. eigenvalues --   -0.53393  -0.52478  -0.52056  -0.51650  -0.51374
 Alpha  occ. eigenvalues --   -0.50300  -0.50130  -0.49691  -0.49587  -0.49105
 Alpha  occ. eigenvalues --   -0.48985  -0.48584  -0.48458  -0.48079  -0.48019
 Alpha  occ. eigenvalues --   -0.47640  -0.46999  -0.46737  -0.46266  -0.45982
 Alpha  occ. eigenvalues --   -0.45600  -0.45517  -0.45098  -0.45082  -0.44109
 Alpha  occ. eigenvalues --   -0.43999  -0.43856  -0.43454  -0.43323  -0.43210
 Alpha  occ. eigenvalues --   -0.42892  -0.42589  -0.42448  -0.42164  -0.41976
 Alpha  occ. eigenvalues --   -0.41401  -0.41203  -0.41099  -0.40790  -0.40589
 Alpha  occ. eigenvalues --   -0.40170  -0.40069  -0.39707  -0.39594  -0.39412
 Alpha  occ. eigenvalues --   -0.39307  -0.38822  -0.38593  -0.38218  -0.37946
 Alpha  occ. eigenvalues --   -0.37774  -0.36620  -0.36201  -0.36046  -0.34942
 Alpha  occ. eigenvalues --   -0.34602  -0.33997  -0.33770  -0.32021  -0.30985
 Alpha  occ. eigenvalues --   -0.30882  -0.29290  -0.27814  -0.26229  -0.23722
 Alpha  occ. eigenvalues --   -0.20238
 Alpha virt. eigenvalues --   -0.04207  -0.00000   0.02977   0.05842   0.06971
 Alpha virt. eigenvalues --    0.09327   0.09902   0.10142   0.11088   0.12129
 Alpha virt. eigenvalues --    0.12857   0.12951   0.13362   0.13478   0.14167

 Mulliken charges:
               1
     1  O   -0.605035
     2  O   -0.581570
     3  C   -0.087437
     4  C    0.001985
     5  C   -0.128975
     6  C   -0.174415
     7  C    0.175894
     8  C    0.167172
     9  C    0.084727
    10  C    0.033310
    11  C   -0.203616
    12  C   -0.240905
    13  C    0.049899
    14  C    0.097562
    15  C   -0.272833
    16  C   -0.299997
    17  C   -0.290782
    18  C   -0.328360
    19  C   -0.120032
    20  C   -0.151273
    21  C   -0.368089
    22  C   -0.362554
    23  C   -0.108201
    24  C   -0.058907
    25  C    0.117628
    26  C    0.114623
    27  C   -0.388189
    28  C   -0.388000
    29  C   -0.123432
    30  C   -0.132487
    31  C   -0.081730
    32  C   -0.103085
    33  C   -0.106143
    34  C   -0.078593
    35  C    0.103133
    36  C    0.155402
    37  C   -0.372049
    38  C   -0.390491
    39  C   -0.113691
    40  C   -0.155761
    41  C   -0.068064
    42  C   -0.109456
    43  H    0.105047
    44  H    0.086717
    45  H    0.063429
    46  H    0.114605
    47  H    0.089109
    48  H    0.082782
    49  H    0.101011
    50  H    0.109141
    51  H    0.122718
    52  H    0.110211
    53  H    0.090649
    54  H    0.096962
    55  H    0.120496
    56  H    0.116940
    57  H    0.070183
    58  H    0.094648
    59  H    0.090257
    60  H    0.095096
    61  H    0.078601
    62  H    0.099559
    63  H    0.100338
    64  H    0.105435
    65  H    0.078433
    66  H    0.090963
    67  H    0.103598
    68  H    0.113294
    69  H    0.109774
    70  H    0.094194
    71  H    0.098000
    72  H    0.111679
    73  H    0.286753
    74  H    0.303783
    75  H    0.080342
    76  H    0.090430
    77  H    0.116494
    78  H    0.102717
    79  H    0.117703
    80  H    0.116355
    81  H    0.134934
    82  H    0.116122
    83  H    0.086936
    84  H    0.076511
    85  H    0.074074
    86  H    0.080602
    87  H    0.078144
    88  H    0.065208
    89  H    0.097036
    90  H    0.117481
    91  H    0.131848
    92  H    0.125656
    93  H    0.118761
    94  H    0.117442
    95  H    0.070906
    96  H    0.072150
    97  H    0.085634
    98  H    0.084921
 Sum of Mulliken charges =  -0.00000

 Dipole moment (field-independent basis, Debye):
    X=             -0.4749    Y=             -1.2613    Z=              2.0639  Tot=              2.4650
 Quadrupole moment (field-independent basis, Debye-Ang):
   XX=           -293.3612   YY=           -240.6050   ZZ=           -258.7735
   XY=              6.9615   XZ=             -4.6139   YZ=              5.8852

 Normal termination of Gaussian 16 at Tue Jul  9 07:51:46 2019.
