 Gaussian 16, Revision A.03,
 Gaussian 16:  ES64L-G16RevA.03 25-Dec-2016

 -------------------------------------
 # td=(NStates=1) CAM-B3LYP/6-31G(d,p)
 -------------------------------------

 --
 TD
 --
 Symbolic Z-matrix:
 Charge =  0 Multiplicity = 1

                         Standard orientation:
 ---------------------------------------------------------------------
 Center     Atomic      Atomic             Coordinates (Angstroms)
 Number     Number       Type             X           Y           Z
 ---------------------------------------------------------------------
      1          8           0       14.843813   -2.139199   -0.343468
      2          8           0      -14.775534    2.029696    0.692194
      3          6           0       11.482892   -1.143943    1.235680
      4          6           0      -12.369050   -0.921805    0.789389
      5          6           0       12.956083   -1.479044    1.107164
      6          6           0      -13.672707   -0.084167    0.707754
      7          6           0       13.451508   -1.936041   -0.310991
      8          6           0      -13.555438    1.387770    0.731575
      9          6           0       11.077368   -0.226447    0.075749
     10          6           0      -11.365796   -0.295567   -0.198700
     11          6           0       13.089144   -0.779747   -1.270002
     12          6           0      -12.737913    1.919465   -0.330776
     13          6           0       11.801939   -0.052235   -1.037090
     14          6           0      -11.594491    1.035727   -0.753505
     15          6           0       11.210650   -0.428051    2.526964
     16          6           0       10.506334   -2.343189    1.061301
     17          6           0      -11.912433   -0.885619    2.183177
     18          6           0      -12.710631   -2.270629    0.234832
     19          6           0        9.794227    0.409646    0.254237
     20          6           0      -10.179749   -1.078931   -0.454851
     21          6           0       11.309400    0.699038   -2.199121
     22          6           0      -10.614222    1.633964   -1.659537
     23          6           0        9.326002    1.700016   -0.114779
     24          6           0       -8.892943   -0.640261   -0.337611
     25          6           0        8.020580    2.223268    0.093915
     26          6           0       -7.651191   -1.366128   -0.541551
     27          6           0        8.056568    3.764256    0.287350
     28          6           0       -7.723115   -2.849197   -0.876560
     29          6           0        6.832159    1.537029   -0.101832
     30          6           0       -6.430190   -0.731715   -0.231401
     31          6           0        5.560264    2.008835    0.053465
     32          6           0       -5.139700   -1.275996   -0.411951
     33          6           0        4.463809    1.201683   -0.063361
     34          6           0       -3.992529   -0.628781   -0.280639
     35          6           0        3.079703    1.600093    0.233922
     36          6           0       -2.611894   -0.902844   -0.447816
     37          6           0        2.818317    2.944156    0.645514
     38          6           0       -2.296461   -2.271580   -0.808647
     39          6           0        2.087778    0.716207   -0.254912
     40          6           0       -1.687171    0.017427   -0.210215
     41          6           0        0.693706    0.869669   -0.079022
     42          6           0       -0.254936   -0.109176   -0.297072
     43          1           0       13.558060   -0.521398    1.343470
     44          1           0       13.231528   -2.188189    1.901720
     45          1           0      -14.245798   -0.339110    1.428335
     46          1           0      -14.390488   -0.328774   -0.167627
     47          1           0       13.099295   -2.973109   -0.876758
     48          1           0      -13.146750    1.519595    1.664826
     49          1           0       13.940933    0.026626   -1.262035
     50          1           0       13.058405   -1.043663   -2.332041
     51          1           0      -13.309999    1.959493   -1.258261
     52          1           0      -12.358609    2.860266   -0.104084
     53          1           0       11.436420   -1.151062    3.296311
     54          1           0       10.056713   -0.142379    2.672247
     55          1           0       11.874442    0.502792    2.597768
     56          1           0       10.859788   -2.961595    0.175891
     57          1           0       10.689921   -3.132648    2.149910
     58          1           0        9.494331   -1.895423    1.242183
     59          1           0      -11.859489    0.135398    2.355828
     60          1           0      -11.094624   -1.229287    2.237517
     61          1           0      -12.618695   -1.224803    2.855762
     62          1           0      -13.677105   -2.637719    0.703959
     63          1           0      -11.773160   -3.086845    0.211925
     64          1           0      -12.896078   -2.239547   -0.833455
     65          1           0        9.142253   -0.174837    0.711769
     66          1           0      -10.236020   -2.068977   -0.915230
     67          1           0       10.185635    0.766705   -2.161072
     68          1           0       11.916529    1.587070   -2.351137
     69          1           0       11.532206    0.089290   -3.169721
     70          1           0      -10.912175    2.397655   -2.627533
     71          1           0       -9.752959    0.737758   -1.948837
     72          1           0      -10.014855    2.319945   -1.172066
     73          1           0       15.225232   -2.846371    0.281813
     74          1           0      -15.330035    1.719015    1.462055
     75          1           0       10.015917    2.434805   -0.382725
     76          1           0       -8.606963    0.168564   -0.033851
     77          1           0        8.687923    4.271295   -0.464802
     78          1           0        7.065327    4.170315    0.180139
     79          1           0        8.297531    4.104238    1.242381
     80          1           0       -7.921861   -3.680153   -0.016269
     81          1           0       -8.514930   -3.150254   -1.735618
     82          1           0       -6.797458   -3.047813   -1.230887
     83          1           0        6.903200    0.628633   -0.492460
     84          1           0       -6.163364    0.343615   -0.154827
     85          1           0        5.648499    3.028480    0.373655
     86          1           0       -5.036333   -2.345998   -0.712782
     87          1           0        4.664026    0.106555   -0.198052
     88          1           0       -4.134107    0.341167    0.201390
     89          1           0        3.177171    3.238345    1.680477
     90          1           0        1.691300    3.259255    0.561720
     91          1           0        3.287713    3.650443    0.148820
     92          1           0       -2.318510   -3.154812    0.118964
     93          1           0       -3.099121   -2.505103   -1.535066
     94          1           0       -1.301895   -2.602373   -1.358652
     95          1           0        2.473399   -0.368402   -0.486702
     96          1           0       -2.085499    0.937944   -0.051513
     97          1           0        0.248519    1.865121    0.372076
     98          1           0        0.233214   -1.056657   -0.628935
 ---------------------------------------------------------------------

 SCF Done:  E(RCAM-B3LYP) =  -1706.89902336     A.U. after   15 cycles

 Excitation energies and oscillator strengths:

 Excited State   1:      Singlet-A      2.4156 eV  513.26 nm  f=3.8035  <S**2>=0.000
     155 ->158         0.18025
     156 ->157         0.67833
 This state for optimization and/or second-order correction.
 Total Energy, E(TD-HF/TD-DFT) =  -1706.81025168
 Copying the excited state density for this state as the 1-particle RhoCI density.

 The electronic state is 1-A.
 Alpha  occ. eigenvalues --  -19.21287 -19.21167 -10.32813 -10.28268 -10.28105
 Alpha  occ. eigenvalues --  -10.28047 -10.28045 -10.27403 -10.27394 -10.27347
 Alpha  occ. eigenvalues --  -10.27333 -10.27168 -10.27103 -10.27000 -10.26814
 Alpha  occ. eigenvalues --  -10.26715 -10.26626 -10.26555 -10.26455 -10.26356
 Alpha  occ. eigenvalues --  -10.26161 -10.26146 -10.26048 -10.25963 -10.25934
 Alpha  occ. eigenvalues --  -10.25922 -10.25768 -10.25760 -10.25628 -10.25543
 Alpha  occ. eigenvalues --  -10.25502 -10.25406 -10.25357 -10.25233 -10.25212
 Alpha  occ. eigenvalues --  -10.25108 -10.25064 -10.24250 -10.24120 -10.23882
 Alpha  occ. eigenvalues --  -10.22747 -10.20766  -1.10422  -1.08663  -0.94352
 Alpha  occ. eigenvalues --   -0.93958  -0.93049  -0.92190  -0.90827  -0.90211
 Alpha  occ. eigenvalues --   -0.87940  -0.87795  -0.87454  -0.86258  -0.85021
 Alpha  occ. eigenvalues --   -0.83659  -0.82942  -0.80511  -0.79647  -0.78788
 Alpha  occ. eigenvalues --   -0.78461  -0.76815  -0.76590  -0.76305  -0.75941
 Alpha  occ. eigenvalues --   -0.75353  -0.74997  -0.74762  -0.73673  -0.70954
 Alpha  occ. eigenvalues --   -0.69877  -0.67916  -0.66497  -0.65855  -0.64041
 Alpha  occ. eigenvalues --   -0.63155  -0.62901  -0.61927  -0.60820  -0.60717
 Alpha  occ. eigenvalues --   -0.60188  -0.60112  -0.58759  -0.57269  -0.56680
 Alpha  occ. eigenvalues --   -0.56551  -0.56119  -0.55303  -0.54816  -0.54204
 Alpha  occ. eigenvalues --   -0.54119  -0.53416  -0.52372  -0.52183  -0.51210
 Alpha  occ. eigenvalues --   -0.51015  -0.50818  -0.50312  -0.50028  -0.49410
 Alpha  occ. eigenvalues --   -0.49008  -0.48769  -0.48593  -0.48344  -0.47968
 Alpha  occ. eigenvalues --   -0.47643  -0.47312  -0.47090  -0.46717  -0.46309
 Alpha  occ. eigenvalues --   -0.45947  -0.45767  -0.45291  -0.45176  -0.44925
 Alpha  occ. eigenvalues --   -0.44649  -0.44304  -0.44250  -0.43847  -0.43629
 Alpha  occ. eigenvalues --   -0.43161  -0.42929  -0.42526  -0.42472  -0.42067
 Alpha  occ. eigenvalues --   -0.41670  -0.41342  -0.41217  -0.41176  -0.40773
 Alpha  occ. eigenvalues --   -0.40621  -0.39847  -0.39754  -0.39655  -0.39399
 Alpha  occ. eigenvalues --   -0.39177  -0.38757  -0.38637  -0.38436  -0.38239
 Alpha  occ. eigenvalues --   -0.38196  -0.37824  -0.37164  -0.36473  -0.36435
 Alpha  occ. eigenvalues --   -0.35528  -0.34562  -0.33369  -0.32131  -0.31920
 Alpha  occ. eigenvalues --   -0.31486  -0.29427  -0.27475  -0.25786  -0.23236
 Alpha  occ. eigenvalues --   -0.20203
 Alpha virt. eigenvalues --   -0.05296  -0.01576   0.01944   0.05510   0.07149
 Alpha virt. eigenvalues --    0.09265   0.10817   0.11145   0.11331   0.12041
 Alpha virt. eigenvalues --    0.12075   0.12478   0.13204   0.13473   0.13999

 Mulliken charges:
               1
     1  O   -0.578049
     2  O   -0.562002
     3  C   -0.024217
     4  C   -0.009517
     5  C   -0.203615
     6  C   -0.193400
     7  C    0.201457
     8  C    0.186927
     9  C    0.092359
    10  C    0.019277
    11  C   -0.225055
    12  C   -0.202604
    13  C    0.065081
    14  C    0.073506
    15  C   -0.284260
    16  C   -0.262826
    17  C   -0.244053
    18  C   -0.300151
    19  C   -0.118974
    20  C   -0.141924
    21  C   -0.371150
    22  C   -0.373396
    23  C   -0.116012
    24  C   -0.011984
    25  C    0.052803
    26  C    0.059308
    27  C   -0.384801
    28  C   -0.356784
    29  C   -0.086573
    30  C   -0.129130
    31  C   -0.047023
    32  C   -0.070547
    33  C   -0.140624
    34  C   -0.143156
    35  C    0.125335
    36  C    0.179991
    37  C   -0.380365
    38  C   -0.371902
    39  C   -0.137160
    40  C   -0.127486
    41  C   -0.069644
    42  C   -0.095002
    43  H    0.104602
    44  H    0.081909
    45  H    0.070964
    46  H    0.077066
    47  H    0.058591
    48  H    0.071304
    49  H    0.109751
    50  H    0.105488
    51  H    0.127891
    52  H    0.116582
    53  H    0.102175
    54  H    0.090583
    55  H    0.101758
    56  H    0.119041
    57  H    0.026883
    58  H    0.119034
    59  H    0.097865
    60  H    0.097435
    61  H    0.099840
    62  H    0.088287
    63  H    0.069584
    64  H    0.116899
    65  H    0.069994
    66  H    0.088997
    67  H    0.130963
    68  H    0.119889
    69  H    0.085561
    70  H    0.074807
    71  H    0.094753
    72  H    0.132393
    73  H    0.313151
    74  H    0.303675
    75  H    0.088035
    76  H    0.040770
    77  H    0.120059
    78  H    0.105291
    79  H    0.130727
    80  H    0.106961
    81  H    0.098025
    82  H    0.123646
    83  H    0.065309
    84  H    0.090765
    85  H    0.070871
    86  H    0.075673
    87  H    0.087850
    88  H    0.067488
    89  H    0.113782
    90  H    0.099306
    91  H    0.140475
    92  H    0.088391
    93  H    0.112720
    94  H    0.102049
    95  H    0.081017
    96  H    0.072665
    97  H    0.078761
    98  H    0.078989
 Sum of Mulliken charges =  -0.00000

 Dipole moment (field-independent basis, Debye):
    X=              1.9762    Y=             -0.5490    Z=              2.2561  Tot=              3.0491
 Quadrupole moment (field-independent basis, Debye-Ang):
   XX=           -254.9582   YY=           -245.3388   ZZ=           -261.8620
   XY=              4.5616   XZ=             -8.4683   YZ=              3.1563

 Normal termination of Gaussian 16 at Thu Jul 11 05:42:08 2019.
