 Gaussian 16, Revision A.03,
 Gaussian 16:  ES64L-G16RevA.03 25-Dec-2016

 -------------------------------------
 # td=(NStates=1) CAM-B3LYP/6-31G(d,p)
 -------------------------------------

 --
 TD
 --
 Symbolic Z-matrix:
 Charge =  0 Multiplicity = 1

                         Standard orientation:
 ---------------------------------------------------------------------
 Center     Atomic      Atomic             Coordinates (Angstroms)
 Number     Number       Type             X           Y           Z
 ---------------------------------------------------------------------
      1          8           0       14.601564   -2.451660   -0.531783
      2          8           0      -14.806198    1.877832    0.858334
      3          6           0       11.478135   -1.137085    1.172630
      4          6           0      -12.350952   -0.924488    0.675881
      5          6           0       13.035058   -1.552618    0.960161
      6          6           0      -13.634007   -0.157228    0.670252
      7          6           0       13.336639   -2.079364   -0.452111
      8          6           0      -13.526246    1.314590    0.787807
      9          6           0       10.929353   -0.278355   -0.043082
     10          6           0      -11.352892   -0.221337   -0.267759
     11          6           0       13.058330   -0.862301   -1.403452
     12          6           0      -12.916712    1.786671   -0.529249
     13          6           0       11.673550   -0.174665   -1.183544
     14          6           0      -11.543994    0.997883   -0.732879
     15          6           0       11.415876   -0.286792    2.509144
     16          6           0       10.610029   -2.448251    1.303699
     17          6           0      -11.935739   -1.162149    2.134259
     18          6           0      -12.658858   -2.392646    0.069235
     19          6           0        9.696373    0.412169    0.201142
     20          6           0      -10.094896   -0.973451   -0.481507
     21          6           0       11.320625    0.605475   -2.328811
     22          6           0      -10.815326    1.699712   -1.823249
     23          6           0        9.302152    1.699481   -0.186215
     24          6           0       -8.869814   -0.551431   -0.254844
     25          6           0        8.050530    2.341925   -0.006553
     26          6           0       -7.641827   -1.265455   -0.382539
     27          6           0        8.206690    3.783141    0.396068
     28          6           0       -7.725502   -2.709715   -0.908238
     29          6           0        6.846136    1.668360   -0.000997
     30          6           0       -6.452202   -0.597729   -0.203659
     31          6           0        5.535673    2.146048    0.247190
     32          6           0       -5.109540   -1.119039   -0.361857
     33          6           0        4.541381    1.301902    0.136974
     34          6           0       -3.993650   -0.344485   -0.338296
     35          6           0        3.130253    1.665679    0.277594
     36          6           0       -2.605697   -0.770414   -0.421236
     37          6           0        2.811442    3.099993    0.638286
     38          6           0       -2.306211   -2.204277   -0.738921
     39          6           0        2.197230    0.659325   -0.051881
     40          6           0       -1.557933    0.049675   -0.173639
     41          6           0        0.784319    0.831055    0.061385
     42          6           0       -0.174438   -0.147207   -0.245529
     43          1           0       13.500591   -0.604855    1.219980
     44          1           0       13.269435   -2.337576    1.867431
     45          1           0      -14.137052   -0.678195    1.695930
     46          1           0      -14.066444   -0.496409   -0.285317
     47          1           0       12.414988   -2.876415   -0.725824
     48          1           0      -12.913021    1.374679    1.731282
     49          1           0       13.727492   -0.248105   -1.113846
     50          1           0       13.161152   -1.174880   -2.298526
     51          1           0      -13.759648    1.665420   -1.362460
     52          1           0      -12.704277    2.883046   -0.439612
     53          1           0       11.588229   -1.206390    3.301070
     54          1           0       10.334150    0.137520    2.466075
     55          1           0       12.217056    0.431494    2.616046
     56          1           0       10.699906   -2.956223    0.419102
     57          1           0       11.087973   -3.162099    2.137443
     58          1           0        9.560521   -2.215732    1.553465
     59          1           0      -11.663168   -0.250907    2.543995
     60          1           0      -11.019433   -1.771355    2.058560
     61          1           0      -12.721715   -1.796932    2.606418
     62          1           0      -13.245800   -2.771351    0.841047
     63          1           0      -11.819427   -3.025246    0.052952
     64          1           0      -13.120279   -2.291734   -1.023261
     65          1           0        8.885555   -0.069202    0.906719
     66          1           0      -10.255715   -2.031800   -0.860141
     67          1           0       10.250340    0.835767   -2.233776
     68          1           0       11.771103    1.858583   -2.484433
     69          1           0       11.376445    0.150623   -3.358868
     70          1           0      -11.483807    1.869371   -2.758960
     71          1           0       -9.971820    0.995511   -2.174422
     72          1           0      -10.390266    2.613197   -1.468754
     73          1           0       14.917442   -2.660789    0.485426
     74          1           0      -15.213918    1.402524    1.571988
     75          1           0       10.148007    2.292095   -0.421962
     76          1           0       -8.860525    0.343333    0.119045
     77          1           0        9.498099    4.315229    0.272320
     78          1           0        7.227983    4.544635   -0.310922
     79          1           0        8.024912    3.860442    1.863463
     80          1           0       -8.781360   -3.054557   -0.277155
     81          1           0       -8.081603   -2.828193   -1.897107
     82          1           0       -6.778419   -3.419842   -0.383128
     83          1           0        6.934593    0.571731   -0.286756
     84          1           0       -6.427286    0.371706    0.214773
     85          1           0        5.311992    3.204019    0.361738
     86          1           0       -4.818405   -2.259847   -0.578785
     87          1           0        4.822066    0.295626   -0.136087
     88          1           0       -4.201244    0.716897   -0.132454
     89          1           0        3.439316    3.189963    1.495087
     90          1           0        1.643819    3.333868    0.828364
     91          1           0        3.168467    3.699488   -0.004740
     92          1           0       -2.801255   -3.052950   -0.240755
     93          1           0       -2.580263   -2.490138   -1.714825
     94          1           0       -1.190010   -2.401726   -0.738391
     95          1           0        2.681294   -0.256741   -0.081552
     96          1           0       -1.810100    1.056107    0.116316
     97          1           0        0.494553    1.856330    0.055090
     98          1           0        0.135820   -1.104004   -0.550677
 ---------------------------------------------------------------------

 SCF Done:  E(RCAM-B3LYP) =  -1706.84822481     A.U. after   14 cycles

 Excitation energies and oscillator strengths:

 Excited State   1:      Singlet-A      2.4469 eV  506.70 nm  f=3.6010  <S**2>=0.000
     155 ->158         0.17982
     156 ->157         0.67905
 This state for optimization and/or second-order correction.
 Total Energy, E(TD-HF/TD-DFT) =  -1706.75830372
 Copying the excited state density for this state as the 1-particle RhoCI density.

 The electronic state is 1-A.
 Alpha  occ. eigenvalues --  -19.23093 -19.20864 -10.33838 -10.31497 -10.29957
 Alpha  occ. eigenvalues --  -10.28730 -10.28320 -10.28194 -10.27818 -10.27702
 Alpha  occ. eigenvalues --  -10.27555 -10.27450 -10.27385 -10.27167 -10.27063
 Alpha  occ. eigenvalues --  -10.26858 -10.26839 -10.26788 -10.26758 -10.26585
 Alpha  occ. eigenvalues --  -10.26527 -10.26520 -10.26496 -10.26456 -10.26454
 Alpha  occ. eigenvalues --  -10.26375 -10.26178 -10.26167 -10.26137 -10.26100
 Alpha  occ. eigenvalues --  -10.25992 -10.25911 -10.25641 -10.25538 -10.25447
 Alpha  occ. eigenvalues --  -10.25295 -10.25147 -10.25101 -10.25067 -10.24661
 Alpha  occ. eigenvalues --  -10.24384 -10.22475  -1.12193  -1.10597  -0.94137
 Alpha  occ. eigenvalues --   -0.93059  -0.92546  -0.91972  -0.90990  -0.90085
 Alpha  occ. eigenvalues --   -0.87848  -0.87070  -0.86458  -0.85960  -0.84658
 Alpha  occ. eigenvalues --   -0.83467  -0.82568  -0.80355  -0.79289  -0.79167
 Alpha  occ. eigenvalues --   -0.76727  -0.76484  -0.76055  -0.75840  -0.75805
 Alpha  occ. eigenvalues --   -0.75059  -0.74650  -0.74462  -0.73305  -0.70453
 Alpha  occ. eigenvalues --   -0.68168  -0.67346  -0.65698  -0.65183  -0.64218
 Alpha  occ. eigenvalues --   -0.63240  -0.62246  -0.61929  -0.61152  -0.60184
 Alpha  occ. eigenvalues --   -0.60128  -0.59173  -0.58293  -0.57522  -0.57098
 Alpha  occ. eigenvalues --   -0.56460  -0.56071  -0.55158  -0.54553  -0.54029
 Alpha  occ. eigenvalues --   -0.53257  -0.52828  -0.52448  -0.51514  -0.51236
 Alpha  occ. eigenvalues --   -0.51053  -0.50750  -0.50388  -0.49504  -0.49373
 Alpha  occ. eigenvalues --   -0.49048  -0.48988  -0.48590  -0.48126  -0.47875
 Alpha  occ. eigenvalues --   -0.47415  -0.47121  -0.46813  -0.46669  -0.46616
 Alpha  occ. eigenvalues --   -0.46100  -0.45988  -0.45628  -0.45228  -0.45067
 Alpha  occ. eigenvalues --   -0.44999  -0.44441  -0.44076  -0.43619  -0.43528
 Alpha  occ. eigenvalues --   -0.42926  -0.42409  -0.42335  -0.42124  -0.41997
 Alpha  occ. eigenvalues --   -0.41728  -0.41669  -0.41014  -0.40901  -0.40762
 Alpha  occ. eigenvalues --   -0.40415  -0.40049  -0.39637  -0.39529  -0.39141
 Alpha  occ. eigenvalues --   -0.39097  -0.38930  -0.38883  -0.38328  -0.38237
 Alpha  occ. eigenvalues --   -0.38030  -0.37540  -0.36823  -0.36593  -0.35646
 Alpha  occ. eigenvalues --   -0.34373  -0.34105  -0.33622  -0.32657  -0.32090
 Alpha  occ. eigenvalues --   -0.31362  -0.30216  -0.29165  -0.26686  -0.24026
 Alpha  occ. eigenvalues --   -0.20598
 Alpha virt. eigenvalues --   -0.05471  -0.01568   0.01726   0.05122   0.06943
 Alpha virt. eigenvalues --    0.07147   0.08912   0.09477   0.10630   0.10908
 Alpha virt. eigenvalues --    0.11070   0.11389   0.11749   0.12343   0.13193

 Mulliken charges:
               1
     1  O   -0.541787
     2  O   -0.545575
     3  C   -0.041425
     4  C   -0.050591
     5  C   -0.232056
     6  C   -0.168660
     7  C    0.214423
     8  C    0.188327
     9  C    0.102799
    10  C    0.084108
    11  C   -0.175043
    12  C   -0.215349
    13  C    0.042085
    14  C    0.020538
    15  C   -0.282955
    16  C   -0.285189
    17  C   -0.297979
    18  C   -0.299335
    19  C   -0.149491
    20  C   -0.165049
    21  C   -0.372483
    22  C   -0.354744
    23  C   -0.122936
    24  C   -0.026360
    25  C    0.112810
    26  C    0.105125
    27  C   -0.280412
    28  C   -0.350054
    29  C   -0.135074
    30  C   -0.130324
    31  C   -0.064054
    32  C   -0.075582
    33  C   -0.093881
    34  C   -0.115562
    35  C    0.067032
    36  C    0.136304
    37  C   -0.361082
    38  C   -0.403007
    39  C   -0.111007
    40  C   -0.126237
    41  C   -0.100759
    42  C   -0.068514
    43  H    0.104196
    44  H    0.057723
    45  H    0.033817
    46  H    0.095126
    47  H    0.031753
    48  H    0.068515
    49  H    0.121845
    50  H    0.107511
    51  H    0.113291
    52  H    0.103751
    53  H    0.076781
    54  H    0.103691
    55  H    0.109470
    56  H    0.120167
    57  H    0.074807
    58  H    0.102186
    59  H    0.114564
    60  H    0.103798
    61  H    0.104141
    62  H    0.102892
    63  H    0.106911
    64  H    0.093681
    65  H    0.083275
    66  H    0.078920
    67  H    0.124332
    68  H    0.065748
    69  H    0.108733
    70  H    0.107815
    71  H    0.100274
    72  H    0.120703
    73  H    0.322506
    74  H    0.298242
    75  H    0.095269
    76  H    0.065975
    77  H    0.077617
    78  H    0.061871
    79  H    0.055088
    80  H    0.072652
    81  H    0.145303
    82  H    0.097177
    83  H    0.086364
    84  H    0.088170
    85  H    0.088641
    86  H    0.069983
    87  H    0.085761
    88  H    0.075246
    89  H    0.131438
    90  H    0.100461
    91  H    0.141787
    92  H    0.119119
    93  H    0.130058
    94  H    0.101912
    95  H    0.081557
    96  H    0.071250
    97  H    0.085434
    98  H    0.079711
 Sum of Mulliken charges =  -0.00000

 Dipole moment (field-independent basis, Debye):
    X=              0.3023    Y=             -0.8875    Z=              1.6381  Tot=              1.8874
 Quadrupole moment (field-independent basis, Debye-Ang):
   XX=           -278.4743   YY=           -255.0643   ZZ=           -262.7114
   XY=             22.7052   XZ=              8.7094   YZ=             -1.7300

 Normal termination of Gaussian 16 at Fri Jun 28 01:39:56 2019.
