 Gaussian 16, Revision A.03,
 Gaussian 16:  ES64L-G16RevA.03 25-Dec-2016

 -------------------------------------
 # td=(NStates=1) CAM-B3LYP/6-31G(d,p)
 -------------------------------------

 --
 TD
 --
 Symbolic Z-matrix:
 Charge =  0 Multiplicity = 1

                         Standard orientation:
 ---------------------------------------------------------------------
 Center     Atomic      Atomic             Coordinates (Angstroms)
 Number     Number       Type             X           Y           Z
 ---------------------------------------------------------------------
      1          8           0       14.625256   -2.286254   -0.362019
      2          8           0      -14.645683    2.049476    0.632977
      3          6           0       11.532389   -0.889462    1.123220
      4          6           0      -12.300037   -0.909712    0.753139
      5          6           0       12.944531   -1.234022    0.924644
      6          6           0      -13.673954   -0.168485    0.712660
      7          6           0       13.322290   -2.053949   -0.233970
      8          6           0      -13.416120    1.303950    0.633381
      9          6           0       10.924681   -0.306182   -0.079244
     10          6           0      -11.351330   -0.310314   -0.332987
     11          6           0       12.932455   -1.087312   -1.392955
     12          6           0      -12.656613    1.734862   -0.641573
     13          6           0       11.575508   -0.338369   -1.251734
     14          6           0      -11.464971    0.879362   -0.954744
     15          6           0       11.376572   -0.085508    2.412611
     16          6           0       10.675193   -2.243799    1.463030
     17          6           0      -11.621590   -0.693162    2.119468
     18          6           0      -12.579333   -2.355614    0.507299
     19          6           0        9.583654    0.376924    0.069590
     20          6           0      -10.132174   -1.141597   -0.386573
     21          6           0       11.053806    0.161440   -2.542954
     22          6           0      -10.696348    1.433818   -2.040788
     23          6           0        9.408038    1.688504   -0.286165
     24          6           0       -8.907320   -0.628232   -0.309748
     25          6           0        8.083026    2.221366   -0.034267
     26          6           0       -7.612834   -1.359054   -0.469035
     27          6           0        8.172733    3.753396    0.127371
     28          6           0       -7.632967   -2.848823   -0.858935
     29          6           0        6.929853    1.569874   -0.044305
     30          6           0       -6.408920   -0.695803   -0.361879
     31          6           0        5.511607    2.026099    0.078063
     32          6           0       -5.113472   -1.184066   -0.432373
     33          6           0        4.415755    1.299103    0.082794
     34          6           0       -4.022121   -0.325799   -0.109129
     35          6           0        3.113462    1.686954    0.176124
     36          6           0       -2.670626   -0.837836   -0.237493
     37          6           0        2.834198    3.154225    0.682848
     38          6           0       -2.369316   -2.236124   -0.626760
     39          6           0        2.069141    0.841611    0.123160
     40          6           0       -1.702585    0.165900    0.125472
     41          6           0        0.612338    0.943546    0.264926
     42          6           0       -0.215967   -0.108354    0.105458
     43          1           0       13.607246   -0.502057    1.172288
     44          1           0       13.216022   -1.975984    1.691638
     45          1           0      -14.328557   -0.644647    1.579678
     46          1           0      -13.999336   -0.585573   -0.284028
     47          1           0       12.775069   -2.846204   -0.345371
     48          1           0      -12.758661    1.696250    1.578152
     49          1           0       13.677489   -0.272378   -1.485426
     50          1           0       12.976047   -1.461886   -2.393912
     51          1           0      -13.364874    1.683596   -1.517524
     52          1           0      -12.277716    2.790464   -0.507552
     53          1           0       11.527966   -0.678125    3.261224
     54          1           0       10.244877    0.074898    2.553019
     55          1           0       11.815048    0.816207    2.329670
     56          1           0       10.781503   -3.176833    0.915687
     57          1           0       11.005153   -2.636674    2.521064
     58          1           0        9.534614   -2.108853    1.529925
     59          1           0      -11.333834    0.400592    2.246941
     60          1           0      -10.657835   -1.228655    2.214713
     61          1           0      -12.353407   -0.970893    2.834567
     62          1           0      -13.298970   -2.784610    1.214715
     63          1           0      -11.628775   -2.926426    0.536536
     64          1           0      -12.928448   -2.769629   -0.585145
     65          1           0        8.748001   -0.073853    0.508118
     66          1           0      -10.378828   -2.246155   -0.397809
     67          1           0        9.946460    0.280773   -2.488113
     68          1           0       11.517228    1.172615   -2.758076
     69          1           0       11.270389   -0.507969   -3.098470
     70          1           0      -11.561546    1.805653   -2.761410
     71          1           0      -10.030291    0.749878   -2.497270
     72          1           0      -10.228552    2.352653   -1.831164
     73          1           0       14.922608   -2.809498    0.238090
     74          1           0      -14.945991    2.029254    1.554749
     75          1           0       10.292499    2.394215   -0.571522
     76          1           0       -8.795778    0.485095   -0.149035
     77          1           0        8.932482    3.992545   -0.602747
     78          1           0        7.278210    4.369166    0.076041
     79          1           0        8.808324    3.921806    0.969246
     80          1           0       -8.233592   -3.654660   -0.142503
     81          1           0       -8.269790   -2.915437   -1.719043
     82          1           0       -6.660412   -3.366591   -0.984994
     83          1           0        6.952504    0.397897   -0.056534
     84          1           0       -6.605563    0.462550   -0.107007
     85          1           0        5.425212    2.985719    0.453426
     86          1           0       -4.945185   -2.155167   -0.765099
     87          1           0        4.540449    0.160726   -0.321658
     88          1           0       -4.076900    0.637154    0.195568
     89          1           0        3.301201    3.392932    1.568132
     90          1           0        1.719786    3.329715    0.948510
     91          1           0        2.962776    3.935424   -0.066552
     92          1           0       -2.898326   -3.060259    0.070258
     93          1           0       -3.067343   -2.673395   -1.548548
     94          1           0       -1.429926   -2.452435   -0.598188
     95          1           0        2.245795   -0.150931   -0.077607
     96          1           0       -2.152365    1.149917    0.313342
     97          1           0        0.099001    1.935752    0.331370
     98          1           0        0.114454   -1.069580   -0.057905
 ---------------------------------------------------------------------

 SCF Done:  E(RCAM-B3LYP) =  -1706.98687914     A.U. after   14 cycles

 Excitation energies and oscillator strengths:

 Excited State   1:      Singlet-A      2.6712 eV  464.15 nm  f=3.5967  <S**2>=0.000
     155 ->158         0.16738
     156 ->157         0.68299
 This state for optimization and/or second-order correction.
 Total Energy, E(TD-HF/TD-DFT) =  -1706.88871448
 Copying the excited state density for this state as the 1-particle RhoCI density.

 The electronic state is 1-A.
 Alpha  occ. eigenvalues --  -19.20714 -19.20495 -10.31336 -10.28651 -10.27968
 Alpha  occ. eigenvalues --  -10.27704 -10.27519 -10.27152 -10.27145 -10.27083
 Alpha  occ. eigenvalues --  -10.26867 -10.26844 -10.26825 -10.26787 -10.26738
 Alpha  occ. eigenvalues --  -10.26636 -10.26460 -10.26303 -10.26200 -10.26065
 Alpha  occ. eigenvalues --  -10.26013 -10.25905 -10.25903 -10.25886 -10.25797
 Alpha  occ. eigenvalues --  -10.25741 -10.25715 -10.25606 -10.25584 -10.25557
 Alpha  occ. eigenvalues --  -10.25428 -10.25409 -10.25252 -10.25136 -10.24838
 Alpha  occ. eigenvalues --  -10.24814 -10.24632 -10.24393 -10.24209 -10.23489
 Alpha  occ. eigenvalues --  -10.23033 -10.22738  -1.15233  -1.08495  -0.94319
 Alpha  occ. eigenvalues --   -0.93733  -0.92059  -0.91297  -0.90575  -0.89320
 Alpha  occ. eigenvalues --   -0.87990  -0.87407  -0.87129  -0.85427  -0.84988
 Alpha  occ. eigenvalues --   -0.83023  -0.81821  -0.80815  -0.79837  -0.78011
 Alpha  occ. eigenvalues --   -0.77070  -0.76493  -0.76235  -0.76100  -0.76071
 Alpha  occ. eigenvalues --   -0.75747  -0.74982  -0.74809  -0.73794  -0.71001
 Alpha  occ. eigenvalues --   -0.69973  -0.67716  -0.66199  -0.65252  -0.64788
 Alpha  occ. eigenvalues --   -0.64069  -0.63110  -0.62508  -0.61756  -0.61272
 Alpha  occ. eigenvalues --   -0.59636  -0.58752  -0.57925  -0.57568  -0.56458
 Alpha  occ. eigenvalues --   -0.56008  -0.55292  -0.54932  -0.54626  -0.53983
 Alpha  occ. eigenvalues --   -0.53204  -0.52974  -0.52774  -0.51927  -0.51612
 Alpha  occ. eigenvalues --   -0.51103  -0.50681  -0.50448  -0.49597  -0.48995
 Alpha  occ. eigenvalues --   -0.48876  -0.48755  -0.48421  -0.48320  -0.47868
 Alpha  occ. eigenvalues --   -0.47679  -0.47191  -0.47068  -0.46961  -0.46772
 Alpha  occ. eigenvalues --   -0.46533  -0.45961  -0.45508  -0.45395  -0.44983
 Alpha  occ. eigenvalues --   -0.44697  -0.44150  -0.43835  -0.43708  -0.43345
 Alpha  occ. eigenvalues --   -0.42871  -0.42797  -0.42621  -0.42337  -0.42295
 Alpha  occ. eigenvalues --   -0.42183  -0.41858  -0.41619  -0.40856  -0.40658
 Alpha  occ. eigenvalues --   -0.40376  -0.40176  -0.40068  -0.39682  -0.39531
 Alpha  occ. eigenvalues --   -0.39149  -0.39084  -0.38586  -0.38246  -0.37908
 Alpha  occ. eigenvalues --   -0.37875  -0.37621  -0.36561  -0.35819  -0.35531
 Alpha  occ. eigenvalues --   -0.35110  -0.34240  -0.33934  -0.32709  -0.31704
 Alpha  occ. eigenvalues --   -0.31553  -0.29442  -0.27741  -0.26499  -0.23736
 Alpha  occ. eigenvalues --   -0.20428
 Alpha virt. eigenvalues --   -0.04332  -0.00204   0.03208   0.05866   0.08349
 Alpha virt. eigenvalues --    0.09334   0.11450   0.11838   0.12112   0.12443
 Alpha virt. eigenvalues --    0.12665   0.13171   0.13311   0.13619   0.14335

 Mulliken charges:
               1
     1  O   -0.506829
     2  O   -0.561119
     3  C   -0.017101
     4  C   -0.023974
     5  C   -0.190576
     6  C   -0.171847
     7  C    0.206429
     8  C    0.164489
     9  C    0.087598
    10  C    0.044924
    11  C   -0.240132
    12  C   -0.227789
    13  C    0.005712
    14  C    0.072154
    15  C   -0.290470
    16  C   -0.328747
    17  C   -0.286767
    18  C   -0.309006
    19  C   -0.126617
    20  C   -0.140459
    21  C   -0.320173
    22  C   -0.355038
    23  C   -0.102928
    24  C   -0.100356
    25  C    0.104481
    26  C    0.107377
    27  C   -0.381428
    28  C   -0.370177
    29  C   -0.139260
    30  C   -0.120398
    31  C   -0.082195
    32  C   -0.086501
    33  C   -0.109223
    34  C   -0.094833
    35  C    0.140865
    36  C    0.138475
    37  C   -0.386273
    38  C   -0.359503
    39  C   -0.138174
    40  C   -0.158788
    41  C   -0.069428
    42  C   -0.079867
    43  H    0.106443
    44  H    0.058731
    45  H    0.074367
    46  H    0.106225
    47  H    0.079063
    48  H    0.055453
    49  H    0.111069
    50  H    0.091755
    51  H    0.119031
    52  H    0.106187
    53  H    0.110452
    54  H    0.088526
    55  H    0.108223
    56  H    0.104722
    57  H    0.076934
    58  H    0.096580
    59  H    0.099722
    60  H    0.111849
    61  H    0.097208
    62  H    0.102988
    63  H    0.099549
    64  H    0.086061
    65  H    0.101254
    66  H    0.083951
    67  H    0.115713
    68  H    0.104902
    69  H    0.109237
    70  H    0.090188
    71  H    0.124447
    72  H    0.121783
    73  H    0.276947
    74  H    0.303502
    75  H    0.097953
    76  H    0.085795
    77  H    0.114275
    78  H    0.116752
    79  H    0.126227
    80  H    0.082493
    81  H    0.130066
    82  H    0.108758
    83  H    0.060564
    84  H    0.064309
    85  H    0.077312
    86  H    0.075932
    87  H    0.059517
    88  H    0.080891
    89  H    0.132523
    90  H    0.092008
    91  H    0.118304
    92  H    0.105481
    93  H    0.107343
    94  H    0.112157
    95  H    0.067806
    96  H    0.091889
    97  H    0.082014
    98  H    0.090046
 Sum of Mulliken charges =  -0.00000

 Dipole moment (field-independent basis, Debye):
    X=              1.7806    Y=             -1.4311    Z=              2.1237  Tot=              3.1191
 Quadrupole moment (field-independent basis, Debye-Ang):
   XX=           -264.7811   YY=           -240.8137   ZZ=           -262.2462
   XY=              5.4697   XZ=             -0.4288   YZ=              2.2791

 Normal termination of Gaussian 16 at Wed Jul 10 16:59:46 2019.
