 Gaussian 16, Revision A.03,
 Gaussian 16:  ES64L-G16RevA.03 25-Dec-2016

 -------------------------------------
 # td=(NStates=1) CAM-B3LYP/6-31G(d,p)
 -------------------------------------

 --
 TD
 --
 Symbolic Z-matrix:
 Charge =  0 Multiplicity = 1

                         Standard orientation:
 ---------------------------------------------------------------------
 Center     Atomic      Atomic             Coordinates (Angstroms)
 Number     Number       Type             X           Y           Z
 ---------------------------------------------------------------------
      1          8           0       14.783395   -2.042317   -0.316872
      2          8           0      -14.792905    2.033939    0.722534
      3          6           0       11.380714   -1.077235    1.225854
      4          6           0      -12.298204   -0.886198    0.679382
      5          6           0       12.833183   -1.429423    1.039919
      6          6           0      -13.602765   -0.066793    0.719948
      7          6           0       13.359296   -2.000856   -0.315223
      8          6           0      -13.529492    1.401790    0.677713
      9          6           0       10.803753   -0.312346   -0.033634
     10          6           0      -11.247118   -0.218227   -0.212101
     11          6           0       13.055468   -0.940223   -1.348874
     12          6           0      -12.702067    1.760880   -0.577915
     13          6           0       11.616355   -0.287179   -1.166247
     14          6           0      -11.445077    0.986965   -0.777910
     15          6           0       11.091262   -0.247495    2.525383
     16          6           0       10.628790   -2.461270    1.252061
     17          6           0      -11.726697   -0.978688    2.252113
     18          6           0      -12.572166   -2.430302    0.359385
     19          6           0        9.541996    0.296278    0.161003
     20          6           0      -10.035394   -1.064803   -0.397260
     21          6           0       11.249525    0.500736   -2.403400
     22          6           0      -10.593945    1.555218   -1.875997
     23          6           0        9.274853    1.682992   -0.031180
     24          6           0       -8.839777   -0.600610   -0.179664
     25          6           0        7.990325    2.274943    0.053666
     26          6           0       -7.571041   -1.321639   -0.494937
     27          6           0        8.119300    3.763952    0.412312
     28          6           0       -7.639925   -2.795619   -0.918121
     29          6           0        6.780771    1.590087   -0.163325
     30          6           0       -6.392148   -0.751067   -0.246262
     31          6           0        5.503219    2.036082    0.082396
     32          6           0       -5.093428   -1.223240   -0.385893
     33          6           0        4.366710    1.180046    0.010861
     34          6           0       -3.922348   -0.495647   -0.194822
     35          6           0        3.091561    1.654055    0.170390
     36          6           0       -2.569457   -0.881426   -0.321537
     37          6           0        2.837502    3.114315    0.668344
     38          6           0       -2.303187   -2.301176   -0.806213
     39          6           0        2.075744    0.799777   -0.087582
     40          6           0       -1.626486    0.086507   -0.170016
     41          6           0        0.733058    0.931435   -0.029807
     42          6           0       -0.223591   -0.078881   -0.409003
     43          1           0       13.438072   -0.461725    1.327504
     44          1           0       13.022846   -2.158808    1.686480
     45          1           0      -14.228222   -0.326392    1.509006
     46          1           0      -14.079591   -0.307949   -0.188281
     47          1           0       12.897581   -2.976675   -0.541694
     48          1           0      -12.879560    1.706129    1.480449
     49          1           0       13.851875   -0.096024   -1.389026
     50          1           0       12.963580   -1.319536   -2.339394
     51          1           0      -13.454782    1.681225   -1.488326
     52          1           0      -12.495260    2.952456   -0.504620
     53          1           0       11.619953   -0.531391    3.413418
     54          1           0        9.949326   -0.029466    2.598902
     55          1           0       11.538310    0.758265    2.309503
     56          1           0       10.581028   -2.921471    0.350170
     57          1           0       11.168702   -3.085481    2.098837
     58          1           0        9.457335   -2.383950    1.633156
     59          1           0      -11.633820   -0.053223    2.671172
     60          1           0      -10.504272   -1.620329    2.343126
     61          1           0      -12.389936   -1.741173    2.846430
     62          1           0      -13.410604   -2.866490    0.986052
     63          1           0      -11.664566   -3.149012    0.594896
     64          1           0      -12.979876   -2.696266   -0.637489
     65          1           0        8.705468   -0.248291    0.529305
     66          1           0      -10.102727   -2.052657   -0.648255
     67          1           0       10.089302    0.894154   -2.482749
     68          1           0       11.726431    1.439309   -2.512517
     69          1           0       11.365892   -0.184262   -3.192163
     70          1           0      -11.335892    1.934216   -2.558705
     71          1           0      -10.034552    0.849366   -2.518994
     72          1           0       -9.799022    2.455851   -1.405559
     73          1           0       14.975383   -2.201137    0.803334
     74          1           0      -15.176927    1.901428    1.563382
     75          1           0       10.134551    2.304787   -0.354146
     76          1           0       -8.780227    0.611988    0.148367
     77          1           0        8.933174    4.063484   -0.086389
     78          1           0        7.034471    4.232785    0.277115
     79          1           0        8.361672    3.774565    1.585796
     80          1           0       -7.986268   -3.268806   -0.192127
     81          1           0       -8.218252   -2.840641   -1.808909
     82          1           0       -6.633553   -3.132698   -1.228129
     83          1           0        6.955131    0.532150   -0.460827
     84          1           0       -6.418372    0.304560    0.045056
     85          1           0        5.494290    3.133242    0.153152
     86          1           0       -4.876357   -2.388613   -0.697187
     87          1           0        4.524042    0.402691   -0.487778
     88          1           0       -4.296117    0.559101    0.128410
     89          1           0        3.282235    3.236612    1.621464
     90          1           0        1.739115    3.304860    0.892383
     91          1           0        3.021774    3.853624   -0.044440
     92          1           0       -3.081773   -3.092260   -0.394561
     93          1           0       -2.492576   -2.266405   -1.956804
     94          1           0       -1.346305   -2.714972   -0.765502
     95          1           0        2.582641   -0.244019   -0.370088
     96          1           0       -1.992211    0.965444    0.339778
     97          1           0        0.191296    1.845183    0.561118
     98          1           0        0.367781   -0.864627   -0.951226
 ---------------------------------------------------------------------

 SCF Done:  E(RCAM-B3LYP) =  -1706.93724597     A.U. after   15 cycles

 Excitation energies and oscillator strengths:

 Excited State   1:      Singlet-A      2.0994 eV  590.56 nm  f=3.6066  <S**2>=0.000
     155 ->158         0.13970
     156 ->157         0.69509
 This state for optimization and/or second-order correction.
 Total Energy, E(TD-HF/TD-DFT) =  -1706.86009335
 Copying the excited state density for this state as the 1-particle RhoCI density.

 The electronic state is 1-A.
 Alpha  occ. eigenvalues --  -19.22813 -19.21549 -10.31033 -10.29878 -10.28997
 Alpha  occ. eigenvalues --  -10.28070 -10.27598 -10.27541 -10.27371 -10.27300
 Alpha  occ. eigenvalues --  -10.27241 -10.27152 -10.26940 -10.26892 -10.26781
 Alpha  occ. eigenvalues --  -10.26762 -10.26712 -10.26706 -10.26629 -10.26599
 Alpha  occ. eigenvalues --  -10.26592 -10.26574 -10.26569 -10.26532 -10.26496
 Alpha  occ. eigenvalues --  -10.26316 -10.26310 -10.26239 -10.26160 -10.26112
 Alpha  occ. eigenvalues --  -10.26092 -10.26006 -10.25935 -10.25759 -10.25473
 Alpha  occ. eigenvalues --  -10.25108 -10.25049 -10.24943 -10.24549 -10.24394
 Alpha  occ. eigenvalues --  -10.23524 -10.23468  -1.10618  -1.07762  -0.93352
 Alpha  occ. eigenvalues --   -0.93031  -0.92457  -0.91595  -0.90580  -0.90104
 Alpha  occ. eigenvalues --   -0.87050  -0.86457  -0.86099  -0.85648  -0.84616
 Alpha  occ. eigenvalues --   -0.83304  -0.82102  -0.80419  -0.79515  -0.78335
 Alpha  occ. eigenvalues --   -0.77368  -0.76670  -0.76255  -0.75867  -0.75385
 Alpha  occ. eigenvalues --   -0.75135  -0.74883  -0.73843  -0.73519  -0.70608
 Alpha  occ. eigenvalues --   -0.68971  -0.67443  -0.65985  -0.65250  -0.64312
 Alpha  occ. eigenvalues --   -0.63452  -0.62985  -0.61378  -0.60290  -0.59649
 Alpha  occ. eigenvalues --   -0.59099  -0.58910  -0.57304  -0.57189  -0.56191
 Alpha  occ. eigenvalues --   -0.55727  -0.55404  -0.55036  -0.54441  -0.54134
 Alpha  occ. eigenvalues --   -0.53050  -0.52552  -0.51710  -0.51591  -0.51466
 Alpha  occ. eigenvalues --   -0.50652  -0.50348  -0.50227  -0.50059  -0.49511
 Alpha  occ. eigenvalues --   -0.49384  -0.48701  -0.48288  -0.48038  -0.47636
 Alpha  occ. eigenvalues --   -0.47421  -0.47370  -0.46722  -0.46570  -0.46100
 Alpha  occ. eigenvalues --   -0.45825  -0.45489  -0.45021  -0.44685  -0.44473
 Alpha  occ. eigenvalues --   -0.44156  -0.44147  -0.43763  -0.43663  -0.43452
 Alpha  occ. eigenvalues --   -0.42881  -0.42814  -0.42603  -0.42295  -0.41983
 Alpha  occ. eigenvalues --   -0.41791  -0.41592  -0.40930  -0.40709  -0.40575
 Alpha  occ. eigenvalues --   -0.40392  -0.40320  -0.40198  -0.39356  -0.39073
 Alpha  occ. eigenvalues --   -0.38920  -0.38605  -0.38179  -0.37820  -0.37809
 Alpha  occ. eigenvalues --   -0.37790  -0.37328  -0.37081  -0.36380  -0.36132
 Alpha  occ. eigenvalues --   -0.35438  -0.35214  -0.33626  -0.32960  -0.32733
 Alpha  occ. eigenvalues --   -0.31628  -0.29446  -0.28091  -0.26769  -0.23694
 Alpha  occ. eigenvalues --   -0.18855
 Alpha virt. eigenvalues --   -0.06062  -0.00856   0.02781   0.05614   0.07465
 Alpha virt. eigenvalues --    0.08607   0.09472   0.11212   0.11615   0.11838
 Alpha virt. eigenvalues --    0.12200   0.12277   0.12921   0.13261   0.13581

 Mulliken charges:
               1
     1  O   -0.555164
     2  O   -0.551658
     3  C   -0.006448
     4  C   -0.007340
     5  C   -0.216746
     6  C   -0.178133
     7  C    0.188456
     8  C    0.165936
     9  C    0.064994
    10  C    0.063089
    11  C   -0.193991
    12  C   -0.239483
    13  C    0.003315
    14  C    0.063220
    15  C   -0.310930
    16  C   -0.290857
    17  C   -0.279084
    18  C   -0.318318
    19  C   -0.135026
    20  C   -0.121501
    21  C   -0.356983
    22  C   -0.334485
    23  C   -0.112054
    24  C   -0.067564
    25  C    0.063411
    26  C    0.060364
    27  C   -0.340417
    28  C   -0.355143
    29  C   -0.106703
    30  C   -0.112042
    31  C   -0.088886
    32  C   -0.077756
    33  C   -0.116727
    34  C   -0.126066
    35  C    0.140539
    36  C    0.128556
    37  C   -0.374490
    38  C   -0.370333
    39  C   -0.132951
    40  C   -0.130057
    41  C   -0.095200
    42  C   -0.094061
    43  H    0.088915
    44  H    0.089262
    45  H    0.078143
    46  H    0.106326
    47  H    0.091116
    48  H    0.077170
    49  H    0.123162
    50  H    0.108468
    51  H    0.104342
    52  H    0.089118
    53  H    0.106912
    54  H    0.108901
    55  H    0.101526
    56  H    0.121551
    57  H    0.080175
    58  H    0.071529
    59  H    0.113302
    60  H    0.045701
    61  H    0.093355
    62  H    0.098307
    63  H    0.097452
    64  H    0.102094
    65  H    0.099846
    66  H    0.087756
    67  H    0.090582
    68  H    0.126158
    69  H    0.113267
    70  H    0.115943
    71  H    0.120465
    72  H    0.079519
    73  H    0.296937
    74  H    0.307119
    75  H    0.088268
    76  H    0.067307
    77  H    0.128982
    78  H    0.096528
    79  H    0.111808
    80  H    0.135968
    81  H    0.118963
    82  H    0.107514
    83  H    0.074615
    84  H    0.072396
    85  H    0.083671
    86  H    0.055728
    87  H    0.075699
    88  H    0.071861
    89  H    0.129520
    90  H    0.097178
    91  H    0.131332
    92  H    0.108023
    93  H    0.115849
    94  H    0.122869
    95  H    0.067291
    96  H    0.093895
    97  H    0.074559
    98  H    0.090473
 Sum of Mulliken charges =  -0.00000

 Dipole moment (field-independent basis, Debye):
    X=              0.7944    Y=             -0.6752    Z=              1.8298  Tot=              2.1060
 Quadrupole moment (field-independent basis, Debye-Ang):
   XX=           -259.7589   YY=           -249.8388   ZZ=           -258.3535
   XY=             19.6595   XZ=              3.3882   YZ=              3.7007

 Normal termination of Gaussian 16 at Tue Jul  9 04:41:45 2019.
