 Gaussian 16, Revision A.03,
 Gaussian 16:  ES64L-G16RevA.03 25-Dec-2016

 -------------------------------------
 # td=(NStates=1) CAM-B3LYP/6-31G(d,p)
 -------------------------------------

 --
 TD
 --
 Symbolic Z-matrix:
 Charge =  0 Multiplicity = 1

                         Standard orientation:
 ---------------------------------------------------------------------
 Center     Atomic      Atomic             Coordinates (Angstroms)
 Number     Number       Type             X           Y           Z
 ---------------------------------------------------------------------
      1          8           0       14.538238   -2.340912   -0.177255
      2          8           0      -14.813548    1.924750    0.919290
      3          6           0       11.307292   -1.125836    1.227040
      4          6           0      -12.250088   -1.018860    0.769604
      5          6           0       12.793556   -1.554654    1.147101
      6          6           0      -13.685297   -0.258580    0.881209
      7          6           0       13.190958   -1.867521   -0.207397
      8          6           0      -13.516657    1.229514    0.850018
      9          6           0       10.884008   -0.254025   -0.044050
     10          6           0      -11.308589   -0.228007   -0.182808
     11          6           0       13.062185   -0.776747   -1.226349
     12          6           0      -12.908622    1.742624   -0.388816
     13          6           0       11.764457   -0.224298   -1.143696
     14          6           0      -11.637648    0.988537   -0.653350
     15          6           0       11.028706   -0.481873    2.663934
     16          6           0       10.517771   -2.480698    1.219611
     17          6           0      -11.692989   -1.072269    2.228814
     18          6           0      -12.533331   -2.478935    0.385644
     19          6           0        9.513831    0.334233    0.132883
     20          6           0      -10.076121   -1.036507   -0.449337
     21          6           0       11.357089    0.569115   -2.368673
     22          6           0      -10.620132    1.660931   -1.611189
     23          6           0        9.339287    1.641297   -0.154019
     24          6           0       -8.804896   -0.543003   -0.369852
     25          6           0        8.111731    2.314865    0.030522
     26          6           0       -7.580684   -1.262106   -0.644369
     27          6           0        8.157292    3.762506    0.650834
     28          6           0       -7.672488   -2.751655   -1.053890
     29          6           0        6.925175    1.696094   -0.202569
     30          6           0       -6.391874   -0.579643   -0.422318
     31          6           0        5.520163    2.066242    0.128636
     32          6           0       -5.102318   -1.094293   -0.675105
     33          6           0        4.528306    1.299070   -0.218881
     34          6           0       -3.912030   -0.276447   -0.420832
     35          6           0        3.120540    1.612978    0.022498
     36          6           0       -2.540335   -0.711972   -0.562051
     37          6           0        2.880686    3.020325    0.551461
     38          6           0       -2.335723   -2.081070   -1.122377
     39          6           0        2.172725    0.702355   -0.218104
     40          6           0       -1.500893    0.172059   -0.189829
     41          6           0        0.756649    0.884540   -0.024383
     42          6           0       -0.116181   -0.024472   -0.353894
     43          1           0       13.509012   -0.651458    1.655571
     44          1           0       12.990484   -2.303310    1.809731
     45          1           0      -14.233419   -0.615325    1.867896
     46          1           0      -14.320488   -0.415905    0.166538
     47          1           0       12.701823   -2.723708   -0.610764
     48          1           0      -13.084810    1.485056    1.848626
     49          1           0       13.866300   -0.076757   -0.938283
     50          1           0       13.308081   -1.246339   -2.248196
     51          1           0      -13.784971    1.755328   -1.246788
     52          1           0      -12.804006    2.719102   -0.345134
     53          1           0       11.327136   -1.114813    3.547144
     54          1           0       10.024698   -0.118294    2.710184
     55          1           0       11.677530    0.460920    2.833526
     56          1           0       10.352738   -3.009337    0.325232
     57          1           0       10.953465   -3.397057    1.994223
     58          1           0        9.451341   -2.445359    1.668606
     59          1           0      -11.456893    0.094833    2.563226
     60          1           0      -10.797905   -1.597295    2.317234
     61          1           0      -12.372380   -1.644935    2.912777
     62          1           0      -13.428083   -2.844925    0.787160
     63          1           0      -11.643847   -3.095275    0.438483
     64          1           0      -12.680676   -2.583177   -0.757613
     65          1           0        8.895231   -0.315733    0.171268
     66          1           0      -10.232866   -2.175695   -0.929873
     67          1           0       10.311097    0.919494   -2.218683
     68          1           0       12.061542    1.450389   -2.377949
     69          1           0       11.580264   -0.110704   -3.258492
     70          1           0      -11.157373    2.003097   -2.448280
     71          1           0       -9.729515    1.067326   -1.936239
     72          1           0      -10.211760    2.614492   -1.269509
     73          1           0       14.417641   -3.171866    0.557917
     74          1           0      -15.397940    1.649353    1.682959
     75          1           0       10.242833    2.316544   -0.433129
     76          1           0       -8.655960    0.478674    0.039719
     77          1           0        9.071947    4.219246    0.217068
     78          1           0        7.336415    4.224675    0.390903
     79          1           0        8.418106    3.629124    1.751433
     80          1           0       -8.276717   -3.267846   -0.353459
     81          1           0       -8.154191   -2.800898   -2.112537
     82          1           0       -6.662222   -3.279400   -1.249860
     83          1           0        7.128202    0.681952   -0.691465
     84          1           0       -6.622179    0.423248    0.001055
     85          1           0        5.456724    3.070752    0.654324
     86          1           0       -5.100564   -2.248738   -0.805345
     87          1           0        4.888270    0.416725   -0.593304
     88          1           0       -3.850838    0.848329   -0.075888
     89          1           0        3.169402    3.083595    1.614480
     90          1           0        1.922595    3.295885    0.518596
     91          1           0        3.360613    3.826384    0.104884
     92          1           0       -3.235207   -2.617091   -0.382926
     93          1           0       -2.930094   -2.022705   -1.950532
     94          1           0       -1.389167   -2.448293   -1.160761
     95          1           0        2.563264   -0.139118   -0.686695
     96          1           0       -1.863460    1.077151    0.155612
     97          1           0        0.720304    1.913378    0.526933
     98          1           0        0.099881   -0.997288   -0.577908
 ---------------------------------------------------------------------

 SCF Done:  E(RCAM-B3LYP) =  -1706.94537962     A.U. after   14 cycles

 Excitation energies and oscillator strengths:

 Excited State   1:      Singlet-A      2.6409 eV  469.47 nm  f=3.6226  <S**2>=0.000
     155 ->158        -0.15615
     156 ->157         0.68647
 This state for optimization and/or second-order correction.
 Total Energy, E(TD-HF/TD-DFT) =  -1706.84832662
 Copying the excited state density for this state as the 1-particle RhoCI density.

 The electronic state is 1-A.
 Alpha  occ. eigenvalues --  -19.21045 -19.19881 -10.29812 -10.28631 -10.28569
 Alpha  occ. eigenvalues --  -10.28476 -10.28470 -10.27889 -10.27737 -10.27596
 Alpha  occ. eigenvalues --  -10.27543 -10.27319 -10.27208 -10.27075 -10.27028
 Alpha  occ. eigenvalues --  -10.26937 -10.26810 -10.26718 -10.26669 -10.26564
 Alpha  occ. eigenvalues --  -10.26508 -10.26496 -10.26479 -10.26393 -10.26229
 Alpha  occ. eigenvalues --  -10.25681 -10.25618 -10.25525 -10.25483 -10.25465
 Alpha  occ. eigenvalues --  -10.25347 -10.25330 -10.25313 -10.25286 -10.25126
 Alpha  occ. eigenvalues --  -10.25104 -10.25083 -10.25068 -10.24521 -10.24392
 Alpha  occ. eigenvalues --  -10.24202 -10.24151  -1.07254  -1.06364  -0.93250
 Alpha  occ. eigenvalues --   -0.92876  -0.92773  -0.91645  -0.90818  -0.90225
 Alpha  occ. eigenvalues --   -0.88078  -0.86965  -0.86471  -0.85678  -0.84981
 Alpha  occ. eigenvalues --   -0.83537  -0.82162  -0.80126  -0.79728  -0.79040
 Alpha  occ. eigenvalues --   -0.77074  -0.76495  -0.76452  -0.76081  -0.76039
 Alpha  occ. eigenvalues --   -0.75404  -0.75129  -0.74730  -0.73878  -0.71068
 Alpha  occ. eigenvalues --   -0.69537  -0.67153  -0.65539  -0.65411  -0.64483
 Alpha  occ. eigenvalues --   -0.63415  -0.62987  -0.62207  -0.61472  -0.59484
 Alpha  occ. eigenvalues --   -0.59100  -0.58478  -0.58061  -0.57988  -0.57305
 Alpha  occ. eigenvalues --   -0.55884  -0.55271  -0.55115  -0.54258  -0.53996
 Alpha  occ. eigenvalues --   -0.53627  -0.52710  -0.51732  -0.51503  -0.51364
 Alpha  occ. eigenvalues --   -0.50365  -0.50080  -0.49794  -0.49632  -0.48970
 Alpha  occ. eigenvalues --   -0.48743  -0.48553  -0.48411  -0.48257  -0.48060
 Alpha  occ. eigenvalues --   -0.47867  -0.47567  -0.47281  -0.46914  -0.46422
 Alpha  occ. eigenvalues --   -0.46219  -0.45802  -0.45473  -0.45410  -0.45064
 Alpha  occ. eigenvalues --   -0.45006  -0.44882  -0.44045  -0.43948  -0.43590
 Alpha  occ. eigenvalues --   -0.43414  -0.43223  -0.43070  -0.42466  -0.42070
 Alpha  occ. eigenvalues --   -0.41768  -0.41497  -0.41266  -0.41195  -0.40697
 Alpha  occ. eigenvalues --   -0.40352  -0.40241  -0.39997  -0.39723  -0.39509
 Alpha  occ. eigenvalues --   -0.39289  -0.39171  -0.38477  -0.38321  -0.38090
 Alpha  occ. eigenvalues --   -0.37700  -0.37213  -0.36479  -0.35969  -0.35787
 Alpha  occ. eigenvalues --   -0.35144  -0.34428  -0.33666  -0.32060  -0.31356
 Alpha  occ. eigenvalues --   -0.31132  -0.29558  -0.28238  -0.26745  -0.24333
 Alpha  occ. eigenvalues --   -0.20701
 Alpha virt. eigenvalues --   -0.04849  -0.00659   0.02727   0.05622   0.07190
 Alpha virt. eigenvalues --    0.08177   0.09598   0.10415   0.11553   0.12108
 Alpha virt. eigenvalues --    0.12457   0.13022   0.13140   0.13448   0.13705

 Mulliken charges:
               1
     1  O   -0.577613
     2  O   -0.600361
     3  C   -0.003845
     4  C   -0.015564
     5  C   -0.162497
     6  C   -0.174088
     7  C    0.173170
     8  C    0.164936
     9  C   -0.005423
    10  C    0.050017
    11  C   -0.223969
    12  C   -0.198262
    13  C    0.067968
    14  C    0.057391
    15  C   -0.310063
    16  C   -0.303653
    17  C   -0.283535
    18  C   -0.313909
    19  C   -0.037894
    20  C   -0.147621
    21  C   -0.349038
    22  C   -0.379262
    23  C   -0.127549
    24  C   -0.101438
    25  C    0.054700
    26  C    0.107077
    27  C   -0.343396
    28  C   -0.372430
    29  C   -0.134816
    30  C   -0.101991
    31  C   -0.072656
    32  C   -0.142661
    33  C   -0.093807
    34  C   -0.115916
    35  C    0.090026
    36  C    0.096852
    37  C   -0.381884
    38  C   -0.347197
    39  C   -0.110338
    40  C   -0.124690
    41  C   -0.067578
    42  C   -0.071707
    43  H    0.063798
    44  H    0.086148
    45  H    0.059270
    46  H    0.104621
    47  H    0.088654
    48  H    0.084880
    49  H    0.127887
    50  H    0.106506
    51  H    0.106213
    52  H    0.128193
    53  H    0.101792
    54  H    0.111763
    55  H    0.088158
    56  H    0.117225
    57  H    0.055042
    58  H    0.090138
    59  H    0.075123
    60  H    0.112903
    61  H    0.095666
    62  H    0.113134
    63  H    0.103247
    64  H    0.086802
    65  H    0.080817
    66  H    0.085642
    67  H    0.116102
    68  H    0.108469
    69  H    0.098426
    70  H    0.110936
    71  H    0.122861
    72  H    0.105579
    73  H    0.293634
    74  H    0.299362
    75  H    0.095175
    76  H    0.096832
    77  H    0.106034
    78  H    0.122406
    79  H    0.122843
    80  H    0.134333
    81  H    0.114323
    82  H    0.100462
    83  H    0.066186
    84  H    0.083150
    85  H    0.082403
    86  H    0.096608
    87  H    0.079524
    88  H    0.089059
    89  H    0.121546
    90  H    0.110832
    91  H    0.127968
    92  H    0.088331
    93  H    0.147620
    94  H    0.109941
    95  H    0.072315
    96  H    0.067247
    97  H    0.086706
    98  H    0.083682
 Sum of Mulliken charges =  -0.00000

 Dipole moment (field-independent basis, Debye):
    X=             -0.7226    Y=             -1.0728    Z=              1.4564  Tot=              1.9479
 Quadrupole moment (field-independent basis, Debye-Ang):
   XX=           -307.3325   YY=           -244.3624   ZZ=           -260.5306
   XY=             17.0928   XZ=             -0.1356   YZ=              2.5090

 Normal termination of Gaussian 16 at Wed Jul 10 14:08:21 2019.
