 Gaussian 16, Revision A.03,
 Gaussian 16:  ES64L-G16RevA.03 25-Dec-2016

 -------------------------------------
 # td=(NStates=1) CAM-B3LYP/6-31G(d,p)
 -------------------------------------

 --
 TD
 --
 Symbolic Z-matrix:
 Charge =  0 Multiplicity = 1

                         Standard orientation:
 ---------------------------------------------------------------------
 Center     Atomic      Atomic             Coordinates (Angstroms)
 Number     Number       Type             X           Y           Z
 ---------------------------------------------------------------------
      1          8           0       14.635467   -2.365445   -0.462614
      2          8           0      -14.821442    1.933358    0.715718
      3          6           0       11.522211   -1.191368    1.200378
      4          6           0      -12.318583   -0.971265    0.886518
      5          6           0       12.992183   -1.566175    1.082713
      6          6           0      -13.706357   -0.362994    0.806254
      7          6           0       13.396771   -1.977787   -0.416148
      8          6           0      -13.588513    1.184761    0.687929
      9          6           0       11.029485   -0.347321    0.062831
     10          6           0      -11.384010   -0.264419   -0.175564
     11          6           0       13.111541   -0.692713   -1.274331
     12          6           0      -12.933565    1.604820   -0.531076
     13          6           0       11.659354   -0.278434   -1.133870
     14          6           0      -11.498513    0.856762   -0.746727
     15          6           0       11.421954   -0.500586    2.545882
     16          6           0       10.566505   -2.437337    1.150704
     17          6           0      -11.748438   -0.785729    2.255893
     18          6           0      -12.482715   -2.505919    0.683728
     19          6           0        9.671542    0.278965    0.287928
     20          6           0      -10.153861   -1.129040   -0.339417
     21          6           0       11.141814    0.552963   -2.351341
     22          6           0      -10.767892    1.403101   -1.877130
     23          6           0        9.310518    1.582734   -0.012410
     24          6           0       -8.881696   -0.676464   -0.213067
     25          6           0        8.057236    2.174502    0.317411
     26          6           0       -7.636912   -1.308108   -0.437099
     27          6           0        8.287421    3.622524    0.760575
     28          6           0       -7.560511   -2.609659   -1.001974
     29          6           0        6.864202    1.599864   -0.103934
     30          6           0       -6.494148   -0.590470   -0.350026
     31          6           0        5.515078    2.144339    0.237642
     32          6           0       -5.099229   -1.066763   -0.533765
     33          6           0        4.484621    1.365172   -0.227477
     34          6           0       -4.023838   -0.213674   -0.426010
     35          6           0        3.058719    1.735889    0.027120
     36          6           0       -2.668421   -0.707130   -0.528865
     37          6           0        2.795620    3.172573    0.699606
     38          6           0       -2.282160   -2.157587   -0.875286
     39          6           0        2.124051    0.980174   -0.321671
     40          6           0       -1.725415    0.331307   -0.340644
     41          6           0        0.626608    1.104394   -0.283583
     42          6           0       -0.244777    0.110593   -0.469544
     43          1           0       13.493125   -0.699458    1.398678
     44          1           0       13.195079   -2.356550    1.828558
     45          1           0      -14.342654   -0.642707    1.532663
     46          1           0      -14.065605   -0.722627   -0.086530
     47          1           0       12.601762   -2.829888   -0.570295
     48          1           0      -12.973186    1.310644    1.749537
     49          1           0       13.896741   -0.077503   -0.990824
     50          1           0       13.157600   -0.849541   -2.465465
     51          1           0      -13.557702    1.443795   -1.491912
     52          1           0      -12.625578    2.774118   -0.576033
     53          1           0       11.804625   -1.045134    3.343356
     54          1           0       10.333199   -0.412737    2.816432
     55          1           0       11.785382    0.340987    2.461220
     56          1           0       10.623995   -2.889053    0.187751
     57          1           0       10.818646   -3.030179    1.944002
     58          1           0        9.698597   -1.944533    1.369911
     59          1           0      -11.877731    0.373043    2.757161
     60          1           0      -10.654644   -1.126862    2.533344
     61          1           0      -12.232163   -1.406586    3.016153
     62          1           0      -13.292000   -2.806525    1.449711
     63          1           0      -11.625947   -2.965174    0.897303
     64          1           0      -12.961556   -2.960634   -0.314082
     65          1           0        8.953253   -0.333116    0.735397
     66          1           0      -10.320808   -2.009603   -0.802993
     67          1           0       10.126176    0.828305   -2.217395
     68          1           0       11.617019    1.633749   -2.469215
     69          1           0       11.432065   -0.143241   -3.161735
     70          1           0      -11.441533    1.734595   -2.746817
     71          1           0      -10.115210    0.699194   -2.237891
     72          1           0      -10.226720    2.344035   -1.796810
     73          1           0       14.796559   -2.892087    0.503460
     74          1           0      -15.367205    1.681683    1.523674
     75          1           0       10.256593    2.008673   -0.385712
     76          1           0       -8.876946    0.438572    0.003732
     77          1           0        9.060343    4.121262    0.192910
     78          1           0        7.466732    4.316203    0.768728
     79          1           0        8.729286    3.492084    1.667964
     80          1           0       -8.178242   -3.387411   -0.376613
     81          1           0       -8.163998   -2.706453   -2.004525
     82          1           0       -6.439880   -2.936211   -1.194758
     83          1           0        7.015126    0.567801   -0.665443
     84          1           0       -6.673710    0.324782   -0.003465
     85          1           0        5.456663    2.929903    0.727516
     86          1           0       -4.920354   -2.071813   -0.715761
     87          1           0        4.657496    0.334789   -0.739341
     88          1           0       -4.025861    0.742424   -0.031588
     89          1           0        3.072126    3.212057    1.847074
     90          1           0        1.799742    3.209547    0.531193
     91          1           0        3.503495    3.982844    0.339122
     92          1           0       -2.901268   -2.855633   -0.153129
     93          1           0       -2.586309   -2.344049   -1.875422
     94          1           0       -1.168603   -2.469503   -0.717659
     95          1           0        2.389892    0.053413   -0.809232
     96          1           0       -2.079755    1.356461   -0.215922
     97          1           0        0.459644    2.176785   -0.169868
     98          1           0        0.354724   -0.847208   -0.497846
 ---------------------------------------------------------------------

 SCF Done:  E(RCAM-B3LYP) =  -1706.92801511     A.U. after   14 cycles

 Excitation energies and oscillator strengths:

 Excited State   1:      Singlet-A      3.1276 eV  396.42 nm  f=3.6397  <S**2>=0.000
     155 ->158         0.20686
     156 ->157         0.66705
 This state for optimization and/or second-order correction.
 Total Energy, E(TD-HF/TD-DFT) =  -1706.81307699
 Copying the excited state density for this state as the 1-particle RhoCI density.

 The electronic state is 1-A.
 Alpha  occ. eigenvalues --  -19.22710 -19.20973 -10.30744 -10.30744 -10.28255
 Alpha  occ. eigenvalues --  -10.28038 -10.27712 -10.27661 -10.27438 -10.27369
 Alpha  occ. eigenvalues --  -10.27331 -10.27194 -10.26822 -10.26591 -10.26567
 Alpha  occ. eigenvalues --  -10.26533 -10.26502 -10.26497 -10.26334 -10.26275
 Alpha  occ. eigenvalues --  -10.26215 -10.26096 -10.25993 -10.25837 -10.25831
 Alpha  occ. eigenvalues --  -10.25689 -10.25666 -10.25642 -10.25634 -10.25584
 Alpha  occ. eigenvalues --  -10.25565 -10.25351 -10.25224 -10.25073 -10.24864
 Alpha  occ. eigenvalues --  -10.24829 -10.24577 -10.24284 -10.24248 -10.23211
 Alpha  occ. eigenvalues --  -10.22457 -10.22255  -1.12309  -1.07460  -0.93986
 Alpha  occ. eigenvalues --   -0.93651  -0.92226  -0.91801  -0.90584  -0.90071
 Alpha  occ. eigenvalues --   -0.87893  -0.87003  -0.86547  -0.84962  -0.84163
 Alpha  occ. eigenvalues --   -0.82769  -0.81897  -0.80115  -0.79077  -0.78330
 Alpha  occ. eigenvalues --   -0.77524  -0.76702  -0.76540  -0.76291  -0.75816
 Alpha  occ. eigenvalues --   -0.75518  -0.75343  -0.75139  -0.74332  -0.70758
 Alpha  occ. eigenvalues --   -0.68528  -0.66775  -0.65561  -0.64830  -0.64673
 Alpha  occ. eigenvalues --   -0.63820  -0.63514  -0.62690  -0.61110  -0.60387
 Alpha  occ. eigenvalues --   -0.59327  -0.58482  -0.58051  -0.57711  -0.56439
 Alpha  occ. eigenvalues --   -0.56248  -0.55490  -0.55199  -0.54378  -0.53919
 Alpha  occ. eigenvalues --   -0.53112  -0.52741  -0.52264  -0.51961  -0.51340
 Alpha  occ. eigenvalues --   -0.50860  -0.50325  -0.50283  -0.49811  -0.49453
 Alpha  occ. eigenvalues --   -0.49101  -0.49043  -0.48693  -0.48462  -0.48191
 Alpha  occ. eigenvalues --   -0.47716  -0.47556  -0.47121  -0.46946  -0.46490
 Alpha  occ. eigenvalues --   -0.46283  -0.45834  -0.45675  -0.45598  -0.45340
 Alpha  occ. eigenvalues --   -0.45098  -0.44453  -0.44167  -0.43863  -0.43734
 Alpha  occ. eigenvalues --   -0.43651  -0.43282  -0.43036  -0.42776  -0.42280
 Alpha  occ. eigenvalues --   -0.41959  -0.41673  -0.41463  -0.40766  -0.40632
 Alpha  occ. eigenvalues --   -0.40546  -0.40329  -0.40128  -0.39997  -0.39639
 Alpha  occ. eigenvalues --   -0.39613  -0.39260  -0.38435  -0.38184  -0.38104
 Alpha  occ. eigenvalues --   -0.37328  -0.37208  -0.36557  -0.35981  -0.35094
 Alpha  occ. eigenvalues --   -0.34476  -0.33887  -0.33529  -0.31931  -0.30540
 Alpha  occ. eigenvalues --   -0.30136  -0.30072  -0.28435  -0.27231  -0.24065
 Alpha  occ. eigenvalues --   -0.21803
 Alpha virt. eigenvalues --   -0.03376  -0.00244   0.03304   0.05718   0.08463
 Alpha virt. eigenvalues --    0.08765   0.09528   0.10794   0.11261   0.12039
 Alpha virt. eigenvalues --    0.12569   0.12867   0.13209   0.13425   0.13866

 Mulliken charges:
               1
     1  O   -0.531888
     2  O   -0.572900
     3  C   -0.058137
     4  C   -0.007998
     5  C   -0.229655
     6  C   -0.176085
     7  C    0.211685
     8  C    0.191520
     9  C    0.062181
    10  C    0.056479
    11  C   -0.197192
    12  C   -0.207524
    13  C    0.019800
    14  C    0.066133
    15  C   -0.285264
    16  C   -0.282848
    17  C   -0.296557
    18  C   -0.303293
    19  C   -0.119631
    20  C   -0.162492
    21  C   -0.346014
    22  C   -0.374031
    23  C   -0.126079
    24  C   -0.104826
    25  C    0.046130
    26  C    0.175388
    27  C   -0.370603
    28  C   -0.381800
    29  C   -0.121505
    30  C   -0.113473
    31  C   -0.033179
    32  C   -0.110387
    33  C   -0.112892
    34  C   -0.084598
    35  C    0.114007
    36  C    0.110391
    37  C   -0.348897
    38  C   -0.368114
    39  C   -0.155926
    40  C   -0.152911
    41  C   -0.067906
    42  C   -0.101764
    43  H    0.099366
    44  H    0.068853
    45  H    0.082110
    46  H    0.104036
    47  H    0.037537
    48  H    0.046009
    49  H    0.121346
    50  H    0.070925
    51  H    0.111456
    52  H    0.088126
    53  H    0.101750
    54  H    0.083896
    55  H    0.112949
    56  H    0.113293
    57  H    0.094854
    58  H    0.103658
    59  H    0.078694
    60  H    0.103029
    61  H    0.101989
    62  H    0.092386
    63  H    0.119594
    64  H    0.089890
    65  H    0.087596
    66  H    0.090630
    67  H    0.127693
    68  H    0.096453
    69  H    0.107377
    70  H    0.101935
    71  H    0.124142
    72  H    0.115147
    73  H    0.314159
    74  H    0.301979
    75  H    0.096042
    76  H    0.081357
    77  H    0.124226
    78  H    0.106986
    79  H    0.135169
    80  H    0.098074
    81  H    0.108748
    82  H    0.097930
    83  H    0.087456
    84  H    0.067670
    85  H    0.063996
    86  H    0.084683
    87  H    0.087889
    88  H    0.090282
    89  H    0.106283
    90  H    0.108686
    91  H    0.115469
    92  H    0.106787
    93  H    0.140810
    94  H    0.114547
    95  H    0.069195
    96  H    0.097826
    97  H    0.078090
    98  H    0.091593
 Sum of Mulliken charges =  -0.00000

 Dipole moment (field-independent basis, Debye):
    X=             -0.1381    Y=             -1.2764    Z=              2.4654  Tot=              2.7797
 Quadrupole moment (field-independent basis, Debye-Ang):
   XX=           -276.7323   YY=           -248.5721   ZZ=           -258.6211
   XY=             25.6747   XZ=             14.5370   YZ=             -0.5799

 Normal termination of Gaussian 16 at Sun Jun 30 22:32:49 2019.
