 Gaussian 16, Revision A.03,
 Gaussian 16:  ES64L-G16RevA.03 25-Dec-2016

 -------------------------------------
 # td=(NStates=1) CAM-B3LYP/6-31G(d,p)
 -------------------------------------

 --
 TD
 --
 Symbolic Z-matrix:
 Charge =  0 Multiplicity = 1

                         Standard orientation:
 ---------------------------------------------------------------------
 Center     Atomic      Atomic             Coordinates (Angstroms)
 Number     Number       Type             X           Y           Z
 ---------------------------------------------------------------------
      1          8           0       14.750574   -2.248706   -0.481802
      2          8           0      -14.799009    1.912642    0.706130
      3          6           0       11.530334   -1.062274    1.201004
      4          6           0      -12.337307   -0.919626    0.999999
      5          6           0       13.101042   -1.456234    0.973047
      6          6           0      -13.689928   -0.247663    0.830293
      7          6           0       13.306821   -2.026016   -0.307893
      8          6           0      -13.593160    1.326842    0.713135
      9          6           0       10.953657   -0.332682    0.007428
     10          6           0      -11.408540   -0.271435   -0.172060
     11          6           0       13.043496   -0.895062   -1.344190
     12          6           0      -13.009018    1.560612   -0.648434
     13          6           0       11.651483   -0.254710   -1.158237
     14          6           0      -11.721454    0.745225   -0.859997
     15          6           0       11.416588   -0.320807    2.471775
     16          6           0       10.656887   -2.417796    1.348468
     17          6           0      -11.516295   -0.656039    2.331264
     18          6           0      -12.497696   -2.416765    0.823193
     19          6           0        9.653076    0.315929    0.311017
     20          6           0      -10.161669   -1.064313   -0.352216
     21          6           0       11.333281    0.616746   -2.373461
     22          6           0      -10.820651    1.233503   -2.026218
     23          6           0        9.293230    1.670322   -0.027459
     24          6           0       -8.845853   -0.509571   -0.425087
     25          6           0        8.055081    2.239774    0.104902
     26          6           0       -7.698784   -1.224098   -0.531663
     27          6           0        8.131444    3.776004    0.495507
     28          6           0       -7.732776   -2.709106   -0.938490
     29          6           0        6.868943    1.605793    0.080570
     30          6           0       -6.446699   -0.534153   -0.491769
     31          6           0        5.522758    2.046835    0.262692
     32          6           0       -5.143757   -1.083220   -0.612771
     33          6           0        4.466610    1.241094    0.022711
     34          6           0       -4.057579   -0.409166   -0.339053
     35          6           0        3.050051    1.627498    0.229982
     36          6           0       -2.639883   -0.707852   -0.528182
     37          6           0        2.799767    3.054703    0.633477
     38          6           0       -2.346480   -2.092204   -0.730877
     39          6           0        2.141294    0.777043   -0.133626
     40          6           0       -1.603208    0.174612   -0.384317
     41          6           0        0.647417    1.007716   -0.193279
     42          6           0       -0.206039    0.001447   -0.404225
     43          1           0       13.713954   -0.604130    0.955666
     44          1           0       13.339741   -2.203545    1.767396
     45          1           0      -14.482235   -0.483681    1.598749
     46          1           0      -14.258895   -0.708252   -0.059174
     47          1           0       12.831407   -2.993780   -0.547022
     48          1           0      -12.910559    1.729708    1.312829
     49          1           0       13.904901   -0.090433   -1.386929
     50          1           0       13.246583   -1.328483   -2.332643
     51          1           0      -13.726193    1.187901   -1.364519
     52          1           0      -12.860617    2.719044   -0.916133
     53          1           0       11.537409   -0.841619    3.432289
     54          1           0       10.434333    0.185177    2.419460
     55          1           0       12.186095    0.395779    2.505650
     56          1           0       10.817919   -2.939361    0.317365
     57          1           0       11.124371   -3.140539    2.210620
     58          1           0        9.576592   -2.343184    1.783115
     59          1           0      -11.239776    0.507232    2.580240
     60          1           0      -10.590840   -1.290860    2.119425
     61          1           0      -12.024583   -1.196961    3.048300
     62          1           0      -13.243397   -2.671496    1.566702
     63          1           0      -11.617147   -3.072625    1.196647
     64          1           0      -12.657150   -2.722143   -0.187731
     65          1           0        8.916273   -0.190821    0.818865
     66          1           0      -10.307933   -2.203388   -0.271886
     67          1           0       10.258196    1.075195   -2.212671
     68          1           0       12.135790    1.391849   -2.214001
     69          1           0       11.521198    0.107289   -3.222291
     70          1           0      -11.230778    1.630052   -2.911543
     71          1           0      -10.144375    0.370110   -2.261109
     72          1           0      -10.210084    2.150386   -1.678345
     73          1           0       14.969870   -3.085830   -0.125624
     74          1           0      -15.134639    1.990347    1.652874
     75          1           0       10.068708    2.202793   -0.506858
     76          1           0       -8.819317    0.488918   -0.138174
     77          1           0        8.878621    4.299425   -0.302566
     78          1           0        7.044829    4.062885    0.756118
     79          1           0        8.745193    3.810339    1.470989
     80          1           0       -8.355081   -3.359982   -0.225791
     81          1           0       -8.143125   -2.650506   -1.930074
     82          1           0       -6.715430   -3.009361   -1.130036
     83          1           0        6.928770    0.448413   -0.221503
     84          1           0       -6.642476    0.427471   -0.209504
     85          1           0        5.175167    3.006134    0.622064
     86          1           0       -5.006038   -2.122706   -0.987073
     87          1           0        4.596044    0.153405   -0.374064
     88          1           0       -4.233396    0.655362    0.150413
     89          1           0        3.613004    3.317780    1.400208
     90          1           0        1.801336    3.217145    1.201738
     91          1           0        3.176316    3.655787   -0.268347
     92          1           0       -2.921440   -2.604349    0.108289
     93          1           0       -2.956540   -2.397545   -1.723594
     94          1           0       -1.406104   -2.328699   -0.926278
     95          1           0        2.219428   -0.350136   -0.486152
     96          1           0       -1.866279    1.141533    0.006529
     97          1           0        0.360225    2.016631   -0.120982
     98          1           0        0.090747   -1.186602   -0.696304
 ---------------------------------------------------------------------

 SCF Done:  E(RCAM-B3LYP) =  -1707.00885739     A.U. after   14 cycles

 Excitation energies and oscillator strengths:

 Excited State   1:      Singlet-A      2.7893 eV  444.51 nm  f=3.8142  <S**2>=0.000
     155 ->158        -0.22141
     156 ->157         0.66276
 This state for optimization and/or second-order correction.
 Total Energy, E(TD-HF/TD-DFT) =  -1706.90635382
 Copying the excited state density for this state as the 1-particle RhoCI density.

 The electronic state is 1-A.
 Alpha  occ. eigenvalues --  -19.21984 -19.19811 -10.29867 -10.28974 -10.27937
 Alpha  occ. eigenvalues --  -10.27774 -10.27737 -10.27719 -10.27357 -10.27243
 Alpha  occ. eigenvalues --  -10.27099 -10.27047 -10.27033 -10.26988 -10.26842
 Alpha  occ. eigenvalues --  -10.26810 -10.26591 -10.26550 -10.26473 -10.26358
 Alpha  occ. eigenvalues --  -10.26352 -10.26314 -10.26301 -10.26049 -10.26015
 Alpha  occ. eigenvalues --  -10.25980 -10.25874 -10.25656 -10.25643 -10.25593
 Alpha  occ. eigenvalues --  -10.25577 -10.25533 -10.25409 -10.25380 -10.25276
 Alpha  occ. eigenvalues --  -10.25218 -10.25111 -10.25081 -10.24788 -10.24542
 Alpha  occ. eigenvalues --  -10.24126 -10.23035  -1.11858  -1.08251  -0.93256
 Alpha  occ. eigenvalues --   -0.93158  -0.92649  -0.91930  -0.90821  -0.90214
 Alpha  occ. eigenvalues --   -0.87745  -0.86729  -0.86070  -0.85657  -0.84833
 Alpha  occ. eigenvalues --   -0.83604  -0.82890  -0.79587  -0.78907  -0.78062
 Alpha  occ. eigenvalues --   -0.76646  -0.75914  -0.75827  -0.75519  -0.75191
 Alpha  occ. eigenvalues --   -0.74963  -0.74673  -0.74035  -0.73749  -0.70819
 Alpha  occ. eigenvalues --   -0.69388  -0.67827  -0.65962  -0.64904  -0.64098
 Alpha  occ. eigenvalues --   -0.63167  -0.62778  -0.61321  -0.60715  -0.60039
 Alpha  occ. eigenvalues --   -0.59654  -0.59310  -0.59166  -0.58207  -0.55847
 Alpha  occ. eigenvalues --   -0.55543  -0.55044  -0.54172  -0.53783  -0.53700
 Alpha  occ. eigenvalues --   -0.52920  -0.51929  -0.51774  -0.51465  -0.50760
 Alpha  occ. eigenvalues --   -0.50174  -0.49997  -0.49576  -0.49202  -0.49113
 Alpha  occ. eigenvalues --   -0.49049  -0.48940  -0.48663  -0.48509  -0.48042
 Alpha  occ. eigenvalues --   -0.47898  -0.47400  -0.47196  -0.46983  -0.46368
 Alpha  occ. eigenvalues --   -0.46088  -0.45765  -0.45452  -0.45083  -0.44864
 Alpha  occ. eigenvalues --   -0.44775  -0.44041  -0.43952  -0.43703  -0.43492
 Alpha  occ. eigenvalues --   -0.43382  -0.43107  -0.42838  -0.42121  -0.41916
 Alpha  occ. eigenvalues --   -0.41652  -0.41322  -0.40885  -0.40742  -0.40539
 Alpha  occ. eigenvalues --   -0.40198  -0.39830  -0.39789  -0.39748  -0.39396
 Alpha  occ. eigenvalues --   -0.39099  -0.38575  -0.38172  -0.37967  -0.37712
 Alpha  occ. eigenvalues --   -0.37452  -0.37330  -0.36927  -0.36394  -0.35250
 Alpha  occ. eigenvalues --   -0.35003  -0.33667  -0.33384  -0.32044  -0.31900
 Alpha  occ. eigenvalues --   -0.31536  -0.30324  -0.28701  -0.26242  -0.23183
 Alpha  occ. eigenvalues --   -0.20973
 Alpha virt. eigenvalues --   -0.04183  -0.01345   0.02146   0.06189   0.09022
 Alpha virt. eigenvalues --    0.10182   0.11428   0.11635   0.11937   0.12506
 Alpha virt. eigenvalues --    0.12634   0.12901   0.13016   0.13346   0.13749

 Mulliken charges:
               1
     1  O   -0.570056
     2  O   -0.545161
     3  C   -0.035058
     4  C    0.006593
     5  C   -0.144358
     6  C   -0.207099
     7  C    0.134615
     8  C    0.194985
     9  C    0.093015
    10  C    0.063066
    11  C   -0.228032
    12  C   -0.219249
    13  C    0.018539
    14  C    0.049354
    15  C   -0.297801
    16  C   -0.299207
    17  C   -0.287220
    18  C   -0.322870
    19  C   -0.131476
    20  C   -0.169500
    21  C   -0.341653
    22  C   -0.365399
    23  C   -0.119364
    24  C   -0.096850
    25  C    0.091965
    26  C    0.097615
    27  C   -0.352078
    28  C   -0.361419
    29  C   -0.128200
    30  C   -0.119525
    31  C   -0.080478
    32  C   -0.070634
    33  C   -0.097856
    34  C   -0.115151
    35  C    0.107572
    36  C    0.121776
    37  C   -0.388526
    38  C   -0.357551
    39  C   -0.122393
    40  C   -0.132551
    41  C   -0.102560
    42  C   -0.062112
    43  H    0.115667
    44  H    0.077646
    45  H    0.062327
    46  H    0.094989
    47  H    0.088075
    48  H    0.083496
    49  H    0.111702
    50  H    0.107253
    51  H    0.120795
    52  H    0.081041
    53  H    0.097938
    54  H    0.101648
    55  H    0.102183
    56  H    0.094976
    57  H    0.068801
    58  H    0.104709
    59  H    0.090776
    60  H    0.107056
    61  H    0.104325
    62  H    0.108957
    63  H    0.085396
    64  H    0.122465
    65  H    0.094857
    66  H    0.084556
    67  H    0.108297
    68  H    0.113856
    69  H    0.120685
    70  H    0.110850
    71  H    0.119166
    72  H    0.093309
    73  H    0.293500
    74  H    0.307080
    75  H    0.087191
    76  H    0.092743
    77  H    0.105067
    78  H    0.108912
    79  H    0.117313
    80  H    0.111715
    81  H    0.132300
    82  H    0.106178
    83  H    0.072350
    84  H    0.072581
    85  H    0.071339
    86  H    0.086032
    87  H    0.081128
    88  H    0.068462
    89  H    0.116386
    90  H    0.118055
    91  H    0.136807
    92  H    0.124818
    93  H    0.089977
    94  H    0.105357
    95  H    0.078994
    96  H    0.071289
    97  H    0.092076
    98  H    0.066845
 Sum of Mulliken charges =  -0.00000

 Dipole moment (field-independent basis, Debye):
    X=             -1.6726    Y=             -1.1862    Z=              2.0770  Tot=              2.9187
 Quadrupole moment (field-independent basis, Debye-Ang):
   XX=           -265.6604   YY=           -244.0606   ZZ=           -259.8450
   XY=             -0.8538   XZ=            -16.3220   YZ=              4.2579

 Normal termination of Gaussian 16 at Thu Jun 27 21:36:26 2019.
