 Gaussian 16, Revision A.03,
 Gaussian 16:  ES64L-G16RevA.03 25-Dec-2016

 -------------------------------------
 # td=(NStates=1) CAM-B3LYP/6-31G(d,p)
 -------------------------------------

 --
 TD
 --
 Symbolic Z-matrix:
 Charge =  0 Multiplicity = 1

                         Standard orientation:
 ---------------------------------------------------------------------
 Center     Atomic      Atomic             Coordinates (Angstroms)
 Number     Number       Type             X           Y           Z
 ---------------------------------------------------------------------
      1          8           0       14.870531   -1.967493   -0.403302
      2          8           0      -14.705663    2.081623    0.771249
      3          6           0       11.438276   -1.206130    1.143869
      4          6           0      -12.382224   -0.955802    0.682297
      5          6           0       12.917790   -1.360333    1.085408
      6          6           0      -13.701919   -0.128905    0.714596
      7          6           0       13.428893   -1.772135   -0.314870
      8          6           0      -13.507296    1.430761    0.892610
      9          6           0       10.923097   -0.350316    0.004381
     10          6           0      -11.342969   -0.279441   -0.289834
     11          6           0       13.106440   -0.684674   -1.297178
     12          6           0      -12.710144    1.882758   -0.414512
     13          6           0       11.633518   -0.096765   -1.123747
     14          6           0      -11.603092    0.879776   -0.880151
     15          6           0       11.061079   -0.380303    2.439046
     16          6           0       10.751525   -2.669632    1.083503
     17          6           0      -11.661579   -0.836397    2.144186
     18          6           0      -12.571225   -2.397907    0.373922
     19          6           0        9.530520    0.192007    0.102010
     20          6           0      -10.113772   -1.047588   -0.532388
     21          6           0       11.438269    0.715791   -2.347948
     22          6           0      -10.781914    1.470216   -2.051193
     23          6           0        9.312655    1.570910   -0.057551
     24          6           0       -8.900993   -0.583822   -0.354642
     25          6           0        7.953348    2.259606    0.086982
     26          6           0       -7.634370   -1.363352   -0.418915
     27          6           0        8.042594    3.681795    0.516250
     28          6           0       -7.771894   -2.840656   -0.696795
     29          6           0        6.838384    1.485425    0.004712
     30          6           0       -6.450839   -0.623540   -0.334435
     31          6           0        5.547311    1.997519    0.166651
     32          6           0       -5.140376   -1.146819   -0.494973
     33          6           0        4.497214    1.224925    0.090545
     34          6           0       -4.006519   -0.432230   -0.253955
     35          6           0        3.030604    1.627128    0.199315
     36          6           0       -2.639931   -0.861935   -0.382652
     37          6           0        2.898416    3.116040    0.603190
     38          6           0       -2.339807   -2.285701   -0.747576
     39          6           0        2.137685    0.695776   -0.066406
     40          6           0       -1.609544    0.071013   -0.245865
     41          6           0        0.698895    0.851417   -0.161395
     42          6           0       -0.203962   -0.187768   -0.205516
     43          1           0       13.246954   -0.299381    1.452176
     44          1           0       13.233879   -2.227059    1.679928
     45          1           0      -14.232273   -0.355648    1.685491
     46          1           0      -14.502767   -0.180128   -0.188610
     47          1           0       12.866182   -2.568548   -0.627801
     48          1           0      -13.113819    1.556739    1.733668
     49          1           0       13.727018    0.126871   -1.190684
     50          1           0       13.306012   -1.099344   -2.214275
     51          1           0      -13.357453    2.148022   -1.444399
     52          1           0      -12.325990    2.843227    0.079528
     53          1           0       11.595246   -0.828508    3.198413
     54          1           0        9.880111   -0.542651    2.474197
     55          1           0       11.295330    0.740319    2.541055
     56          1           0       11.054671   -3.288793    0.073753
     57          1           0       10.959907   -3.277051    2.055782
     58          1           0        9.661608   -2.736843    1.068069
     59          1           0      -11.699754    0.268081    2.383510
     60          1           0      -10.430482   -0.949063    2.074032
     61          1           0      -12.175758   -1.622430    2.654928
     62          1           0      -13.394226   -2.900239    0.914062
     63          1           0      -11.492600   -3.046141    0.480143
     64          1           0      -13.031019   -2.543300   -0.717400
     65          1           0        8.733353   -0.492415    0.608595
     66          1           0      -10.263825   -2.213822   -0.588620
     67          1           0       10.233687    1.135336   -2.370312
     68          1           0       12.094654    1.701272   -2.460086
     69          1           0       11.532909    0.058658   -3.283966
     70          1           0      -11.404598    1.819953   -2.724161
     71          1           0      -10.109824    0.731981   -2.463039
     72          1           0      -10.105680    2.078531   -1.553991
     73          1           0       15.297160   -2.621251    0.281580
     74          1           0      -15.387113    1.861315    1.518343
     75          1           0       10.231198    2.299406   -0.137010
     76          1           0       -8.643677    0.380700    0.010975
     77          1           0        8.594311    4.247058   -0.214981
     78          1           0        7.153212    4.365810    0.639806
     79          1           0        8.601490    3.850120    1.462408
     80          1           0       -8.122563   -3.462948    0.101138
     81          1           0       -8.230246   -3.124568   -1.592777
     82          1           0       -6.672066   -3.284853   -0.690302
     83          1           0        6.681266    0.308588   -0.127753
     84          1           0       -6.609863    0.534884   -0.037234
     85          1           0        5.507256    3.198312    0.441911
     86          1           0       -4.926892   -2.189913   -0.803324
     87          1           0        4.702659    0.052798   -0.209063
     88          1           0       -4.148889    0.675141   -0.056910
     89          1           0        3.181128    3.097265    1.727221
     90          1           0        1.890002    3.281741    0.552747
     91          1           0        3.341382    3.895020    0.234001
     92          1           0       -2.926767   -2.833415   -0.213716
     93          1           0       -2.857795   -2.282402   -1.733604
     94          1           0       -1.442323   -2.509365   -0.839122
     95          1           0        2.544281   -0.344684   -0.322582
     96          1           0       -1.915518    1.102819   -0.088155
     97          1           0        0.279287    1.920126   -0.065873
     98          1           0        0.105822   -1.332630   -0.077169
 ---------------------------------------------------------------------

 SCF Done:  E(RCAM-B3LYP) =  -1706.91017813     A.U. after   14 cycles

 Excitation energies and oscillator strengths:

 Excited State   1:      Singlet-A      2.8095 eV  441.30 nm  f=3.7069  <S**2>=0.000
     155 ->158        -0.18540
     156 ->157         0.67539
 This state for optimization and/or second-order correction.
 Total Energy, E(TD-HF/TD-DFT) =  -1706.80693120
 Copying the excited state density for this state as the 1-particle RhoCI density.

 The electronic state is 1-A.
 Alpha  occ. eigenvalues --  -19.21572 -19.20988 -10.29156 -10.29028 -10.28148
 Alpha  occ. eigenvalues --  -10.27838 -10.27787 -10.27725 -10.27715 -10.27711
 Alpha  occ. eigenvalues --  -10.27620 -10.27568 -10.27337 -10.27320 -10.27302
 Alpha  occ. eigenvalues --  -10.27281 -10.27250 -10.27076 -10.26992 -10.26565
 Alpha  occ. eigenvalues --  -10.26558 -10.26534 -10.26447 -10.26283 -10.26195
 Alpha  occ. eigenvalues --  -10.26170 -10.26079 -10.26075 -10.25932 -10.25882
 Alpha  occ. eigenvalues --  -10.25807 -10.25758 -10.25729 -10.25703 -10.25624
 Alpha  occ. eigenvalues --  -10.25258 -10.25191 -10.24926 -10.24718 -10.22969
 Alpha  occ. eigenvalues --  -10.22793 -10.22317  -1.09826  -1.06153  -0.93148
 Alpha  occ. eigenvalues --   -0.92382  -0.91873  -0.91389  -0.89942  -0.89397
 Alpha  occ. eigenvalues --   -0.86772  -0.86102  -0.85769  -0.85063  -0.84261
 Alpha  occ. eigenvalues --   -0.83099  -0.82233  -0.79851  -0.79509  -0.79137
 Alpha  occ. eigenvalues --   -0.77358  -0.76403  -0.75866  -0.75534  -0.75025
 Alpha  occ. eigenvalues --   -0.74715  -0.74530  -0.73850  -0.73463  -0.70438
 Alpha  occ. eigenvalues --   -0.68222  -0.67234  -0.65582  -0.64558  -0.63506
 Alpha  occ. eigenvalues --   -0.62873  -0.61363  -0.60462  -0.60176  -0.59611
 Alpha  occ. eigenvalues --   -0.59171  -0.58972  -0.57830  -0.57597  -0.56400
 Alpha  occ. eigenvalues --   -0.55184  -0.54594  -0.54138  -0.54091  -0.53373
 Alpha  occ. eigenvalues --   -0.52830  -0.52354  -0.52019  -0.51361  -0.50566
 Alpha  occ. eigenvalues --   -0.50292  -0.49964  -0.49800  -0.49563  -0.49321
 Alpha  occ. eigenvalues --   -0.49280  -0.48948  -0.48397  -0.48114  -0.47804
 Alpha  occ. eigenvalues --   -0.47686  -0.47042  -0.46955  -0.46093  -0.45698
 Alpha  occ. eigenvalues --   -0.45465  -0.45302  -0.45205  -0.45007  -0.44883
 Alpha  occ. eigenvalues --   -0.44219  -0.43950  -0.43538  -0.43334  -0.43045
 Alpha  occ. eigenvalues --   -0.42922  -0.42223  -0.42017  -0.42004  -0.41661
 Alpha  occ. eigenvalues --   -0.41358  -0.41129  -0.40693  -0.40581  -0.40349
 Alpha  occ. eigenvalues --   -0.40205  -0.39793  -0.39737  -0.39436  -0.39156
 Alpha  occ. eigenvalues --   -0.38964  -0.38793  -0.38628  -0.38191  -0.37865
 Alpha  occ. eigenvalues --   -0.36972  -0.36673  -0.35836  -0.35742  -0.35247
 Alpha  occ. eigenvalues --   -0.34734  -0.33913  -0.33236  -0.31967  -0.31907
 Alpha  occ. eigenvalues --   -0.30935  -0.29433  -0.28040  -0.26040  -0.23622
 Alpha  occ. eigenvalues --   -0.20757
 Alpha virt. eigenvalues --   -0.03898  -0.00136   0.03119   0.06576   0.08232
 Alpha virt. eigenvalues --    0.09782   0.10733   0.10996   0.11291   0.11664
 Alpha virt. eigenvalues --    0.11707   0.12368   0.12795   0.12979   0.13551

 Mulliken charges:
               1
     1  O   -0.591972
     2  O   -0.558223
     3  C   -0.017544
     4  C    0.010718
     5  C   -0.184663
     6  C   -0.204022
     7  C    0.183373
     8  C    0.204764
     9  C    0.076925
    10  C    0.075237
    11  C   -0.208523
    12  C   -0.207988
    13  C    0.044170
    14  C   -0.000874
    15  C   -0.299418
    16  C   -0.316994
    17  C   -0.304747
    18  C   -0.302714
    19  C   -0.128551
    20  C   -0.159538
    21  C   -0.350017
    22  C   -0.334681
    23  C   -0.112613
    24  C   -0.053890
    25  C    0.065158
    26  C    0.102678
    27  C   -0.384126
    28  C   -0.381332
    29  C   -0.101007
    30  C   -0.133566
    31  C   -0.033171
    32  C   -0.094264
    33  C   -0.147725
    34  C   -0.106972
    35  C    0.108263
    36  C    0.071039
    37  C   -0.352969
    38  C   -0.326699
    39  C   -0.135035
    40  C   -0.128610
    41  C   -0.108300
    42  C   -0.081398
    43  H    0.091588
    44  H    0.077413
    45  H    0.057743
    46  H    0.092589
    47  H    0.086834
    48  H    0.080234
    49  H    0.122690
    50  H    0.108296
    51  H    0.095133
    52  H    0.104049
    53  H    0.107611
    54  H    0.089695
    55  H    0.109683
    56  H    0.095974
    57  H    0.093577
    58  H    0.107376
    59  H    0.101657
    60  H    0.092068
    61  H    0.110156
    62  H    0.105922
    63  H    0.079764
    64  H    0.090980
    65  H    0.095811
    66  H    0.078650
    67  H    0.080443
    68  H    0.109148
    69  H    0.112285
    70  H    0.111036
    71  H    0.111764
    72  H    0.123281
    73  H    0.304469
    74  H    0.302077
    75  H    0.090290
    76  H    0.075292
    77  H    0.125152
    78  H    0.109108
    79  H    0.127213
    80  H    0.129781
    81  H    0.137445
    82  H    0.083192
    83  H    0.084133
    84  H    0.082215
    85  H    0.070808
    86  H    0.084161
    87  H    0.059352
    88  H    0.076454
    89  H    0.115612
    90  H    0.107766
    91  H    0.133127
    92  H    0.128307
    93  H    0.121780
    94  H    0.101260
    95  H    0.085872
    96  H    0.077143
    97  H    0.087735
    98  H    0.086627
 Sum of Mulliken charges =  -0.00000

 Dipole moment (field-independent basis, Debye):
    X=             -0.4072    Y=             -1.0139    Z=              2.8359  Tot=              3.0391
 Quadrupole moment (field-independent basis, Debye-Ang):
   XX=           -264.5260   YY=           -240.1705   ZZ=           -263.2411
   XY=              8.5799   XZ=              0.3257   YZ=              2.8547

 Normal termination of Gaussian 16 at Tue Jul  9 15:04:07 2019.
