 Gaussian 16, Revision A.03,
 Gaussian 16:  ES64L-G16RevA.03 25-Dec-2016

 -------------------------------------
 # td=(NStates=1) CAM-B3LYP/6-31G(d,p)
 -------------------------------------

 --
 TD
 --
 Symbolic Z-matrix:
 Charge =  0 Multiplicity = 1

                         Standard orientation:
 ---------------------------------------------------------------------
 Center     Atomic      Atomic             Coordinates (Angstroms)
 Number     Number       Type             X           Y           Z
 ---------------------------------------------------------------------
      1          8           0       14.742543   -2.084356   -0.174341
      2          8           0      -14.835142    1.941724    0.811961
      3          6           0       11.376179   -1.025490    1.174291
      4          6           0      -12.272997   -0.841597    1.010772
      5          6           0       12.924670   -1.385484    1.156788
      6          6           0      -13.697855   -0.140026    0.973983
      7          6           0       13.383946   -1.801340   -0.184539
      8          6           0      -13.524789    1.372205    0.798265
      9          6           0       10.953154   -0.330735   -0.113914
     10          6           0      -11.337317   -0.341883   -0.175964
     11          6           0       13.123502   -0.781920   -1.239999
     12          6           0      -12.920859    1.641543   -0.548775
     13          6           0       11.730056   -0.255963   -1.177491
     14          6           0      -11.751395    0.769321   -0.911780
     15          6           0       11.187240   -0.287612    2.457571
     16          6           0       10.667326   -2.451283    1.304825
     17          6           0      -11.537801   -0.600066    2.313729
     18          6           0      -12.519862   -2.301238    0.755137
     19          6           0        9.629846    0.338844    0.077938
     20          6           0      -10.078805   -1.066475   -0.427473
     21          6           0       11.259353    0.383862   -2.488907
     22          6           0      -10.832215    1.370548   -2.142397
     23          6           0        9.357084    1.655989   -0.004476
     24          6           0       -8.888735   -0.529329   -0.479391
     25          6           0        8.034457    2.325025    0.193509
     26          6           0       -7.679398   -1.350255   -0.589722
     27          6           0        8.124861    3.699946    0.449036
     28          6           0       -7.714251   -2.704204   -0.933947
     29          6           0        6.938531    1.568691   -0.074775
     30          6           0       -6.445543   -0.655590   -0.447541
     31          6           0        5.581537    1.963156    0.242985
     32          6           0       -5.103826   -1.158973   -0.677562
     33          6           0        4.458292    1.112945   -0.082254
     34          6           0       -3.997682   -0.460840   -0.325229
     35          6           0        3.052286    1.596275    0.136330
     36          6           0       -2.563960   -0.866408   -0.452192
     37          6           0        2.667364    2.997174    0.474080
     38          6           0       -2.381093   -2.177687   -0.898418
     39          6           0        2.136241    0.742779   -0.226425
     40          6           0       -1.606651    0.061667   -0.170158
     41          6           0        0.783018    0.916186    0.000332
     42          6           0       -0.094545   -0.156078   -0.296892
     43          1           0       13.515151   -0.532646    1.456608
     44          1           0       13.020832   -2.165324    2.059691
     45          1           0      -14.220499   -0.406429    1.895728
     46          1           0      -14.369693   -0.368838    0.021288
     47          1           0       12.668858   -2.756260   -0.346103
     48          1           0      -12.961107    1.879664    1.536572
     49          1           0       13.849636   -0.045462   -1.397040
     50          1           0       13.119805   -1.102397   -2.250890
     51          1           0      -13.464294    1.411162   -1.325459
     52          1           0      -12.603838    2.591649   -0.557427
     53          1           0       11.710818   -0.653728    3.375591
     54          1           0       10.075552   -0.166605    2.869700
     55          1           0       11.477923    0.818341    2.227577
     56          1           0       10.971715   -2.950652    0.379722
     57          1           0       10.852759   -2.829959    2.346691
     58          1           0        9.650301   -2.222586    1.136495
     59          1           0      -10.999584    0.525618    2.511795
     60          1           0      -10.681208   -1.256415    2.157098
     61          1           0      -12.401863   -0.785374    3.282178
     62          1           0      -13.272988   -2.501791    1.424234
     63          1           0      -11.358828   -2.641119    0.670837
     64          1           0      -12.975064   -2.230019   -0.219717
     65          1           0        8.941614   -0.352106    0.283060
     66          1           0      -10.220801   -2.210015   -0.519062
     67          1           0       10.196608    0.560996   -2.474044
     68          1           0       11.727044    1.350672   -2.565529
     69          1           0       11.573302   -0.207918   -3.407926
     70          1           0      -11.487485    2.053550   -2.901316
     71          1           0      -10.135410    0.535635   -2.455261
     72          1           0      -10.153746    2.050363   -1.553833
     73          1           0       15.024966   -2.774440    0.493945
     74          1           0      -15.442055    1.292764    1.442149
     75          1           0       10.179771    2.428429   -0.205930
     76          1           0       -8.680200    0.570015   -0.226387
     77          1           0        8.891479    4.190959   -0.190113
     78          1           0        7.207445    4.346106    0.311878
     79          1           0        8.678932    4.023359    1.385848
     80          1           0       -7.804786   -3.539437    0.008000
     81          1           0       -8.501483   -2.840248   -1.674264
     82          1           0       -6.812544   -3.185085   -1.345671
     83          1           0        7.090438    0.438568   -0.334856
     84          1           0       -6.577268    0.246287   -0.214064
     85          1           0        5.504673    2.983132    0.392538
     86          1           0       -5.067442   -2.179922   -1.057464
     87          1           0        4.751643    0.081174   -0.495212
     88          1           0       -4.134410    0.523398    0.122483
     89          1           0        3.102446    3.337143    1.466082
     90          1           0        1.627492    3.282419    0.542184
     91          1           0        2.859686    3.605569   -0.232552
     92          1           0       -2.854837   -2.954083   -0.300323
     93          1           0       -2.812734   -2.251499   -2.012290
     94          1           0       -1.378778   -2.422169   -0.813277
     95          1           0        2.534518   -0.139041   -0.555451
     96          1           0       -1.859430    1.061628    0.181081
     97          1           0        0.420235    1.682356    0.364948
     98          1           0        0.231323   -1.132425   -0.511604
 ---------------------------------------------------------------------

 SCF Done:  E(RCAM-B3LYP) =  -1706.92372771     A.U. after   14 cycles

 Excitation energies and oscillator strengths:

 Excited State   1:      Singlet-A      2.7562 eV  449.83 nm  f=3.6087  <S**2>=0.000
     155 ->158        -0.18654
     156 ->157         0.67609
 This state for optimization and/or second-order correction.
 Total Energy, E(TD-HF/TD-DFT) =  -1706.82243746
 Copying the excited state density for this state as the 1-particle RhoCI density.

 The electronic state is 1-A.
 Alpha  occ. eigenvalues --  -19.21152 -19.20745 -10.30757 -10.29199 -10.28146
 Alpha  occ. eigenvalues --  -10.27820 -10.27167 -10.27161 -10.27152 -10.27032
 Alpha  occ. eigenvalues --  -10.26904 -10.26901 -10.26828 -10.26822 -10.26820
 Alpha  occ. eigenvalues --  -10.26738 -10.26691 -10.26684 -10.26379 -10.26321
 Alpha  occ. eigenvalues --  -10.26305 -10.26270 -10.26267 -10.26245 -10.26184
 Alpha  occ. eigenvalues --  -10.26167 -10.26078 -10.25760 -10.25604 -10.25236
 Alpha  occ. eigenvalues --  -10.25206 -10.25109 -10.24946 -10.24885 -10.24848
 Alpha  occ. eigenvalues --  -10.24826 -10.24599 -10.24479 -10.24324 -10.24135
 Alpha  occ. eigenvalues --  -10.23776 -10.22664  -1.09526  -1.06837  -0.93700
 Alpha  occ. eigenvalues --   -0.93178  -0.92709  -0.91860  -0.91301  -0.90790
 Alpha  occ. eigenvalues --   -0.87161  -0.87066  -0.86538  -0.85694  -0.84975
 Alpha  occ. eigenvalues --   -0.83187  -0.82459  -0.80414  -0.79381  -0.79242
 Alpha  occ. eigenvalues --   -0.77234  -0.76630  -0.76000  -0.75876  -0.75753
 Alpha  occ. eigenvalues --   -0.75425  -0.75367  -0.74385  -0.73628  -0.70323
 Alpha  occ. eigenvalues --   -0.68773  -0.67707  -0.66145  -0.65662  -0.64387
 Alpha  occ. eigenvalues --   -0.63283  -0.62866  -0.61468  -0.61136  -0.60280
 Alpha  occ. eigenvalues --   -0.59526  -0.58943  -0.58593  -0.57389  -0.56836
 Alpha  occ. eigenvalues --   -0.55772  -0.55482  -0.54879  -0.54696  -0.54028
 Alpha  occ. eigenvalues --   -0.53921  -0.53019  -0.52353  -0.51956  -0.51705
 Alpha  occ. eigenvalues --   -0.50499  -0.50338  -0.50168  -0.50059  -0.49587
 Alpha  occ. eigenvalues --   -0.49537  -0.49096  -0.48827  -0.48572  -0.48034
 Alpha  occ. eigenvalues --   -0.47578  -0.47537  -0.47028  -0.46732  -0.46281
 Alpha  occ. eigenvalues --   -0.45940  -0.45681  -0.45403  -0.45137  -0.44964
 Alpha  occ. eigenvalues --   -0.44457  -0.44245  -0.44084  -0.43800  -0.43628
 Alpha  occ. eigenvalues --   -0.43326  -0.43132  -0.42848  -0.42429  -0.42155
 Alpha  occ. eigenvalues --   -0.41912  -0.41392  -0.41272  -0.41131  -0.40953
 Alpha  occ. eigenvalues --   -0.40818  -0.40649  -0.40210  -0.40061  -0.39864
 Alpha  occ. eigenvalues --   -0.39333  -0.38950  -0.38594  -0.38463  -0.37760
 Alpha  occ. eigenvalues --   -0.37395  -0.36907  -0.36068  -0.35653  -0.35269
 Alpha  occ. eigenvalues --   -0.34955  -0.33890  -0.33019  -0.31979  -0.31403
 Alpha  occ. eigenvalues --   -0.30840  -0.28857  -0.27963  -0.26591  -0.23644
 Alpha  occ. eigenvalues --   -0.20705
 Alpha virt. eigenvalues --   -0.04017  -0.00568   0.03025   0.06399   0.07748
 Alpha virt. eigenvalues --    0.09689   0.10644   0.10763   0.11394   0.11656
 Alpha virt. eigenvalues --    0.11760   0.12699   0.12780   0.12912   0.13961

 Mulliken charges:
               1
     1  O   -0.572464
     2  O   -0.582103
     3  C   -0.024417
     4  C   -0.043988
     5  C   -0.177374
     6  C   -0.230529
     7  C    0.204363
     8  C    0.193113
     9  C    0.021711
    10  C    0.044227
    11  C   -0.203428
    12  C   -0.177439
    13  C    0.043030
    14  C   -0.011344
    15  C   -0.299272
    16  C   -0.293233
    17  C   -0.247826
    18  C   -0.262647
    19  C   -0.106099
    20  C   -0.175324
    21  C   -0.367704
    22  C   -0.355213
    23  C   -0.101624
    24  C   -0.082783
    25  C    0.151995
    26  C    0.134418
    27  C   -0.414830
    28  C   -0.392112
    29  C   -0.126546
    30  C   -0.092943
    31  C   -0.090937
    32  C   -0.085663
    33  C   -0.142769
    34  C   -0.108931
    35  C    0.108664
    36  C    0.137367
    37  C   -0.380904
    38  C   -0.375798
    39  C   -0.088489
    40  C   -0.142608
    41  C   -0.032358
    42  C   -0.108803
    43  H    0.096303
    44  H    0.061715
    45  H    0.079362
    46  H    0.093315
    47  H    0.045637
    48  H    0.087177
    49  H    0.126181
    50  H    0.109294
    51  H    0.128093
    52  H    0.116053
    53  H    0.100282
    54  H    0.079281
    55  H    0.094257
    56  H    0.104827
    57  H    0.102996
    58  H    0.099867
    59  H    0.079611
    60  H    0.114426
    61  H    0.057189
    62  H    0.103782
    63  H    0.081044
    64  H    0.111580
    65  H    0.087669
    66  H    0.102801
    67  H    0.123976
    68  H    0.119163
    69  H    0.099535
    70  H    0.096965
    71  H    0.125991
    72  H    0.116218
    73  H    0.309471
    74  H    0.302118
    75  H    0.074543
    76  H    0.095822
    77  H    0.121991
    78  H    0.114036
    79  H    0.123110
    80  H    0.087914
    81  H    0.119847
    82  H    0.117482
    83  H    0.073792
    84  H    0.045079
    85  H    0.081897
    86  H    0.077664
    87  H    0.096548
    88  H    0.076783
    89  H    0.109113
    90  H    0.111767
    91  H    0.141784
    92  H    0.124778
    93  H    0.110308
    94  H    0.105769
    95  H    0.070617
    96  H    0.082044
    97  H    0.054210
    98  H    0.086541
 Sum of Mulliken charges =  -0.00000

 Dipole moment (field-independent basis, Debye):
    X=              1.4845    Y=             -0.6233    Z=              1.0780  Tot=              1.9376
 Quadrupole moment (field-independent basis, Debye-Ang):
   XX=           -287.2532   YY=           -246.1292   ZZ=           -261.7111
   XY=             18.0483   XZ=              1.6106   YZ=             -0.0901

 Normal termination of Gaussian 16 at Wed Jul 10 09:43:30 2019.
