 Gaussian 16, Revision A.03,
 Gaussian 16:  ES64L-G16RevA.03 25-Dec-2016

 -------------------------------------
 # td=(NStates=1) CAM-B3LYP/6-31G(d,p)
 -------------------------------------

 --
 TD
 --
 Symbolic Z-matrix:
 Charge =  0 Multiplicity = 1

                         Standard orientation:
 ---------------------------------------------------------------------
 Center     Atomic      Atomic             Coordinates (Angstroms)
 Number     Number       Type             X           Y           Z
 ---------------------------------------------------------------------
      1          8           0       14.767770   -1.972029   -0.441471
      2          8           0      -14.850945    1.984196    0.679292
      3          6           0       11.464804   -1.092282    1.055188
      4          6           0      -12.276217   -0.980743    0.729880
      5          6           0       12.931411   -1.475510    0.925950
      6          6           0      -13.635433   -0.136922    0.560666
      7          6           0       13.368064   -1.827229   -0.448242
      8          6           0      -13.573962    1.274998    0.682184
      9          6           0       11.015317   -0.294839   -0.069227
     10          6           0      -11.366076   -0.316308   -0.350192
     11          6           0       13.099865   -0.731836   -1.351302
     12          6           0      -12.731395    1.744603   -0.491082
     13          6           0       11.734011   -0.097309   -1.175433
     14          6           0      -11.605359    0.940452   -0.739032
     15          6           0       11.190231   -0.466126    2.388447
     16          6           0       10.621298   -2.519700    1.095836
     17          6           0      -11.767775   -0.831706    2.090525
     18          6           0      -12.486193   -2.415445    0.267722
     19          6           0        9.622458    0.312654    0.091829
     20          6           0      -10.095043   -1.031700   -0.539873
     21          6           0       11.201352    0.837057   -2.302323
     22          6           0      -10.648208    1.665879   -1.750252
     23          6           0        9.325353    1.672413    0.018961
     24          6           0       -8.883844   -0.570700   -0.152054
     25          6           0        8.031539    2.259248    0.170985
     26          6           0       -7.610149   -1.240887   -0.472546
     27          6           0        8.107314    3.658585    0.743653
     28          6           0       -7.694056   -2.700132   -0.944867
     29          6           0        6.912932    1.468791    0.043186
     30          6           0       -6.460896   -0.592932   -0.228087
     31          6           0        5.536517    1.903794    0.098922
     32          6           0       -5.072848   -1.165698   -0.438865
     33          6           0        4.474589    1.202251    0.061383
     34          6           0       -3.997567   -0.419392   -0.168384
     35          6           0        3.063144    1.483954    0.111575
     36          6           0       -2.682730   -0.765730   -0.321558
     37          6           0        2.812623    3.017419    0.413778
     38          6           0       -2.372301   -2.256459   -0.532885
     39          6           0        2.071868    0.617520   -0.057687
     40          6           0       -1.679275    0.119990   -0.036870
     41          6           0        0.710652    0.882202    0.004992
     42          6           0       -0.255365   -0.177305   -0.097269
     43          1           0       13.475719   -0.680118    1.414529
     44          1           0       13.076161   -2.389878    1.517741
     45          1           0      -14.505897   -0.594213    1.347400
     46          1           0      -14.015610   -0.528410   -0.272492
     47          1           0       12.986597   -2.786233   -0.706953
     48          1           0      -12.987927    1.468552    1.545972
     49          1           0       14.036507    0.164982   -1.079736
     50          1           0       13.119926   -1.108743   -2.230023
     51          1           0      -13.402702    1.755223   -1.514151
     52          1           0      -12.467639    2.832789   -0.230491
     53          1           0       11.649106   -1.144504    3.326076
     54          1           0       10.176790   -0.438133    2.610782
     55          1           0       11.548275    0.450042    2.525267
     56          1           0       10.859955   -3.061791    0.107441
     57          1           0       11.053780   -3.259911    1.876116
     58          1           0        9.668247   -2.402120    1.153761
     59          1           0      -11.618331    0.169800    2.289251
     60          1           0      -10.740733   -1.376649    2.155307
     61          1           0      -12.799171   -1.035075    2.633191
     62          1           0      -13.278953   -2.716409    0.954199
     63          1           0      -11.637429   -3.329821    0.309162
     64          1           0      -12.893627   -2.574445   -0.811371
     65          1           0        8.911416   -0.445006    0.471884
     66          1           0      -10.192343   -2.057337   -0.871027
     67          1           0       10.060457    1.052125   -2.443714
     68          1           0       11.700240    1.993563   -2.254169
     69          1           0       11.634189    0.419381   -3.288733
     70          1           0      -11.110395    2.090184   -2.653981
     71          1           0       -9.908118    0.908156   -1.996936
     72          1           0      -10.184169    2.599564   -1.322609
     73          1           0       14.851053   -2.925995    0.250952
     74          1           0      -15.431932    2.066618    1.560107
     75          1           0       10.005088    2.384334   -0.311587
     76          1           0       -8.957560    0.480959   -0.027047
     77          1           0        9.002839    4.024686    0.085263
     78          1           0        7.156080    4.204555    0.658047
     79          1           0        8.434437    3.627705    1.837529
     80          1           0       -8.167647   -3.437031   -0.568402
     81          1           0       -8.099801   -2.775289   -2.052167
     82          1           0       -6.581980   -3.083314   -1.002594
     83          1           0        7.006451    0.329647   -0.676173
     84          1           0       -6.535962    0.307964    0.109524
     85          1           0        5.492002    2.963500    0.388672
     86          1           0       -4.866173   -2.286267   -0.825954
     87          1           0        4.576307    0.063385   -0.034375
     88          1           0       -4.376157    0.687098    0.338811
     89          1           0        3.285537    3.261306    1.394706
     90          1           0        1.645203    3.245553    0.547799
     91          1           0        3.344614    3.750729   -0.244730
     92          1           0       -2.636126   -2.915353    0.480043
     93          1           0       -3.100217   -2.802675   -1.259254
     94          1           0       -1.180404   -2.575557   -0.572589
     95          1           0        2.327537   -0.394881   -0.193698
     96          1           0       -1.880106    1.164305    0.280643
     97          1           0        0.497223    1.954409    0.112166
     98          1           0        0.236859   -1.122801   -0.065737
 ---------------------------------------------------------------------

 SCF Done:  E(RCAM-B3LYP) =  -1706.84854881     A.U. after   14 cycles

 Excitation energies and oscillator strengths:

 Excited State   1:      Singlet-A      2.7410 eV  452.34 nm  f=3.6362  <S**2>=0.000
     155 ->158        -0.16663
     156 ->157         0.68199
 This state for optimization and/or second-order correction.
 Total Energy, E(TD-HF/TD-DFT) =  -1706.74781975
 Copying the excited state density for this state as the 1-particle RhoCI density.

 The electronic state is 1-A.
 Alpha  occ. eigenvalues --  -19.22379 -19.21414 -10.29889 -10.29066 -10.28998
 Alpha  occ. eigenvalues --  -10.28040 -10.27797 -10.27659 -10.27581 -10.27553
 Alpha  occ. eigenvalues --  -10.27476 -10.27466 -10.27445 -10.27411 -10.27293
 Alpha  occ. eigenvalues --  -10.27219 -10.27009 -10.27002 -10.26956 -10.26895
 Alpha  occ. eigenvalues --  -10.26815 -10.26814 -10.26633 -10.26077 -10.25979
 Alpha  occ. eigenvalues --  -10.25873 -10.25819 -10.25705 -10.25645 -10.25639
 Alpha  occ. eigenvalues --  -10.25551 -10.25470 -10.25413 -10.25358 -10.25329
 Alpha  occ. eigenvalues --  -10.25255 -10.25031 -10.24964 -10.24739 -10.24620
 Alpha  occ. eigenvalues --  -10.23988 -10.23928  -1.08129  -1.06150  -0.94720
 Alpha  occ. eigenvalues --   -0.94203  -0.92467  -0.91928  -0.90886  -0.90182
 Alpha  occ. eigenvalues --   -0.87690  -0.87631  -0.86790  -0.86090  -0.84590
 Alpha  occ. eigenvalues --   -0.83727  -0.81743  -0.80076  -0.79222  -0.77865
 Alpha  occ. eigenvalues --   -0.76883  -0.76865  -0.76312  -0.76260  -0.75524
 Alpha  occ. eigenvalues --   -0.75056  -0.74976  -0.74747  -0.74015  -0.70812
 Alpha  occ. eigenvalues --   -0.69155  -0.68143  -0.65654  -0.65298  -0.64545
 Alpha  occ. eigenvalues --   -0.63807  -0.62783  -0.62354  -0.61226  -0.59739
 Alpha  occ. eigenvalues --   -0.59217  -0.59064  -0.58315  -0.57782  -0.56396
 Alpha  occ. eigenvalues --   -0.55666  -0.55402  -0.55336  -0.54232  -0.54006
 Alpha  occ. eigenvalues --   -0.53027  -0.52606  -0.52273  -0.51543  -0.51044
 Alpha  occ. eigenvalues --   -0.50860  -0.50516  -0.49712  -0.49508  -0.49314
 Alpha  occ. eigenvalues --   -0.48627  -0.48257  -0.47735  -0.47674  -0.47118
 Alpha  occ. eigenvalues --   -0.47035  -0.46701  -0.46436  -0.45803  -0.45715
 Alpha  occ. eigenvalues --   -0.45556  -0.45199  -0.44802  -0.44757  -0.44461
 Alpha  occ. eigenvalues --   -0.44348  -0.44155  -0.43940  -0.43573  -0.43349
 Alpha  occ. eigenvalues --   -0.43145  -0.42964  -0.42541  -0.42404  -0.42281
 Alpha  occ. eigenvalues --   -0.41697  -0.41668  -0.41574  -0.41354  -0.40671
 Alpha  occ. eigenvalues --   -0.40628  -0.40226  -0.39975  -0.39480  -0.39287
 Alpha  occ. eigenvalues --   -0.38696  -0.38546  -0.38466  -0.38045  -0.37742
 Alpha  occ. eigenvalues --   -0.37577  -0.36859  -0.36632  -0.36309  -0.35781
 Alpha  occ. eigenvalues --   -0.35078  -0.34381  -0.33545  -0.32678  -0.31846
 Alpha  occ. eigenvalues --   -0.31690  -0.29416  -0.28524  -0.26796  -0.24650
 Alpha  occ. eigenvalues --   -0.20988
 Alpha virt. eigenvalues --   -0.04541  -0.00352   0.02454   0.05829   0.06932
 Alpha virt. eigenvalues --    0.07415   0.08641   0.10309   0.10647   0.10767
 Alpha virt. eigenvalues --    0.11637   0.11712   0.12178   0.12343   0.12608

 Mulliken charges:
               1
     1  O   -0.548068
     2  O   -0.599261
     3  C   -0.038150
     4  C   -0.016469
     5  C   -0.175569
     6  C   -0.180911
     7  C    0.168990
     8  C    0.205387
     9  C    0.092170
    10  C    0.051710
    11  C   -0.175190
    12  C   -0.224294
    13  C    0.032841
    14  C    0.063065
    15  C   -0.281323
    16  C   -0.308945
    17  C   -0.275683
    18  C   -0.307585
    19  C   -0.131894
    20  C   -0.148443
    21  C   -0.347163
    22  C   -0.361045
    23  C   -0.083795
    24  C   -0.095361
    25  C    0.065914
    26  C    0.112780
    27  C   -0.345096
    28  C   -0.359778
    29  C   -0.108407
    30  C   -0.102007
    31  C   -0.082676
    32  C   -0.092424
    33  C   -0.098980
    34  C   -0.087130
    35  C    0.127567
    36  C    0.132138
    37  C   -0.380804
    38  C   -0.365990
    39  C   -0.120613
    40  C   -0.130405
    41  C   -0.071124
    42  C   -0.100949
    43  H    0.105827
    44  H    0.065069
    45  H    0.030039
    46  H    0.111841
    47  H    0.088044
    48  H    0.083866
    49  H    0.091250
    50  H    0.109410
    51  H    0.106115
    52  H    0.101081
    53  H    0.061228
    54  H    0.110197
    55  H    0.112431
    56  H    0.084113
    57  H    0.092082
    58  H    0.111634
    59  H    0.113095
    60  H    0.110302
    61  H    0.091574
    62  H    0.101410
    63  H    0.085917
    64  H    0.102584
    65  H    0.097932
    66  H    0.085413
    67  H    0.125860
    68  H    0.079764
    69  H    0.091958
    70  H    0.107060
    71  H    0.117646
    72  H    0.100032
    73  H    0.281615
    74  H    0.313708
    75  H    0.086317
    76  H    0.086395
    77  H    0.105669
    78  H    0.116635
    79  H    0.132918
    80  H    0.134196
    81  H    0.098164
    82  H    0.086453
    83  H    0.053959
    84  H    0.068559
    85  H    0.068100
    86  H    0.076886
    87  H    0.060963
    88  H    0.065594
    89  H    0.119890
    90  H    0.088366
    91  H    0.121554
    92  H    0.099161
    93  H    0.114401
    94  H    0.101095
    95  H    0.074472
    96  H    0.095296
    97  H    0.077715
    98  H    0.090114
 Sum of Mulliken charges =  -0.00000

 Dipole moment (field-independent basis, Debye):
    X=             -0.0926    Y=             -0.9819    Z=              2.2657  Tot=              2.4710
 Quadrupole moment (field-independent basis, Debye-Ang):
   XX=           -283.5202   YY=           -240.6919   ZZ=           -263.7067
   XY=             -0.9466   XZ=             -3.4416   YZ=              5.5477

 Normal termination of Gaussian 16 at Sun Jul  7 05:17:28 2019.
