 Gaussian 16, Revision A.03,
 Gaussian 16:  ES64L-G16RevA.03 25-Dec-2016

 -------------------------------------
 # td=(NStates=1) CAM-B3LYP/6-31G(d,p)
 -------------------------------------

 --
 TD
 --
 Symbolic Z-matrix:
 Charge =  0 Multiplicity = 1

                         Standard orientation:
 ---------------------------------------------------------------------
 Center     Atomic      Atomic             Coordinates (Angstroms)
 Number     Number       Type             X           Y           Z
 ---------------------------------------------------------------------
      1          8           0       14.654805   -2.291005   -0.667971
      2          8           0      -14.892423    1.969968    0.185039
      3          6           0       11.526549   -1.006344    0.983142
      4          6           0      -12.408841   -0.884012    0.809290
      5          6           0       13.004804   -1.390734    0.888536
      6          6           0      -13.725198   -0.142447    0.583675
      7          6           0       13.384389   -1.921351   -0.449612
      8          6           0      -13.643101    1.383401    0.451209
      9          6           0       10.994119   -0.274722   -0.092927
     10          6           0      -11.323964   -0.368346   -0.172015
     11          6           0       13.075456   -0.848513   -1.500761
     12          6           0      -12.819545    1.641527   -0.849145
     13          6           0       11.637961   -0.133554   -1.269886
     14          6           0      -11.599146    0.697392   -1.024600
     15          6           0       11.468839   -0.143109    2.305425
     16          6           0       10.731630   -2.402510    1.358680
     17          6           0      -11.800300   -0.583587    2.299183
     18          6           0      -12.643189   -2.359766    0.657080
     19          6           0        9.707522    0.294770    0.188282
     20          6           0      -10.097734   -1.160568   -0.285575
     21          6           0       11.213007    0.519614   -2.450352
     22          6           0      -10.656078    1.141611   -2.090731
     23          6           0        9.348847    1.504110   -0.091962
     24          6           0       -8.800368   -0.655202   -0.122573
     25          6           0        8.001831    2.189226    0.281166
     26          6           0       -7.588910   -1.316273   -0.264176
     27          6           0        8.105266    3.666745    0.696967
     28          6           0       -7.586798   -2.834264   -0.714965
     29          6           0        6.859167    1.518099    0.051873
     30          6           0       -6.447490   -0.638768   -0.206041
     31          6           0        5.568693    1.946835    0.251812
     32          6           0       -5.105054   -1.123193   -0.303375
     33          6           0        4.487141    1.159164    0.154049
     34          6           0       -4.077177   -0.254677   -0.178852
     35          6           0        3.060377    1.596175    0.210647
     36          6           0       -2.663373   -0.649821   -0.232382
     37          6           0        2.860588    3.029529    0.601063
     38          6           0       -2.327367   -2.123360   -0.496504
     39          6           0        2.039483    0.720740   -0.092152
     40          6           0       -1.676838    0.270180   -0.105573
     41          6           0        0.651591    0.980891    0.044823
     42          6           0       -0.297674    0.117391   -0.149845
     43          1           0       13.795561   -0.634996    0.945353
     44          1           0       13.334732   -2.240744    1.647908
     45          1           0      -14.447947   -0.331431    1.404612
     46          1           0      -14.215186   -0.612898   -0.171077
     47          1           0       12.633078   -2.702945   -0.732947
     48          1           0      -13.044724    2.002754    1.087148
     49          1           0       13.994374   -0.149643   -1.469434
     50          1           0       13.073492   -1.076305   -2.515468
     51          1           0      -13.407755    1.503770   -1.707779
     52          1           0      -12.536799    2.619101   -0.875276
     53          1           0       11.984581   -0.694257    3.208519
     54          1           0       10.559944    0.037711    2.724634
     55          1           0       11.682378    0.863257    2.224048
     56          1           0       10.411241   -3.128441    0.520666
     57          1           0       11.432157   -2.946783    2.122405
     58          1           0        9.868086   -1.994372    2.018867
     59          1           0      -11.572758    0.458367    2.416320
     60          1           0      -10.908966   -1.091957    2.203648
     61          1           0      -12.354731   -1.008911    3.102752
     62          1           0      -13.534495   -2.551631    1.203893
     63          1           0      -11.778559   -2.862904    0.959328
     64          1           0      -12.762891   -2.664982   -0.374419
     65          1           0        9.063808   -0.314088    0.992289
     66          1           0      -10.280863   -2.133332   -0.271856
     67          1           0       10.242490    0.937878   -2.272483
     68          1           0       12.076153    1.164826   -2.559558
     69          1           0       11.251836   -0.178277   -3.453452
     70          1           0      -11.212514    1.102699   -3.101460
     71          1           0       -9.564487    0.508922   -2.056621
     72          1           0      -10.567994    2.411338   -1.842832
     73          1           0       14.992026   -2.761991    0.144576
     74          1           0      -15.531119    1.934785    1.089634
     75          1           0       10.183639    2.107088   -0.432679
     76          1           0       -8.770514    0.355746   -0.002810
     77          1           0        8.366183    4.177561   -0.229841
     78          1           0        6.948515    3.924892    1.099536
     79          1           0        8.835028    3.610970    1.598704
     80          1           0       -7.940491   -3.480022    0.153468
     81          1           0       -7.900667   -2.981669   -1.650033
     82          1           0       -6.429976   -3.195785   -0.714040
     83          1           0        7.013604    0.476969   -0.357174
     84          1           0       -6.666754    0.346902    0.083620
     85          1           0        5.428114    2.987309    0.502875
     86          1           0       -4.971556   -2.100103   -0.590296
     87          1           0        4.454077    0.198947   -0.413538
     88          1           0       -4.215724    0.718747    0.346935
     89          1           0        3.322574    3.217426    1.532437
     90          1           0        1.833169    3.302451    0.696584
     91          1           0        3.301233    3.775362   -0.050545
     92          1           0       -2.772425   -2.576911    0.239882
     93          1           0       -2.769397   -2.511566   -1.655212
     94          1           0       -1.313095   -2.516381   -0.706687
     95          1           0        2.363330   -0.214893   -0.287388
     96          1           0       -1.989581    1.457443    0.090973
     97          1           0        0.419852    1.941723    0.273775
     98          1           0       -0.137008   -0.892125   -0.314414
 ---------------------------------------------------------------------

 SCF Done:  E(RCAM-B3LYP) =  -1706.96027943     A.U. after   14 cycles

 Excitation energies and oscillator strengths:

 Excited State   1:      Singlet-A      2.8049 eV  442.03 nm  f=3.8630  <S**2>=0.000
     155 ->158        -0.18592
     156 ->157         0.67551
 This state for optimization and/or second-order correction.
 Total Energy, E(TD-HF/TD-DFT) =  -1706.85720091
 Copying the excited state density for this state as the 1-particle RhoCI density.

 The electronic state is 1-A.
 Alpha  occ. eigenvalues --  -19.22146 -19.22098 -10.29856 -10.29331 -10.28215
 Alpha  occ. eigenvalues --  -10.28055 -10.27831 -10.27674 -10.27611 -10.27348
 Alpha  occ. eigenvalues --  -10.27284 -10.27024 -10.26678 -10.26625 -10.26610
 Alpha  occ. eigenvalues --  -10.26515 -10.26417 -10.26294 -10.26151 -10.26115
 Alpha  occ. eigenvalues --  -10.26028 -10.25755 -10.25732 -10.25662 -10.25589
 Alpha  occ. eigenvalues --  -10.25479 -10.25236 -10.25216 -10.25182 -10.25149
 Alpha  occ. eigenvalues --  -10.25028 -10.24892 -10.24843 -10.24819 -10.24767
 Alpha  occ. eigenvalues --  -10.24410 -10.24290 -10.23914 -10.23898 -10.23542
 Alpha  occ. eigenvalues --  -10.23540 -10.23044  -1.12086  -1.07705  -0.94815
 Alpha  occ. eigenvalues --   -0.92911  -0.92407  -0.91759  -0.91024  -0.89746
 Alpha  occ. eigenvalues --   -0.87888  -0.87218  -0.86387  -0.86106  -0.84918
 Alpha  occ. eigenvalues --   -0.83296  -0.82230  -0.80776  -0.79331  -0.78602
 Alpha  occ. eigenvalues --   -0.77030  -0.76666  -0.76574  -0.76356  -0.75977
 Alpha  occ. eigenvalues --   -0.75904  -0.75065  -0.74583  -0.73841  -0.70954
 Alpha  occ. eigenvalues --   -0.68551  -0.67325  -0.66154  -0.65497  -0.65175
 Alpha  occ. eigenvalues --   -0.63504  -0.63002  -0.62479  -0.61130  -0.60472
 Alpha  occ. eigenvalues --   -0.59567  -0.58684  -0.58150  -0.57459  -0.56668
 Alpha  occ. eigenvalues --   -0.56417  -0.55282  -0.55048  -0.54415  -0.53982
 Alpha  occ. eigenvalues --   -0.53437  -0.52737  -0.52212  -0.51862  -0.51061
 Alpha  occ. eigenvalues --   -0.50748  -0.50580  -0.50454  -0.50286  -0.49904
 Alpha  occ. eigenvalues --   -0.49203  -0.48950  -0.48682  -0.48308  -0.47921
 Alpha  occ. eigenvalues --   -0.47792  -0.47543  -0.47444  -0.46980  -0.46923
 Alpha  occ. eigenvalues --   -0.46514  -0.46128  -0.45448  -0.45364  -0.44971
 Alpha  occ. eigenvalues --   -0.44769  -0.44649  -0.44226  -0.43656  -0.43330
 Alpha  occ. eigenvalues --   -0.42909  -0.42584  -0.42431  -0.41799  -0.41577
 Alpha  occ. eigenvalues --   -0.41365  -0.41249  -0.40828  -0.40695  -0.40444
 Alpha  occ. eigenvalues --   -0.40437  -0.40135  -0.39764  -0.39643  -0.39561
 Alpha  occ. eigenvalues --   -0.39147  -0.39077  -0.38984  -0.38679  -0.37899
 Alpha  occ. eigenvalues --   -0.37591  -0.37208  -0.36881  -0.36726  -0.35632
 Alpha  occ. eigenvalues --   -0.35566  -0.34480  -0.33748  -0.32746  -0.32330
 Alpha  occ. eigenvalues --   -0.31360  -0.29585  -0.27769  -0.26015  -0.23771
 Alpha  occ. eigenvalues --   -0.20886
 Alpha virt. eigenvalues --   -0.04118  -0.00340   0.03017   0.05503   0.07940
 Alpha virt. eigenvalues --    0.09702   0.10032   0.10938   0.11513   0.11732
 Alpha virt. eigenvalues --    0.12183   0.12883   0.13306   0.13849   0.14194

 Mulliken charges:
               1
     1  O   -0.538478
     2  O   -0.565892
     3  C   -0.048643
     4  C   -0.024826
     5  C   -0.177898
     6  C   -0.177559
     7  C    0.183584
     8  C    0.174105
     9  C    0.124606
    10  C    0.040556
    11  C   -0.219742
    12  C   -0.221700
    13  C    0.042059
    14  C    0.052732
    15  C   -0.309511
    16  C   -0.299009
    17  C   -0.306678
    18  C   -0.314345
    19  C   -0.104166
    20  C   -0.136513
    21  C   -0.366203
    22  C   -0.333901
    23  C   -0.137298
    24  C   -0.111229
    25  C    0.024783
    26  C    0.118028
    27  C   -0.341294
    28  C   -0.362774
    29  C   -0.078649
    30  C   -0.112520
    31  C   -0.072227
    32  C   -0.076094
    33  C   -0.129851
    34  C   -0.106220
    35  C    0.096139
    36  C    0.081092
    37  C   -0.387099
    38  C   -0.356093
    39  C   -0.114330
    40  C   -0.124702
    41  C   -0.063000
    42  C   -0.040091
    43  H    0.098394
    44  H    0.057153
    45  H    0.062019
    46  H    0.110047
    47  H    0.054604
    48  H    0.089361
    49  H    0.090442
    50  H    0.108064
    51  H    0.120928
    52  H    0.107370
    53  H    0.082760
    54  H    0.103500
    55  H    0.111975
    56  H    0.113230
    57  H    0.093353
    58  H    0.098252
    59  H    0.103614
    60  H    0.110596
    61  H    0.096554
    62  H    0.107149
    63  H    0.106943
    64  H    0.107370
    65  H    0.086173
    66  H    0.075545
    67  H    0.118427
    68  H    0.126448
    69  H    0.093672
    70  H    0.109224
    71  H    0.107017
    72  H    0.065459
    73  H    0.304617
    74  H    0.300011
    75  H    0.094869
    76  H    0.085476
    77  H    0.140596
    78  H    0.086718
    79  H    0.121522
    80  H    0.116236
    81  H    0.140298
    82  H    0.074546
    83  H    0.084261
    84  H    0.072390
    85  H    0.081451
    86  H    0.090076
    87  H    0.080798
    88  H    0.094017
    89  H    0.126591
    90  H    0.108285
    91  H    0.122148
    92  H    0.139945
    93  H    0.074149
    94  H    0.123070
    95  H    0.067937
    96  H    0.047380
    97  H    0.068831
    98  H    0.058992
 Sum of Mulliken charges =  -0.00000

 Dipole moment (field-independent basis, Debye):
    X=              0.6949    Y=             -0.6728    Z=              2.5618  Tot=              2.7383
 Quadrupole moment (field-independent basis, Debye-Ang):
   XX=           -254.1496   YY=           -246.5901   ZZ=           -261.2238
   XY=             12.1926   XZ=             -2.2887   YZ=              2.1676

 Normal termination of Gaussian 16 at Sat Jun 29 14:28:44 2019.
