 Gaussian 16, Revision A.03,
 Gaussian 16:  ES64L-G16RevA.03 25-Dec-2016

 -------------------------------------
 # td=(NStates=1) CAM-B3LYP/6-31G(d,p)
 -------------------------------------

 --
 TD
 --
 Symbolic Z-matrix:
 Charge =  0 Multiplicity = 1

                         Standard orientation:
 ---------------------------------------------------------------------
 Center     Atomic      Atomic             Coordinates (Angstroms)
 Number     Number       Type             X           Y           Z
 ---------------------------------------------------------------------
      1          8           0       14.759769   -2.199116   -0.479822
      2          8           0      -14.842918    2.095814    0.496133
      3          6           0       11.505020   -1.042547    1.214814
      4          6           0      -12.362475   -0.845878    0.699789
      5          6           0       13.063007   -1.399654    1.030413
      6          6           0      -13.743921   -0.145068    0.800370
      7          6           0       13.395196   -1.911296   -0.286118
      8          6           0      -13.548780    1.401418    0.629298
      9          6           0       10.922698   -0.284888   -0.051282
     10          6           0      -11.314959   -0.299915   -0.145088
     11          6           0       13.073949   -0.916075   -1.348950
     12          6           0      -12.819150    1.657880   -0.593614
     13          6           0       11.718264   -0.243216   -1.220706
     14          6           0      -11.582226    0.854659   -0.817290
     15          6           0       11.340078   -0.196911    2.463205
     16          6           0       10.695080   -2.343635    1.325281
     17          6           0      -11.701879   -0.895149    2.196272
     18          6           0      -12.612082   -2.320835    0.210294
     19          6           0        9.608682    0.349661    0.113568
     20          6           0      -10.031047   -1.000264   -0.265307
     21          6           0       11.053405    0.388339   -2.403575
     22          6           0      -10.634085    1.412972   -1.865903
     23          6           0        9.360277    1.737336   -0.105084
     24          6           0       -8.813027   -0.489093   -0.271422
     25          6           0        8.018674    2.322794   -0.045178
     26          6           0       -7.628872   -1.315525   -0.449867
     27          6           0        8.066830    3.860133    0.309402
     28          6           0       -7.760260   -2.768651   -0.732087
     29          6           0        6.897312    1.535842   -0.073208
     30          6           0       -6.442912   -0.680653   -0.287120
     31          6           0        5.557677    1.929890    0.101017
     32          6           0       -5.125566   -1.223732   -0.392098
     33          6           0        4.422747    1.194072   -0.030468
     34          6           0       -4.033253   -0.447998   -0.180375
     35          6           0        3.125579    1.744799    0.263189
     36          6           0       -2.609934   -0.956517   -0.293519
     37          6           0        2.924667    3.052423    0.691976
     38          6           0       -2.317923   -2.282914   -0.719147
     39          6           0        2.070019    0.727631   -0.032507
     40          6           0       -1.634293    0.026070   -0.114485
     41          6           0        0.675847    0.851710    0.068746
     42          6           0       -0.208211   -0.117757   -0.143122
     43          1           0       13.757115   -0.498017    1.184212
     44          1           0       13.217439   -2.163552    1.880618
     45          1           0      -14.295460   -0.326940    1.748976
     46          1           0      -14.378695   -0.452517   -0.057090
     47          1           0       12.829989   -2.775310   -0.566236
     48          1           0      -13.034760    1.776424    1.587802
     49          1           0       13.860603   -0.208118   -1.235006
     50          1           0       13.080799   -1.346650   -2.358809
     51          1           0      -13.532155    1.605595   -1.520610
     52          1           0      -12.413620    2.716870   -0.832878
     53          1           0       11.854395   -0.681544    3.369696
     54          1           0       10.279295    0.009703    2.641426
     55          1           0       11.865917    0.818426    2.169540
     56          1           0       10.780347   -3.004892    0.523836
     57          1           0       11.108123   -2.839778    2.103135
     58          1           0        9.556297   -2.079345    1.458651
     59          1           0      -11.501694    0.183178    2.428310
     60          1           0      -10.885537   -1.682150    2.175643
     61          1           0      -12.450902   -1.255476    2.862821
     62          1           0      -13.436403   -2.686640    0.775961
     63          1           0      -11.806054   -2.971154    0.450990
     64          1           0      -12.816828   -2.277343   -0.747363
     65          1           0        8.961662   -0.229266    0.484778
     66          1           0      -10.189426   -2.062335   -0.276412
     67          1           0        9.983862    0.609771   -2.360101
     68          1           0       11.411453    1.510304   -2.416548
     69          1           0       11.235128   -0.155304   -3.350256
     70          1           0      -11.171437    1.619817   -2.776384
     71          1           0       -9.896603    0.711872   -2.165498
     72          1           0       -9.947039    2.270486   -1.547994
     73          1           0       14.874146   -2.822205    0.184403
     74          1           0      -15.251587    2.409670    1.334424
     75          1           0       10.114020    2.324688   -0.663738
     76          1           0       -8.489104    0.587270   -0.308969
     77          1           0        8.273076    4.339005   -0.693602
     78          1           0        6.962137    4.257192    0.360902
     79          1           0        8.571760    4.080560    1.354556
     80          1           0       -8.624226   -3.461778   -0.236719
     81          1           0       -8.194482   -3.065116   -1.718840
     82          1           0       -6.853785   -3.278949   -0.888057
     83          1           0        6.918898    0.557601   -0.349955
     84          1           0       -6.385825    0.250504   -0.204935
     85          1           0        5.304555    2.936908    0.370479
     86          1           0       -4.865717   -2.231575   -0.467829
     87          1           0        4.644234    0.116534   -0.210054
     88          1           0       -4.107863    0.637651   -0.048085
     89          1           0        3.717848    3.393744    1.607570
     90          1           0        1.776271    3.311071    1.263964
     91          1           0        2.988843    3.819803    0.055528
     92          1           0       -2.686602   -3.097241    0.146971
     93          1           0       -2.992796   -2.644092   -1.575681
     94          1           0       -1.272911   -2.587000   -0.931826
     95          1           0        2.376857   -0.303843    0.049079
     96          1           0       -2.143849    0.847152    0.300162
     97          1           0        0.340304    1.935074    0.275831
     98          1           0        0.224276   -1.139052   -0.271949
 ---------------------------------------------------------------------

 SCF Done:  E(RCAM-B3LYP) =  -1707.01144682     A.U. after   15 cycles

 Excitation energies and oscillator strengths:

 Excited State   1:      Singlet-A      2.4138 eV  513.66 nm  f=3.4215  <S**2>=0.000
     155 ->158        -0.15209
     156 ->157         0.68593
 This state for optimization and/or second-order correction.
 Total Energy, E(TD-HF/TD-DFT) =  -1706.92274277
 Copying the excited state density for this state as the 1-particle RhoCI density.

 The electronic state is 1-A.
 Alpha  occ. eigenvalues --  -19.21015 -19.20549 -10.31232 -10.29287 -10.28607
 Alpha  occ. eigenvalues --  -10.28041 -10.27864 -10.27689 -10.27647 -10.27599
 Alpha  occ. eigenvalues --  -10.27276 -10.27081 -10.26890 -10.26859 -10.26824
 Alpha  occ. eigenvalues --  -10.26656 -10.26549 -10.26539 -10.26359 -10.26284
 Alpha  occ. eigenvalues --  -10.26086 -10.26055 -10.25820 -10.25818 -10.25746
 Alpha  occ. eigenvalues --  -10.25706 -10.25633 -10.25609 -10.25582 -10.25570
 Alpha  occ. eigenvalues --  -10.25379 -10.25220 -10.25080 -10.25070 -10.24841
 Alpha  occ. eigenvalues --  -10.24770 -10.24737 -10.24703 -10.24325 -10.24096
 Alpha  occ. eigenvalues --  -10.24075 -10.22797  -1.11835  -1.06824  -0.93803
 Alpha  occ. eigenvalues --   -0.92813  -0.92241  -0.91879  -0.90693  -0.89565
 Alpha  occ. eigenvalues --   -0.87659  -0.86632  -0.86273  -0.85935  -0.85306
 Alpha  occ. eigenvalues --   -0.83387  -0.82646  -0.79922  -0.79704  -0.78659
 Alpha  occ. eigenvalues --   -0.77226  -0.76602  -0.76448  -0.76158  -0.75905
 Alpha  occ. eigenvalues --   -0.75773  -0.74641  -0.74387  -0.73605  -0.70280
 Alpha  occ. eigenvalues --   -0.69237  -0.67586  -0.65632  -0.65239  -0.63679
 Alpha  occ. eigenvalues --   -0.63308  -0.62538  -0.62009  -0.61117  -0.60853
 Alpha  occ. eigenvalues --   -0.60222  -0.59801  -0.58843  -0.58288  -0.56155
 Alpha  occ. eigenvalues --   -0.55887  -0.55471  -0.54891  -0.54200  -0.53812
 Alpha  occ. eigenvalues --   -0.53334  -0.53135  -0.51968  -0.51376  -0.51011
 Alpha  occ. eigenvalues --   -0.50866  -0.50492  -0.50040  -0.49838  -0.49565
 Alpha  occ. eigenvalues --   -0.49012  -0.48491  -0.48187  -0.48050  -0.47690
 Alpha  occ. eigenvalues --   -0.47386  -0.47156  -0.46880  -0.46811  -0.46311
 Alpha  occ. eigenvalues --   -0.45893  -0.45771  -0.45725  -0.45217  -0.44750
 Alpha  occ. eigenvalues --   -0.44590  -0.44373  -0.44313  -0.43894  -0.43826
 Alpha  occ. eigenvalues --   -0.43200  -0.43003  -0.42873  -0.42379  -0.42317
 Alpha  occ. eigenvalues --   -0.41846  -0.41378  -0.41185  -0.40943  -0.40762
 Alpha  occ. eigenvalues --   -0.40694  -0.40464  -0.40078  -0.39224  -0.38999
 Alpha  occ. eigenvalues --   -0.38942  -0.38786  -0.38483  -0.38380  -0.37887
 Alpha  occ. eigenvalues --   -0.37671  -0.37624  -0.37105  -0.36897  -0.35770
 Alpha  occ. eigenvalues --   -0.35733  -0.34677  -0.33343  -0.33033  -0.31455
 Alpha  occ. eigenvalues --   -0.31212  -0.29041  -0.27366  -0.25647  -0.23424
 Alpha  occ. eigenvalues --   -0.19927
 Alpha virt. eigenvalues --   -0.05088  -0.00609   0.01910   0.05751   0.07642
 Alpha virt. eigenvalues --    0.08991   0.10245   0.11480   0.11807   0.12054
 Alpha virt. eigenvalues --    0.12104   0.12796   0.13077   0.13414   0.13762

 Mulliken charges:
               1
     1  O   -0.535418
     2  O   -0.583272
     3  C   -0.025719
     4  C   -0.069139
     5  C   -0.193330
     6  C   -0.183350
     7  C    0.154915
     8  C    0.160012
     9  C    0.029058
    10  C    0.119403
    11  C   -0.215879
    12  C   -0.208611
    13  C    0.050428
    14  C    0.033928
    15  C   -0.282004
    16  C   -0.292204
    17  C   -0.302403
    18  C   -0.309345
    19  C   -0.082605
    20  C   -0.137910
    21  C   -0.367712
    22  C   -0.376180
    23  C   -0.105259
    24  C   -0.079128
    25  C    0.043661
    26  C    0.152733
    27  C   -0.360344
    28  C   -0.392457
    29  C   -0.083634
    30  C   -0.105101
    31  C   -0.086727
    32  C   -0.078483
    33  C   -0.097877
    34  C   -0.128166
    35  C    0.126065
    36  C    0.142461
    37  C   -0.387184
    38  C   -0.395018
    39  C   -0.138346
    40  C   -0.123975
    41  C   -0.053801
    42  C   -0.096680
    43  H    0.098771
    44  H    0.071399
    45  H    0.092452
    46  H    0.105102
    47  H    0.080046
    48  H    0.076409
    49  H    0.126029
    50  H    0.108760
    51  H    0.112835
    52  H    0.102607
    53  H    0.088188
    54  H    0.106076
    55  H    0.095233
    56  H    0.112024
    57  H    0.101890
    58  H    0.086598
    59  H    0.102632
    60  H    0.103747
    61  H    0.095995
    62  H    0.099978
    63  H    0.097610
    64  H    0.118255
    65  H    0.072759
    66  H    0.076504
    67  H    0.129506
    68  H    0.095313
    69  H    0.098667
    70  H    0.107270
    71  H    0.122895
    72  H    0.099504
    73  H    0.295358
    74  H    0.306015
    75  H    0.090581
    76  H    0.088135
    77  H    0.129523
    78  H    0.095445
    79  H    0.130479
    80  H    0.101508
    81  H    0.119253
    82  H    0.115753
    83  H    0.072422
    84  H    0.052637
    85  H    0.057925
    86  H    0.076422
    87  H    0.078054
    88  H    0.083896
    89  H    0.102780
    90  H    0.081734
    91  H    0.152989
    92  H    0.091796
    93  H    0.118529
    94  H    0.121452
    95  H    0.084570
    96  H    0.079180
    97  H    0.071252
    98  H    0.081860
 Sum of Mulliken charges =  -0.00000

 Dipole moment (field-independent basis, Debye):
    X=             -0.4621    Y=             -1.0721    Z=              1.9283  Tot=              2.2542
 Quadrupole moment (field-independent basis, Debye-Ang):
   XX=           -283.6448   YY=           -240.0043   ZZ=           -261.6186
   XY=              0.1845   XZ=             -1.4708   YZ=              3.3706

 Normal termination of Gaussian 16 at Wed Jul  3 14:10:46 2019.
