 Gaussian 16, Revision A.03,
 Gaussian 16:  ES64L-G16RevA.03 25-Dec-2016

 -------------------------------------
 # td=(NStates=1) CAM-B3LYP/6-31G(d,p)
 -------------------------------------

 --
 TD
 --
 Symbolic Z-matrix:
 Charge =  0 Multiplicity = 1

                         Standard orientation:
 ---------------------------------------------------------------------
 Center     Atomic      Atomic             Coordinates (Angstroms)
 Number     Number       Type             X           Y           Z
 ---------------------------------------------------------------------
      1          8           0       14.528240   -2.444554   -0.476628
      2          8           0      -14.863625    1.923036    0.638199
      3          6           0       11.423928   -1.160612    1.173759
      4          6           0      -12.314520   -0.964589    0.636418
      5          6           0       12.889962   -1.517431    1.024602
      6          6           0      -13.628355   -0.260658    0.639392
      7          6           0       13.200491   -1.959754   -0.446871
      8          6           0      -13.571390    1.193462    0.736630
      9          6           0       10.889916   -0.291725   -0.017806
     10          6           0      -11.266365   -0.301385   -0.330861
     11          6           0       12.969664   -0.934011   -1.412437
     12          6           0      -12.907630    1.639193   -0.525623
     13          6           0       11.646465   -0.223797   -1.240306
     14          6           0      -11.607992    0.872847   -0.854993
     15          6           0       11.332265   -0.409558    2.537101
     16          6           0       10.600679   -2.444803    1.241650
     17          6           0      -11.795129   -0.986345    2.089988
     18          6           0      -12.597742   -2.453346    0.276480
     19          6           0        9.602059    0.352069    0.123991
     20          6           0      -10.005437   -1.103069   -0.499401
     21          6           0       11.106074    0.502999   -2.444887
     22          6           0      -10.813251    1.516660   -1.851495
     23          6           0        9.413135    1.619257   -0.104730
     24          6           0       -8.796592   -0.595715   -0.328520
     25          6           0        8.081924    2.296645    0.027671
     26          6           0       -7.480953   -1.306397   -0.455698
     27          6           0        8.202049    3.751998    0.294461
     28          6           0       -7.599608   -2.705801   -0.886767
     29          6           0        6.965636    1.619900   -0.096875
     30          6           0       -6.349392   -0.570553   -0.164674
     31          6           0        5.598943    2.178358    0.058410
     32          6           0       -5.054421   -1.112390   -0.285913
     33          6           0        4.499217    1.379048    0.004815
     34          6           0       -3.978561   -0.280765   -0.272557
     35          6           0        3.117453    1.750022    0.350427
     36          6           0       -2.533026   -0.677691   -0.322009
     37          6           0        2.840605    3.067779    0.901025
     38          6           0       -2.278015   -2.077592   -0.621726
     39          6           0        2.185968    0.819719    0.175196
     40          6           0       -1.594251    0.276433   -0.126560
     41          6           0        0.733377    0.965132    0.234101
     42          6           0       -0.171089    0.049117   -0.084833
     43          1           0       13.524356   -0.667978    1.286448
     44          1           0       12.973731   -2.335386    1.703053
     45          1           0      -14.400894   -0.587030    1.362484
     46          1           0      -14.120588   -0.342859   -0.321342
     47          1           0       12.601563   -2.878372   -0.589296
     48          1           0      -13.077889    1.384231    1.539797
     49          1           0       13.781075   -0.040731   -1.349634
     50          1           0       13.085829   -1.367547   -2.364215
     51          1           0      -13.925715    1.481843   -1.285517
     52          1           0      -12.532159    2.782700   -0.448676
     53          1           0       12.025660   -0.893818    3.285033
     54          1           0       10.335892   -0.201021    2.805789
     55          1           0       11.794803    0.632755    2.406210
     56          1           0       10.794152   -3.076704    0.342756
     57          1           0       10.671890   -2.866303    2.195882
     58          1           0        9.480840   -2.323781    1.278627
     59          1           0      -11.699721    0.008720    2.645312
     60          1           0      -10.706674   -1.371495    2.274426
     61          1           0      -12.580488   -1.719534    2.813232
     62          1           0      -13.321237   -2.808783    0.893037
     63          1           0      -11.634251   -3.127811    0.168787
     64          1           0      -13.209995   -2.461517   -0.701294
     65          1           0        8.798843   -0.278137    0.423925
     66          1           0       -9.977157   -2.241290   -0.536904
     67          1           0       10.065704    0.686600   -2.250135
     68          1           0       11.533348    1.341092   -2.460312
     69          1           0       11.230899   -0.129737   -3.276650
     70          1           0      -11.449531    1.877042   -2.762600
     71          1           0      -10.092241    1.014768   -2.274921
     72          1           0      -10.412009    2.461114   -1.512861
     73          1           0       14.603898   -3.100826    0.121106
     74          1           0      -15.233950    1.807955    1.572133
     75          1           0       10.075815    2.294838   -0.584072
     76          1           0       -8.663297    0.509358   -0.068326
     77          1           0        8.673948    4.369627   -0.535930
     78          1           0        7.139354    4.271379    0.386812
     79          1           0        8.773515    3.920499    1.166418
     80          1           0       -8.423631   -3.354048   -0.274961
     81          1           0       -8.003666   -2.826685   -1.890373
     82          1           0       -6.710919   -3.185297   -0.778343
     83          1           0        7.122518    0.598430   -0.731055
     84          1           0       -6.538959    0.285420    0.251648
     85          1           0        5.412177    3.308409    0.382138
     86          1           0       -4.808074   -2.147594   -0.737645
     87          1           0        4.389241    0.222830   -0.242358
     88          1           0       -4.139263    0.843535    0.076824
     89          1           0        3.625736    3.213429    1.659650
     90          1           0        1.894891    3.420539    1.193303
     91          1           0        3.168785    3.738567   -0.061032
     92          1           0       -2.605720   -2.902506   -0.017387
     93          1           0       -2.613524   -2.169235   -1.606864
     94          1           0       -1.136020   -2.358205   -0.721045
     95          1           0        2.476479   -0.136776   -0.165905
     96          1           0       -1.867424    1.284507    0.116869
     97          1           0        0.516190    2.169188    0.359377
     98          1           0        0.260379   -0.932137   -0.357435
 ---------------------------------------------------------------------

 SCF Done:  E(RCAM-B3LYP) =  -1707.00595039     A.U. after   13 cycles

 Excitation energies and oscillator strengths:

 Excited State   1:      Singlet-A      3.0835 eV  402.09 nm  f=3.6581  <S**2>=0.000
     155 ->158        -0.18736
     156 ->157         0.67317
 This state for optimization and/or second-order correction.
 Total Energy, E(TD-HF/TD-DFT) =  -1706.89263442
 Copying the excited state density for this state as the 1-particle RhoCI density.

 The electronic state is 1-A.
 Alpha  occ. eigenvalues --  -19.21747 -19.19544 -10.29817 -10.28063 -10.27788
 Alpha  occ. eigenvalues --  -10.27679 -10.27524 -10.27341 -10.27322 -10.27179
 Alpha  occ. eigenvalues --  -10.27169 -10.27166 -10.27151 -10.27134 -10.26945
 Alpha  occ. eigenvalues --  -10.26818 -10.26695 -10.26497 -10.26325 -10.26295
 Alpha  occ. eigenvalues --  -10.26279 -10.26249 -10.26198 -10.26188 -10.26123
 Alpha  occ. eigenvalues --  -10.26048 -10.26041 -10.25914 -10.25798 -10.25674
 Alpha  occ. eigenvalues --  -10.25593 -10.25377 -10.25218 -10.25104 -10.25038
 Alpha  occ. eigenvalues --  -10.25028 -10.24732 -10.24522 -10.24200 -10.23856
 Alpha  occ. eigenvalues --  -10.23089 -10.22458  -1.10725  -1.07393  -0.93992
 Alpha  occ. eigenvalues --   -0.93372  -0.92436  -0.91960  -0.91019  -0.90543
 Alpha  occ. eigenvalues --   -0.87703  -0.87561  -0.86997  -0.86071  -0.85413
 Alpha  occ. eigenvalues --   -0.83781  -0.82551  -0.81157  -0.80770  -0.78882
 Alpha  occ. eigenvalues --   -0.77247  -0.76718  -0.76489  -0.76126  -0.75943
 Alpha  occ. eigenvalues --   -0.75364  -0.74810  -0.74523  -0.73887  -0.70197
 Alpha  occ. eigenvalues --   -0.68913  -0.67512  -0.65841  -0.64982  -0.63810
 Alpha  occ. eigenvalues --   -0.63122  -0.62575  -0.60894  -0.60811  -0.60370
 Alpha  occ. eigenvalues --   -0.59184  -0.58947  -0.58516  -0.57592  -0.56408
 Alpha  occ. eigenvalues --   -0.55980  -0.55621  -0.55116  -0.54851  -0.54265
 Alpha  occ. eigenvalues --   -0.53403  -0.53080  -0.52301  -0.51616  -0.51411
 Alpha  occ. eigenvalues --   -0.50970  -0.50519  -0.50151  -0.50079  -0.49739
 Alpha  occ. eigenvalues --   -0.49598  -0.49404  -0.48917  -0.48634  -0.48306
 Alpha  occ. eigenvalues --   -0.48063  -0.47796  -0.47006  -0.46817  -0.46658
 Alpha  occ. eigenvalues --   -0.46392  -0.46120  -0.45707  -0.45454  -0.45061
 Alpha  occ. eigenvalues --   -0.44453  -0.44022  -0.43669  -0.43255  -0.42895
 Alpha  occ. eigenvalues --   -0.42649  -0.42563  -0.42321  -0.41866  -0.41758
 Alpha  occ. eigenvalues --   -0.41541  -0.41315  -0.41218  -0.41048  -0.40619
 Alpha  occ. eigenvalues --   -0.40398  -0.39982  -0.39666  -0.39478  -0.39242
 Alpha  occ. eigenvalues --   -0.39128  -0.38910  -0.38743  -0.38602  -0.37856
 Alpha  occ. eigenvalues --   -0.37748  -0.37354  -0.37052  -0.36756  -0.36307
 Alpha  occ. eigenvalues --   -0.36173  -0.34919  -0.34145  -0.32886  -0.32331
 Alpha  occ. eigenvalues --   -0.30803  -0.29645  -0.27992  -0.26325  -0.24412
 Alpha  occ. eigenvalues --   -0.21618
 Alpha virt. eigenvalues --   -0.03366   0.00141   0.03140   0.05915   0.07739
 Alpha virt. eigenvalues --    0.09253   0.11055   0.11427   0.11767   0.12208
 Alpha virt. eigenvalues --    0.12341   0.12629   0.12834   0.13056   0.13861

 Mulliken charges:
               1
     1  O   -0.554664
     2  O   -0.561900
     3  C   -0.005745
     4  C   -0.009179
     5  C   -0.194764
     6  C   -0.175641
     7  C    0.171966
     8  C    0.149904
     9  C    0.036070
    10  C    0.069452
    11  C   -0.196604
    12  C   -0.205489
    13  C    0.006466
    14  C    0.061439
    15  C   -0.312355
    16  C   -0.312274
    17  C   -0.282396
    18  C   -0.286633
    19  C   -0.121882
    20  C   -0.140774
    21  C   -0.342390
    22  C   -0.362846
    23  C   -0.082952
    24  C   -0.085383
    25  C    0.097272
    26  C    0.111236
    27  C   -0.372629
    28  C   -0.378522
    29  C   -0.126626
    30  C   -0.084252
    31  C   -0.143571
    32  C   -0.098914
    33  C   -0.082763
    34  C   -0.119189
    35  C    0.146660
    36  C    0.126944
    37  C   -0.371273
    38  C   -0.394799
    39  C   -0.153851
    40  C   -0.123310
    41  C   -0.069679
    42  C   -0.092038
    43  H    0.103679
    44  H    0.082467
    45  H    0.076474
    46  H    0.097078
    47  H    0.073489
    48  H    0.088180
    49  H    0.102054
    50  H    0.115609
    51  H    0.105414
    52  H    0.084717
    53  H    0.096609
    54  H    0.109023
    55  H    0.094548
    56  H    0.104886
    57  H    0.107347
    58  H    0.091653
    59  H    0.093734
    60  H    0.099407
    61  H    0.056060
    62  H    0.112769
    63  H    0.088736
    64  H    0.088973
    65  H    0.099814
    66  H    0.078165
    67  H    0.118239
    68  H    0.129356
    69  H    0.107709
    70  H    0.093886
    71  H    0.121439
    72  H    0.109159
    73  H    0.290990
    74  H    0.300277
    75  H    0.087700
    76  H    0.074849
    77  H    0.115454
    78  H    0.091501
    79  H    0.131325
    80  H    0.096344
    81  H    0.134480
    82  H    0.113081
    83  H    0.086960
    84  H    0.076587
    85  H    0.092566
    86  H    0.090413
    87  H    0.079646
    88  H    0.071142
    89  H    0.126804
    90  H    0.122468
    91  H    0.096943
    92  H    0.132156
    93  H    0.138817
    94  H    0.091773
    95  H    0.067231
    96  H    0.085047
    97  H    0.058654
    98  H    0.084000
 Sum of Mulliken charges =  -0.00000

 Dipole moment (field-independent basis, Debye):
    X=              0.8766    Y=             -1.1031    Z=              1.6253  Tot=              2.1509
 Quadrupole moment (field-independent basis, Debye-Ang):
   XX=           -302.3028   YY=           -243.5704   ZZ=           -260.2288
   XY=             13.1572   XZ=             -8.9271   YZ=              2.7757

 Normal termination of Gaussian 16 at Wed Jul  3 03:05:58 2019.
