 Gaussian 16, Revision A.03,
 Gaussian 16:  ES64L-G16RevA.03 25-Dec-2016

 -------------------------------------
 # td=(NStates=1) CAM-B3LYP/6-31G(d,p)
 -------------------------------------

 --
 TD
 --
 Symbolic Z-matrix:
 Charge =  0 Multiplicity = 1

                         Standard orientation:
 ---------------------------------------------------------------------
 Center     Atomic      Atomic             Coordinates (Angstroms)
 Number     Number       Type             X           Y           Z
 ---------------------------------------------------------------------
      1          8           0       14.726240   -2.185989   -0.510622
      2          8           0      -14.683633    2.138410    0.748853
      3          6           0       11.470362   -1.121524    1.216754
      4          6           0      -12.278096   -0.831459    0.749101
      5          6           0       12.883372   -1.451597    1.056125
      6          6           0      -13.741713   -0.123199    0.719045
      7          6           0       13.358487   -1.853034   -0.401698
      8          6           0      -13.500028    1.363004    0.731167
      9          6           0       11.005494   -0.360540   -0.007401
     10          6           0      -11.371605   -0.196812   -0.166422
     11          6           0       13.185577   -0.625878   -1.258220
     12          6           0      -12.847685    1.736316   -0.682982
     13          6           0       11.719693   -0.177242   -1.105764
     14          6           0      -11.571778    0.999573   -0.795117
     15          6           0       11.221983   -0.406677    2.506491
     16          6           0       10.656256   -2.418727    1.155311
     17          6           0      -11.807502   -0.852204    2.262996
     18          6           0      -12.710614   -2.271403    0.337805
     19          6           0        9.637697    0.276884    0.227661
     20          6           0      -10.019567   -0.949609   -0.315393
     21          6           0       11.269536    0.707618   -2.281665
     22          6           0      -10.745347    1.518602   -1.898241
     23          6           0        9.342927    1.600712    0.036015
     24          6           0       -8.778066   -0.510712   -0.262196
     25          6           0        8.082310    2.248921    0.314483
     26          6           0       -7.625121   -1.431549   -0.459958
     27          6           0        8.135240    3.640100    0.643495
     28          6           0       -7.857020   -2.850550   -0.896755
     29          6           0        6.890255    1.618843   -0.032945
     30          6           0       -6.428975   -0.910528   -0.221746
     31          6           0        5.502066    2.057631    0.070188
     32          6           0       -5.021754   -1.335475   -0.344860
     33          6           0        4.450690    1.345923   -0.213175
     34          6           0       -4.010450   -0.493974   -0.160395
     35          6           0        3.079506    1.681665    0.081120
     36          6           0       -2.581031   -0.971106   -0.408551
     37          6           0        2.793804    3.057759    0.452393
     38          6           0       -2.403223   -2.430265   -0.715007
     39          6           0        2.126192    0.708569   -0.221166
     40          6           0       -1.644449    0.069055   -0.141481
     41          6           0        0.706922    0.851429   -0.038168
     42          6           0       -0.198916   -0.084427   -0.270408
     43          1           0       13.567436   -0.587481    1.526055
     44          1           0       13.231969   -2.411136    1.530551
     45          1           0      -14.137140   -0.278766    1.615481
     46          1           0      -14.403213   -0.310881   -0.070778
     47          1           0       12.727392   -2.786041   -0.553798
     48          1           0      -12.830776    1.954434    1.597564
     49          1           0       13.850875    0.244864   -1.052960
     50          1           0       13.316414   -0.731022   -2.374666
     51          1           0      -13.503447    1.336152   -1.433305
     52          1           0      -12.710843    2.917400   -0.751427
     53          1           0       11.654275   -0.836801    3.379723
     54          1           0       10.179037   -0.258929    2.667751
     55          1           0       11.729053    0.575867    2.531397
     56          1           0       10.847426   -3.124633    0.290513
     57          1           0       11.095705   -3.036428    1.925827
     58          1           0        9.689893   -2.238164    1.522024
     59          1           0      -11.501104    0.189429    2.700118
     60          1           0      -11.041324   -1.452624    2.133914
     61          1           0      -12.471461   -1.376997    3.039269
     62          1           0      -13.483445   -2.630348    1.072540
     63          1           0      -11.850243   -2.895862    0.389360
     64          1           0      -13.029452   -2.315577   -0.819314
     65          1           0        8.848495   -0.592449    0.541637
     66          1           0      -10.121596   -2.039068   -0.553930
     67          1           0       10.226970    0.813058   -2.067174
     68          1           0       11.940536    1.513227   -2.628028
     69          1           0       11.273923    0.062239   -3.319477
     70          1           0      -11.532695    1.993927   -2.697349
     71          1           0      -10.297843    0.753628   -2.267807
     72          1           0      -10.123634    2.091243   -1.600123
     73          1           0       14.773247   -2.932603   -0.040428
     74          1           0      -15.163891    1.706170    1.456477
     75          1           0       10.251977    2.138393   -0.300455
     76          1           0       -8.429836    0.549711   -0.040898
     77          1           0        9.044982    4.243107    0.000704
     78          1           0        7.346294    4.301905    0.311050
     79          1           0        8.547553    3.803992    1.770218
     80          1           0       -8.364143   -3.415936   -0.116235
     81          1           0       -8.453076   -2.933900   -1.835551
     82          1           0       -6.931144   -3.377349   -1.217000
     83          1           0        6.818990    0.703377   -0.755247
     84          1           0       -6.491591    0.094526   -0.011517
     85          1           0        5.307436    3.124862    0.460166
     86          1           0       -4.904354   -2.391327   -0.507100
     87          1           0        4.454638    0.335496   -0.676982
     88          1           0       -4.216349    0.595267    0.115898
     89          1           0        3.481654    3.407775    1.290743
     90          1           0        1.783280    3.395696    0.626403
     91          1           0        3.331525    3.963233   -0.271474
     92          1           0       -2.893011   -2.993346   -0.090349
     93          1           0       -2.816168   -2.593508   -1.777661
     94          1           0       -1.288153   -2.722361   -0.807379
     95          1           0        2.506510   -0.112676   -0.755593
     96          1           0       -2.090590    0.977029    0.074287
     97          1           0        0.412902    1.932222    0.213536
     98          1           0        0.246693   -0.906075   -0.857656
 ---------------------------------------------------------------------

 SCF Done:  E(RCAM-B3LYP) =  -1706.96122108     A.U. after   13 cycles

 Excitation energies and oscillator strengths:

 Excited State   1:      Singlet-A      2.9446 eV  421.05 nm  f=3.4441  <S**2>=0.000
     155 ->158         0.17504
     156 ->157         0.67816
 This state for optimization and/or second-order correction.
 Total Energy, E(TD-HF/TD-DFT) =  -1706.85300866
 Copying the excited state density for this state as the 1-particle RhoCI density.

 The electronic state is 1-A.
 Alpha  occ. eigenvalues --  -19.20707 -19.20106 -10.31065 -10.30463 -10.28739
 Alpha  occ. eigenvalues --  -10.27715 -10.27710 -10.27582 -10.27515 -10.27374
 Alpha  occ. eigenvalues --  -10.27276 -10.27156 -10.27152 -10.26719 -10.26699
 Alpha  occ. eigenvalues --  -10.26642 -10.26474 -10.26379 -10.26343 -10.26339
 Alpha  occ. eigenvalues --  -10.26311 -10.26275 -10.26251 -10.25988 -10.25945
 Alpha  occ. eigenvalues --  -10.25913 -10.25890 -10.25772 -10.25756 -10.25743
 Alpha  occ. eigenvalues --  -10.25657 -10.25579 -10.25373 -10.25272 -10.25152
 Alpha  occ. eigenvalues --  -10.24991 -10.24861 -10.24659 -10.24338 -10.23923
 Alpha  occ. eigenvalues --  -10.23709 -10.22032  -1.11947  -1.09404  -0.94438
 Alpha  occ. eigenvalues --   -0.93561  -0.92457  -0.91558  -0.90650  -0.89927
 Alpha  occ. eigenvalues --   -0.87729  -0.87535  -0.87119  -0.84999  -0.84280
 Alpha  occ. eigenvalues --   -0.83143  -0.82230  -0.80294  -0.79522  -0.78900
 Alpha  occ. eigenvalues --   -0.77547  -0.77281  -0.76980  -0.76075  -0.75836
 Alpha  occ. eigenvalues --   -0.75727  -0.74973  -0.74923  -0.74209  -0.69855
 Alpha  occ. eigenvalues --   -0.68287  -0.66777  -0.65828  -0.65120  -0.63952
 Alpha  occ. eigenvalues --   -0.63608  -0.62129  -0.61517  -0.60824  -0.59652
 Alpha  occ. eigenvalues --   -0.59527  -0.59043  -0.58580  -0.57296  -0.56276
 Alpha  occ. eigenvalues --   -0.55209  -0.55058  -0.54341  -0.54199  -0.53724
 Alpha  occ. eigenvalues --   -0.53078  -0.52604  -0.52416  -0.51845  -0.51398
 Alpha  occ. eigenvalues --   -0.51034  -0.50470  -0.50373  -0.49870  -0.49863
 Alpha  occ. eigenvalues --   -0.49599  -0.49081  -0.48868  -0.48317  -0.47920
 Alpha  occ. eigenvalues --   -0.47860  -0.47746  -0.46812  -0.46575  -0.46411
 Alpha  occ. eigenvalues --   -0.46182  -0.45932  -0.45770  -0.45625  -0.45369
 Alpha  occ. eigenvalues --   -0.45099  -0.44635  -0.44105  -0.43556  -0.43432
 Alpha  occ. eigenvalues --   -0.43170  -0.42890  -0.42719  -0.42575  -0.42432
 Alpha  occ. eigenvalues --   -0.41982  -0.41867  -0.41412  -0.41244  -0.40807
 Alpha  occ. eigenvalues --   -0.40329  -0.40282  -0.40143  -0.39989  -0.39871
 Alpha  occ. eigenvalues --   -0.39543  -0.39020  -0.38977  -0.38963  -0.38638
 Alpha  occ. eigenvalues --   -0.37434  -0.37131  -0.36177  -0.35590  -0.34938
 Alpha  occ. eigenvalues --   -0.34791  -0.33598  -0.33453  -0.31868  -0.31244
 Alpha  occ. eigenvalues --   -0.30845  -0.29224  -0.28158  -0.26585  -0.24496
 Alpha  occ. eigenvalues --   -0.21459
 Alpha virt. eigenvalues --   -0.03847   0.00107   0.03061   0.05968   0.07804
 Alpha virt. eigenvalues --    0.08951   0.10094   0.11763   0.12048   0.12128
 Alpha virt. eigenvalues --    0.12560   0.12776   0.13082   0.13412   0.13990

 Mulliken charges:
               1
     1  O   -0.523088
     2  O   -0.551506
     3  C    0.013524
     4  C   -0.050821
     5  C   -0.199420
     6  C   -0.176679
     7  C    0.148192
     8  C    0.141269
     9  C    0.072520
    10  C    0.082103
    11  C   -0.194537
    12  C   -0.225256
    13  C    0.028797
    14  C    0.035466
    15  C   -0.310876
    16  C   -0.311756
    17  C   -0.299371
    18  C   -0.294830
    19  C   -0.125439
    20  C   -0.177416
    21  C   -0.366574
    22  C   -0.309834
    23  C   -0.119054
    24  C   -0.070008
    25  C    0.108860
    26  C    0.124787
    27  C   -0.370307
    28  C   -0.389205
    29  C   -0.125968
    30  C   -0.142373
    31  C   -0.093690
    32  C   -0.077040
    33  C   -0.093679
    34  C   -0.111097
    35  C    0.166086
    36  C    0.089133
    37  C   -0.392972
    38  C   -0.364631
    39  C   -0.146806
    40  C   -0.119188
    41  C   -0.067409
    42  C   -0.095849
    43  H    0.080436
    44  H    0.057678
    45  H    0.085810
    46  H    0.112819
    47  H    0.075453
    48  H    0.054671
    49  H    0.121312
    50  H    0.093919
    51  H    0.121229
    52  H    0.097459
    53  H    0.107781
    54  H    0.111705
    55  H    0.104739
    56  H    0.106675
    57  H    0.096149
    58  H    0.110430
    59  H    0.102198
    60  H    0.122168
    61  H    0.089670
    62  H    0.103583
    63  H    0.097400
    64  H    0.090851
    65  H    0.085277
    66  H    0.084564
    67  H    0.129333
    68  H    0.118634
    69  H    0.071157
    70  H    0.080322
    71  H    0.122401
    72  H    0.122331
    73  H    0.286574
    74  H    0.291656
    75  H    0.107856
    76  H    0.085691
    77  H    0.085446
    78  H    0.127138
    79  H    0.107009
    80  H    0.125539
    81  H    0.119266
    82  H    0.105956
    83  H    0.085976
    84  H    0.056472
    85  H    0.068193
    86  H    0.079227
    87  H    0.076653
    88  H    0.092796
    89  H    0.119472
    90  H    0.119079
    91  H    0.090735
    92  H    0.143495
    93  H    0.119509
    94  H    0.107612
    95  H    0.080935
    96  H    0.084941
    97  H    0.074623
    98  H    0.085939
 Sum of Mulliken charges =  -0.00000

 Dipole moment (field-independent basis, Debye):
    X=             -0.3771    Y=             -1.9934    Z=              1.0827  Tot=              2.2996
 Quadrupole moment (field-independent basis, Debye-Ang):
   XX=           -292.9992   YY=           -243.9570   ZZ=           -260.9016
   XY=             21.3462   XZ=              3.5004   YZ=              1.3630

 Normal termination of Gaussian 16 at Thu Jul  4 21:01:36 2019.
