 Gaussian 16, Revision A.03,
 Gaussian 16:  ES64L-G16RevA.03 25-Dec-2016

 -------------------------------------
 # td=(NStates=1) CAM-B3LYP/6-31G(d,p)
 -------------------------------------

 --
 TD
 --
 Symbolic Z-matrix:
 Charge =  0 Multiplicity = 1

                         Standard orientation:
 ---------------------------------------------------------------------
 Center     Atomic      Atomic             Coordinates (Angstroms)
 Number     Number       Type             X           Y           Z
 ---------------------------------------------------------------------
      1          8           0       14.718375   -2.147553   -0.420847
      2          8           0      -14.823384    1.926243    0.817396
      3          6           0       11.435795   -1.217238    1.217545
      4          6           0      -12.367913   -1.009766    0.693328
      5          6           0       12.867254   -1.438650    1.046911
      6          6           0      -13.651034   -0.256225    0.685988
      7          6           0       13.319241   -1.884825   -0.349089
      8          6           0      -13.575856    1.213900    0.809696
      9          6           0       10.968114   -0.306557    0.052588
     10          6           0      -11.285862   -0.237503   -0.160967
     11          6           0       12.996922   -0.781306   -1.308841
     12          6           0      -12.829848    1.730452   -0.429677
     13          6           0       11.684514   -0.145100   -1.092441
     14          6           0      -11.539825    0.952255   -0.613674
     15          6           0       11.302904   -0.469344    2.555662
     16          6           0       10.571142   -2.389280    1.223823
     17          6           0      -11.853793   -1.073430    2.158174
     18          6           0      -12.600442   -2.407061    0.278474
     19          6           0        9.639685    0.307542    0.233992
     20          6           0      -10.008294   -0.997210   -0.283003
     21          6           0       11.308736    0.590729   -2.425079
     22          6           0      -10.636273    1.599570   -1.738701
     23          6           0        9.257134    1.564516   -0.010448
     24          6           0       -8.776349   -0.472445   -0.247800
     25          6           0        8.011761    2.200237    0.199938
     26          6           0       -7.580891   -1.253959   -0.510219
     27          6           0        8.076331    3.680231    0.511658
     28          6           0       -7.694875   -2.688421   -0.886116
     29          6           0        6.939836    1.452342    0.069633
     30          6           0       -6.375300   -0.530878   -0.440759
     31          6           0        5.574875    2.006546    0.134518
     32          6           0       -5.113365   -1.077100   -0.581123
     33          6           0        4.505169    1.210469    0.055480
     34          6           0       -4.035485   -0.330338   -0.318663
     35          6           0        3.115521    1.708442    0.091404
     36          6           0       -2.628689   -0.752770   -0.559044
     37          6           0        2.881084    3.123312    0.469829
     38          6           0       -2.340765   -2.117730   -1.054719
     39          6           0        2.119432    0.725972   -0.170078
     40          6           0       -1.674019    0.151994   -0.327191
     41          6           0        0.673970    0.999493   -0.081006
     42          6           0       -0.195201   -0.019360   -0.273839
     43          1           0       13.500994   -0.663618    1.357159
     44          1           0       13.209716   -2.320284    1.662390
     45          1           0      -14.344592   -0.727714    1.594532
     46          1           0      -14.335954   -0.336460   -0.154829
     47          1           0       12.755167   -2.862434   -0.616579
     48          1           0      -12.919707    1.492270    1.689158
     49          1           0       13.688409    0.043209   -1.114357
     50          1           0       13.020560   -1.054171   -2.374762
     51          1           0      -13.373515    1.444551   -1.327626
     52          1           0      -12.589109    2.729383   -0.222730
     53          1           0       11.711004   -1.104112    3.503323
     54          1           0       10.150719   -0.241632    2.820393
     55          1           0       11.741067    0.550146    2.596185
     56          1           0       10.384499   -3.014694    0.323240
     57          1           0       11.195826   -3.255285    1.883152
     58          1           0        9.581429   -2.148727    1.504414
     59          1           0      -11.590501   -0.160757    2.493123
     60          1           0      -10.910923   -1.631933    2.422181
     61          1           0      -12.376825   -1.595159    2.865246
     62          1           0      -13.424297   -2.790608    0.809515
     63          1           0      -11.829671   -3.011145    0.721716
     64          1           0      -12.774514   -2.713095   -0.667075
     65          1           0        8.844855   -0.349079    0.558650
     66          1           0      -10.177268   -2.052970   -0.458474
     67          1           0       10.190238    0.859661   -2.320919
     68          1           0       12.023370    1.436661   -2.429039
     69          1           0       11.505915   -0.084434   -3.319887
     70          1           0      -11.218501    2.056912   -2.393483
     71          1           0      -10.048076    0.823079   -2.292995
     72          1           0      -10.060927    2.369167   -1.105031
     73          1           0       14.506158   -2.925137    0.466970
     74          1           0      -15.259096    1.803150    1.542790
     75          1           0       10.123789    2.207689   -0.350873
     76          1           0       -8.462868    0.555750   -0.031918
     77          1           0        8.751527    4.357301    0.000870
     78          1           0        7.088228    4.126309    0.637015
     79          1           0        8.373851    3.835371    1.679776
     80          1           0       -8.267377   -3.205953   -0.047702
     81          1           0       -8.355578   -2.798082   -1.709080
     82          1           0       -6.628977   -3.218629   -1.087139
     83          1           0        7.037821    0.370543    0.017083
     84          1           0       -6.293813    0.567103   -0.340299
     85          1           0        5.332841    2.898714    0.475281
     86          1           0       -4.927379   -1.921829   -1.083486
     87          1           0        4.752661    0.025820   -0.241988
     88          1           0       -4.106262    0.743164   -0.070375
     89          1           0        3.452851    3.382811    1.315629
     90          1           0        1.815851    3.177735    0.599777
     91          1           0        3.445825    3.680531   -0.369570
     92          1           0       -2.741411   -2.943265   -0.495016
     93          1           0       -2.763559   -2.121713   -1.967045
     94          1           0       -1.307397   -2.386170   -1.078334
     95          1           0        2.308090   -0.238855   -0.499958
     96          1           0       -1.998787    1.094679    0.083738
     97          1           0        0.411900    1.815359    0.081425
     98          1           0        0.109762   -0.967666   -0.463541
 ---------------------------------------------------------------------

 SCF Done:  E(RCAM-B3LYP) =  -1706.97492348     A.U. after   13 cycles

 Excitation energies and oscillator strengths:

 Excited State   1:      Singlet-A      2.9293 eV  423.26 nm  f=3.7052  <S**2>=0.000
     155 ->158         0.19958
     156 ->157         0.67089
 This state for optimization and/or second-order correction.
 Total Energy, E(TD-HF/TD-DFT) =  -1706.86727380
 Copying the excited state density for this state as the 1-particle RhoCI density.

 The electronic state is 1-A.
 Alpha  occ. eigenvalues --  -19.22874 -19.20203 -10.30464 -10.30212 -10.27851
 Alpha  occ. eigenvalues --  -10.27361 -10.27193 -10.27101 -10.26866 -10.26774
 Alpha  occ. eigenvalues --  -10.26762 -10.26740 -10.26732 -10.26420 -10.26343
 Alpha  occ. eigenvalues --  -10.26304 -10.26226 -10.26180 -10.25944 -10.25906
 Alpha  occ. eigenvalues --  -10.25899 -10.25789 -10.25720 -10.25583 -10.25571
 Alpha  occ. eigenvalues --  -10.25503 -10.25488 -10.25320 -10.25318 -10.25273
 Alpha  occ. eigenvalues --  -10.25227 -10.24943 -10.24811 -10.24580 -10.24547
 Alpha  occ. eigenvalues --  -10.24406 -10.24327 -10.24313 -10.24267 -10.24147
 Alpha  occ. eigenvalues --  -10.22772 -10.22668  -1.11115  -1.07524  -0.94630
 Alpha  occ. eigenvalues --   -0.94089  -0.92383  -0.92160  -0.90947  -0.90125
 Alpha  occ. eigenvalues --   -0.87970  -0.87745  -0.87459  -0.86045  -0.84821
 Alpha  occ. eigenvalues --   -0.83804  -0.82436  -0.80014  -0.79887  -0.78963
 Alpha  occ. eigenvalues --   -0.77686  -0.76820  -0.76701  -0.76391  -0.76265
 Alpha  occ. eigenvalues --   -0.75613  -0.75285  -0.74878  -0.74259  -0.70871
 Alpha  occ. eigenvalues --   -0.68784  -0.67779  -0.66261  -0.65162  -0.64768
 Alpha  occ. eigenvalues --   -0.64420  -0.63730  -0.62753  -0.61389  -0.60694
 Alpha  occ. eigenvalues --   -0.59604  -0.59148  -0.58471  -0.58051  -0.56534
 Alpha  occ. eigenvalues --   -0.56175  -0.55713  -0.55287  -0.53953  -0.53682
 Alpha  occ. eigenvalues --   -0.52967  -0.52743  -0.52712  -0.52475  -0.51463
 Alpha  occ. eigenvalues --   -0.50822  -0.50584  -0.50351  -0.49948  -0.49680
 Alpha  occ. eigenvalues --   -0.49421  -0.49190  -0.48798  -0.48640  -0.48060
 Alpha  occ. eigenvalues --   -0.47849  -0.47528  -0.47319  -0.46975  -0.46753
 Alpha  occ. eigenvalues --   -0.46002  -0.45839  -0.45768  -0.45266  -0.45233
 Alpha  occ. eigenvalues --   -0.44671  -0.44485  -0.44238  -0.43885  -0.43673
 Alpha  occ. eigenvalues --   -0.43248  -0.43177  -0.43035  -0.42536  -0.42253
 Alpha  occ. eigenvalues --   -0.42137  -0.41814  -0.41538  -0.41296  -0.41280
 Alpha  occ. eigenvalues --   -0.40792  -0.40780  -0.40623  -0.40113  -0.39682
 Alpha  occ. eigenvalues --   -0.39421  -0.39276  -0.39202  -0.38525  -0.38272
 Alpha  occ. eigenvalues --   -0.37927  -0.37449  -0.37067  -0.36644  -0.35652
 Alpha  occ. eigenvalues --   -0.35063  -0.33890  -0.33475  -0.32995  -0.32158
 Alpha  occ. eigenvalues --   -0.31714  -0.29893  -0.28541  -0.26249  -0.23541
 Alpha  occ. eigenvalues --   -0.20901
 Alpha virt. eigenvalues --   -0.03378  -0.00018   0.03378   0.06611   0.06822
 Alpha virt. eigenvalues --    0.08801   0.10352   0.11900   0.12320   0.12566
 Alpha virt. eigenvalues --    0.13093   0.13378   0.13560   0.14453   0.14618

 Mulliken charges:
               1
     1  O   -0.532758
     2  O   -0.538961
     3  C    0.023859
     4  C   -0.001851
     5  C   -0.194894
     6  C   -0.175369
     7  C    0.144880
     8  C    0.146046
     9  C    0.039973
    10  C    0.093497
    11  C   -0.208304
    12  C   -0.191163
    13  C    0.024784
    14  C   -0.046670
    15  C   -0.293575
    16  C   -0.288621
    17  C   -0.313902
    18  C   -0.313324
    19  C   -0.114899
    20  C   -0.156845
    21  C   -0.347519
    22  C   -0.334451
    23  C   -0.122514
    24  C   -0.055575
    25  C    0.130197
    26  C    0.108063
    27  C   -0.375865
    28  C   -0.373849
    29  C   -0.125576
    30  C   -0.148617
    31  C   -0.073710
    32  C   -0.051528
    33  C   -0.094952
    34  C   -0.124843
    35  C    0.060619
    36  C    0.115181
    37  C   -0.367204
    38  C   -0.380662
    39  C   -0.116814
    40  C   -0.155145
    41  C    0.007673
    42  C   -0.085523
    43  H    0.121398
    44  H    0.051253
    45  H    0.047100
    46  H    0.102922
    47  H    0.069226
    48  H    0.071263
    49  H    0.121891
    50  H    0.102902
    51  H    0.124402
    52  H    0.115968
    53  H    0.083630
    54  H    0.083487
    55  H    0.113619
    56  H    0.110177
    57  H    0.063000
    58  H    0.117652
    59  H    0.110892
    60  H    0.091016
    61  H    0.104518
    62  H    0.103137
    63  H    0.099085
    64  H    0.110679
    65  H    0.073025
    66  H    0.086282
    67  H    0.115831
    68  H    0.120360
    69  H    0.108726
    70  H    0.114958
    71  H    0.116432
    72  H    0.102231
    73  H    0.285809
    74  H    0.282965
    75  H    0.075346
    76  H    0.086437
    77  H    0.128876
    78  H    0.114517
    79  H    0.098267
    80  H    0.116613
    81  H    0.134530
    82  H    0.096683
    83  H    0.088269
    84  H    0.085850
    85  H    0.062295
    86  H    0.076528
    87  H    0.060208
    88  H    0.076623
    89  H    0.136570
    90  H    0.117978
    91  H    0.125172
    92  H    0.120619
    93  H    0.136588
    94  H    0.111260
    95  H    0.080747
    96  H    0.071374
    97  H    0.015693
    98  H    0.067832
 Sum of Mulliken charges =  -0.00000

 Dipole moment (field-independent basis, Debye):
    X=             -1.6295    Y=             -0.9308    Z=              1.5447  Tot=              2.4306
 Quadrupole moment (field-independent basis, Debye-Ang):
   XX=           -301.7594   YY=           -243.0732   ZZ=           -259.2942
   XY=             19.7037   XZ=              2.0150   YZ=              3.5725

 Normal termination of Gaussian 16 at Thu Jul 11 10:10:47 2019.
