 Gaussian 16, Revision A.03,
 Gaussian 16:  ES64L-G16RevA.03 25-Dec-2016

 -------------------------------------
 # td=(NStates=1) CAM-B3LYP/6-31G(d,p)
 -------------------------------------

 --
 TD
 --
 Symbolic Z-matrix:
 Charge =  0 Multiplicity = 1

                         Standard orientation:
 ---------------------------------------------------------------------
 Center     Atomic      Atomic             Coordinates (Angstroms)
 Number     Number       Type             X           Y           Z
 ---------------------------------------------------------------------
      1          8           0       14.908258   -1.967036   -0.188516
      2          8           0      -14.787273    1.867174    0.881505
      3          6           0       11.324877   -1.222251    1.152482
      4          6           0      -12.291856   -0.960049    0.833900
      5          6           0       12.911301   -1.399488    1.116252
      6          6           0      -13.688972   -0.206594    0.718981
      7          6           0       13.439000   -1.993735   -0.166714
      8          6           0      -13.563748    1.277324    0.885337
      9          6           0       10.970517   -0.355429   -0.045755
     10          6           0      -11.345716   -0.312374   -0.168403
     11          6           0       13.184778   -0.956790   -1.366942
     12          6           0      -12.781651    1.812305   -0.372670
     13          6           0       11.799078   -0.278233   -1.161789
     14          6           0      -11.599386    0.886164   -0.702862
     15          6           0       11.064949   -0.371707    2.533211
     16          6           0       10.657727   -2.607774    1.263492
     17          6           0      -11.810397   -1.050676    2.264201
     18          6           0      -12.499088   -2.437191    0.355449
     19          6           0        9.647067    0.315528    0.149584
     20          6           0      -10.016371   -1.000778   -0.377165
     21          6           0       11.320744    0.423091   -2.342102
     22          6           0      -10.736284    1.481814   -1.761152
     23          6           0        9.290860    1.611126   -0.157114
     24          6           0       -8.779241   -0.538639   -0.352935
     25          6           0        7.988763    2.194188    0.140903
     26          6           0       -7.631546   -1.241143   -0.647964
     27          6           0        8.251168    3.649808    0.371612
     28          6           0       -7.809174   -2.716605   -1.157111
     29          6           0        6.840124    1.554131    0.026028
     30          6           0       -6.473283   -0.632811   -0.489700
     31          6           0        5.456686    2.149957    0.182000
     32          6           0       -5.099874   -1.182457   -0.572806
     33          6           0        4.374618    1.364007    0.051158
     34          6           0       -4.065142   -0.372508   -0.354257
     35          6           0        3.054606    1.760993    0.077416
     36          6           0       -2.632224   -0.702521   -0.524382
     37          6           0        2.865736    3.266960    0.432296
     38          6           0       -2.322667   -2.186718   -0.856790
     39          6           0        2.067677    0.868542   -0.070232
     40          6           0       -1.666605    0.154248   -0.131139
     41          6           0        0.600485    1.155623   -0.073855
     42          6           0       -0.179025    0.108042   -0.289029
     43          1           0       13.349237   -0.525740    1.440635
     44          1           0       13.253047   -2.146901    1.994048
     45          1           0      -14.402349   -0.712084    1.406435
     46          1           0      -14.121880   -0.628911   -0.130803
     47          1           0       12.969700   -2.991112   -0.452453
     48          1           0      -12.930133    1.621461    1.671607
     49          1           0       13.887098   -0.056209   -1.407124
     50          1           0       13.425007   -1.495380   -2.228696
     51          1           0      -13.518989    1.623707   -1.293124
     52          1           0      -12.453406    2.979117   -0.347625
     53          1           0       11.525433   -0.971212    3.304390
     54          1           0       10.015842   -0.491561    2.752905
     55          1           0       11.472612    0.628726    2.604567
     56          1           0       10.671925   -3.094763    0.303951
     57          1           0       10.957467   -3.037679    2.126618
     58          1           0        9.583810   -2.393647    1.531864
     59          1           0      -11.848155    0.052869    2.708518
     60          1           0      -10.621961   -1.258500    2.450517
     61          1           0      -12.421164   -1.867801    2.898357
     62          1           0      -13.441717   -2.827591    1.011391
     63          1           0      -11.470825   -3.227105    0.321106
     64          1           0      -12.875666   -2.379763   -0.857403
     65          1           0        8.900156   -0.490367    0.368792
     66          1           0      -10.071064   -2.004848   -0.454456
     67          1           0       10.242051    0.738631   -2.295088
     68          1           0       12.021235    1.113956   -2.737319
     69          1           0       11.140107   -0.509255   -3.055689
     70          1           0      -11.246933    1.834884   -2.637251
     71          1           0       -9.920959    0.766486   -2.338239
     72          1           0      -10.276262    2.420431   -1.323345
     73          1           0       15.255972   -2.593559    0.265276
     74          1           0      -15.359585    1.248763    1.606749
     75          1           0       10.016732    2.230920   -0.488154
     76          1           0       -8.799596    0.554282    0.076080
     77          1           0        8.832455    4.098982   -0.308666
     78          1           0        7.202611    4.181806    0.295003
     79          1           0        8.826752    3.907155    1.289589
     80          1           0       -8.162352   -3.349091   -0.205006
     81          1           0       -8.520735   -2.797631   -1.907601
     82          1           0       -6.640157   -3.132654   -1.307865
     83          1           0        6.972004    0.605112   -0.071506
     84          1           0       -6.628785    0.364114    0.083669
     85          1           0        5.364274    3.051563    0.557951
     86          1           0       -4.833572   -2.224584   -1.049838
     87          1           0        4.593994    0.354208   -0.209064
     88          1           0       -4.251972    0.753469   -0.398993
     89          1           0        3.440919    3.509540    1.474890
     90          1           0        1.911431    3.515753    0.708306
     91          1           0        3.338884    3.906054   -0.340876
     92          1           0       -2.933906   -2.973906   -0.233159
     93          1           0       -2.798812   -2.721061   -1.871868
     94          1           0       -1.256219   -2.457940   -0.727354
     95          1           0        2.477144   -0.146053   -0.219729
     96          1           0       -2.088412    1.141322   -0.031978
     97          1           0        0.322550    2.110487    0.145790
     98          1           0        0.246175   -0.852252   -0.481261
 ---------------------------------------------------------------------

 SCF Done:  E(RCAM-B3LYP) =  -1706.92870816     A.U. after   14 cycles

 Excitation energies and oscillator strengths:

 Excited State   1:      Singlet-A      3.1353 eV  395.44 nm  f=3.6446  <S**2>=0.000
     155 ->158         0.21020
     156 ->157         0.65736
 This state for optimization and/or second-order correction.
 Total Energy, E(TD-HF/TD-DFT) =  -1706.81348744
 Copying the excited state density for this state as the 1-particle RhoCI density.

 The electronic state is 1-A.
 Alpha  occ. eigenvalues --  -19.22541 -19.19598 -10.31509 -10.30440 -10.29405
 Alpha  occ. eigenvalues --  -10.28102 -10.27978 -10.27896 -10.27815 -10.27546
 Alpha  occ. eigenvalues --  -10.27496 -10.27491 -10.27422 -10.26734 -10.26690
 Alpha  occ. eigenvalues --  -10.26609 -10.26460 -10.26457 -10.26379 -10.26364
 Alpha  occ. eigenvalues --  -10.26351 -10.26339 -10.26288 -10.26205 -10.26194
 Alpha  occ. eigenvalues --  -10.25903 -10.25781 -10.25660 -10.25608 -10.25436
 Alpha  occ. eigenvalues --  -10.25420 -10.25270 -10.24996 -10.24928 -10.24868
 Alpha  occ. eigenvalues --  -10.24863 -10.24604 -10.24591 -10.24374 -10.24258
 Alpha  occ. eigenvalues --  -10.24110 -10.24081  -1.10263  -1.10110  -0.93448
 Alpha  occ. eigenvalues --   -0.92537  -0.92157  -0.91777  -0.90738  -0.90106
 Alpha  occ. eigenvalues --   -0.87631  -0.86415  -0.86240  -0.84945  -0.84100
 Alpha  occ. eigenvalues --   -0.82851  -0.81794  -0.79955  -0.79390  -0.77337
 Alpha  occ. eigenvalues --   -0.76915  -0.76458  -0.75923  -0.75407  -0.75181
 Alpha  occ. eigenvalues --   -0.75020  -0.74903  -0.74615  -0.72992  -0.70492
 Alpha  occ. eigenvalues --   -0.68596  -0.67614  -0.66061  -0.65034  -0.64219
 Alpha  occ. eigenvalues --   -0.63149  -0.62880  -0.62285  -0.61465  -0.59322
 Alpha  occ. eigenvalues --   -0.58880  -0.58783  -0.58099  -0.57725  -0.56138
 Alpha  occ. eigenvalues --   -0.55508  -0.54978  -0.54790  -0.54094  -0.53389
 Alpha  occ. eigenvalues --   -0.53206  -0.52553  -0.52218  -0.52060  -0.51316
 Alpha  occ. eigenvalues --   -0.50557  -0.50290  -0.49983  -0.49328  -0.49012
 Alpha  occ. eigenvalues --   -0.48653  -0.48620  -0.48122  -0.47933  -0.47647
 Alpha  occ. eigenvalues --   -0.47353  -0.47254  -0.46904  -0.46292  -0.45779
 Alpha  occ. eigenvalues --   -0.45395  -0.45071  -0.44914  -0.44779  -0.44486
 Alpha  occ. eigenvalues --   -0.44229  -0.43921  -0.43749  -0.43671  -0.43441
 Alpha  occ. eigenvalues --   -0.43146  -0.43010  -0.42626  -0.42383  -0.41872
 Alpha  occ. eigenvalues --   -0.41598  -0.41074  -0.40754  -0.40642  -0.40397
 Alpha  occ. eigenvalues --   -0.40234  -0.40008  -0.39615  -0.39267  -0.39127
 Alpha  occ. eigenvalues --   -0.39081  -0.38890  -0.38401  -0.38079  -0.37464
 Alpha  occ. eigenvalues --   -0.37361  -0.37014  -0.36670  -0.36313  -0.35378
 Alpha  occ. eigenvalues --   -0.35148  -0.34386  -0.33498  -0.32257  -0.32108
 Alpha  occ. eigenvalues --   -0.31834  -0.29937  -0.28270  -0.26144  -0.23896
 Alpha  occ. eigenvalues --   -0.21810
 Alpha virt. eigenvalues --   -0.03301   0.00054   0.03070   0.05811   0.08345
 Alpha virt. eigenvalues --    0.09217   0.09602   0.10359   0.11484   0.11760
 Alpha virt. eigenvalues --    0.12472   0.12583   0.12985   0.13347   0.13736

 Mulliken charges:
               1
     1  O   -0.539374
     2  O   -0.551980
     3  C   -0.043669
     4  C   -0.007494
     5  C   -0.156237
     6  C   -0.217359
     7  C    0.134309
     8  C    0.219335
     9  C    0.039332
    10  C    0.075241
    11  C   -0.194458
    12  C   -0.230034
    13  C    0.042078
    14  C    0.051060
    15  C   -0.319967
    16  C   -0.297008
    17  C   -0.276714
    18  C   -0.279404
    19  C   -0.116313
    20  C   -0.133494
    21  C   -0.358805
    22  C   -0.358302
    23  C   -0.108790
    24  C   -0.073243
    25  C    0.088975
    26  C    0.137398
    27  C   -0.380209
    28  C   -0.351983
    29  C   -0.083770
    30  C   -0.154352
    31  C   -0.077753
    32  C   -0.087436
    33  C   -0.109429
    34  C   -0.108181
    35  C    0.138890
    36  C    0.126344
    37  C   -0.370848
    38  C   -0.378789
    39  C   -0.159192
    40  C   -0.144128
    41  C   -0.049916
    42  C   -0.074797
    43  H    0.113886
    44  H    0.042681
    45  H    0.067726
    46  H    0.118193
    47  H    0.088040
    48  H    0.088028
    49  H    0.119438
    50  H    0.116941
    51  H    0.106815
    52  H    0.097294
    53  H    0.094677
    54  H    0.103539
    55  H    0.115206
    56  H    0.112954
    57  H    0.118008
    58  H    0.087878
    59  H    0.083716
    60  H    0.093197
    61  H    0.088801
    62  H    0.081667
    63  H    0.087023
    64  H    0.072238
    65  H    0.092102
    66  H    0.055988
    67  H    0.120022
    68  H    0.112078
    69  H    0.090908
    70  H    0.112372
    71  H    0.100353
    72  H    0.102733
    73  H    0.276035
    74  H    0.301884
    75  H    0.089829
    76  H    0.075277
    77  H    0.131277
    78  H    0.085390
    79  H    0.120652
    80  H    0.107056
    81  H    0.137114
    82  H    0.086768
    83  H    0.052992
    84  H    0.085496
    85  H    0.075067
    86  H    0.086675
    87  H    0.072979
    88  H    0.087613
    89  H    0.096641
    90  H    0.110770
    91  H    0.126863
    92  H    0.109759
    93  H    0.091887
    94  H    0.112524
    95  H    0.079774
    96  H    0.076382
    97  H    0.090315
    98  H    0.088946
 Sum of Mulliken charges =  -0.00000

 Dipole moment (field-independent basis, Debye):
    X=             -0.2114    Y=             -1.9376    Z=              1.2338  Tot=              2.3068
 Quadrupole moment (field-independent basis, Debye-Ang):
   XX=           -262.2765   YY=           -245.1892   ZZ=           -262.4795
   XY=              6.7154   XZ=             -3.9357   YZ=              0.9451

 Normal termination of Gaussian 16 at Sat Jun 29 13:02:38 2019.
