 Gaussian 16, Revision A.03,
 Gaussian 16:  ES64L-G16RevA.03 25-Dec-2016

 -------------------------------------
 # td=(NStates=1) CAM-B3LYP/6-31G(d,p)
 -------------------------------------

 --
 TD
 --
 Symbolic Z-matrix:
 Charge =  0 Multiplicity = 1

                         Standard orientation:
 ---------------------------------------------------------------------
 Center     Atomic      Atomic             Coordinates (Angstroms)
 Number     Number       Type             X           Y           Z
 ---------------------------------------------------------------------
      1          8           0       14.701959   -2.281904   -0.374925
      2          8           0      -14.840864    2.019850    0.364190
      3          6           0       11.437421   -1.047761    1.165092
      4          6           0      -12.360748   -0.900951    0.863144
      5          6           0       12.946486   -1.399602    1.012081
      6          6           0      -13.683434   -0.172851    0.665134
      7          6           0       13.335330   -1.969135   -0.405270
      8          6           0      -13.613587    1.338337    0.616649
      9          6           0       10.875548   -0.285143   -0.078582
     10          6           0      -11.311090   -0.195763   -0.082994
     11          6           0       13.073616   -0.823226   -1.318085
     12          6           0      -12.781002    1.756313   -0.586590
     13          6           0       11.670761   -0.176325   -1.131740
     14          6           0      -11.501920    0.963953   -0.744931
     15          6           0       11.296985   -0.183746    2.456620
     16          6           0       10.600346   -2.336838    1.335551
     17          6           0      -11.713339   -0.797756    2.272524
     18          6           0      -12.630791   -2.380846    0.430918
     19          6           0        9.623487    0.367619    0.179967
     20          6           0      -10.078642   -1.029334   -0.262995
     21          6           0       11.260345    0.622233   -2.419076
     22          6           0      -10.519711    1.581007   -1.819922
     23          6           0        9.298588    1.697453   -0.134718
     24          6           0       -8.793827   -0.591902   -0.183517
     25          6           0        8.052676    2.290218    0.071493
     26          6           0       -7.487867   -1.416954   -0.335080
     27          6           0        8.049291    3.754170    0.446427
     28          6           0       -7.642333   -2.886320   -0.662200
     29          6           0        6.890980    1.577805   -0.062228
     30          6           0       -6.369295   -0.609546   -0.264247
     31          6           0        5.566006    1.961319    0.268630
     32          6           0       -5.043361   -1.131643   -0.550781
     33          6           0        4.498668    1.166338    0.011128
     34          6           0       -3.984297   -0.364219   -0.288438
     35          6           0        3.072848    1.550466    0.218174
     36          6           0       -2.645165   -0.862200   -0.548804
     37          6           0        2.786388    2.965555    0.659002
     38          6           0       -2.493166   -2.230646   -1.024810
     39          6           0        2.072379    0.673021    0.010050
     40          6           0       -1.586152    0.008727   -0.196101
     41          6           0        0.691057    0.848064    0.101312
     42          6           0       -0.219828   -0.100213   -0.338719
     43          1           0       13.568932   -0.393646    1.074155
     44          1           0       13.116959   -2.200413    1.921062
     45          1           0      -14.440855   -0.548925    1.350813
     46          1           0      -13.865442   -0.454589   -0.607090
     47          1           0       12.934825   -2.951651   -0.841988
     48          1           0      -13.258859    1.803676    1.622443
     49          1           0       13.800033    0.006969   -1.271552
     50          1           0       13.085864   -1.193142   -2.382204
     51          1           0      -13.477685    1.510011   -1.502614
     52          1           0      -12.451123    2.827364   -0.409924
     53          1           0       11.624919   -0.718278    3.499291
     54          1           0       10.256026    0.235916    2.647173
     55          1           0       11.846035    0.642295    2.404002
     56          1           0       10.706519   -3.006801    0.529006
     57          1           0       11.072383   -3.085861    2.082364
     58          1           0        9.388346   -2.259732    1.724165
     59          1           0      -11.429436    0.218596    2.444140
     60          1           0      -10.798552   -1.253869    2.028166
     61          1           0      -12.306019   -1.364804    3.005051
     62          1           0      -13.494994   -2.843433    1.127412
     63          1           0      -11.701421   -3.030170    0.560764
     64          1           0      -13.058372   -2.465155   -0.617768
     65          1           0        9.001826   -0.050499    0.687246
     66          1           0      -10.049180   -2.026394   -0.832640
     67          1           0       10.032547    0.562146   -2.324259
     68          1           0       11.823401    1.547428   -2.412635
     69          1           0       11.411134   -0.191295   -3.314071
     70          1           0      -11.078834    2.039604   -2.604827
     71          1           0       -9.983788    0.632759   -2.241907
     72          1           0       -9.942358    2.270307   -1.232255
     73          1           0       14.936702   -2.870165    0.272471
     74          1           0      -15.256489    1.902137    1.223566
     75          1           0       10.153894    2.139530   -0.663441
     76          1           0       -8.608495    0.400085    0.270462
     77          1           0        8.561427    4.335339   -0.145240
     78          1           0        7.070445    4.303468    0.328526
     79          1           0        8.195390    3.974217    1.482218
     80          1           0       -8.202544   -3.481910   -0.033774
     81          1           0       -8.181497   -3.138651   -1.664363
     82          1           0       -6.612120   -3.542040   -0.467459
     83          1           0        6.908923    0.516053   -0.459255
     84          1           0       -6.577768    0.402763    0.112365
     85          1           0        5.224263    2.848464    0.824335
     86          1           0       -5.095538   -2.078186   -0.949859
     87          1           0        4.726814    0.173350   -0.530329
     88          1           0       -4.322714    0.587556    0.091935
     89          1           0        3.404266    3.229688    1.552185
     90          1           0        1.770233    3.217658    1.024193
     91          1           0        3.032312    3.625526   -0.250045
     92          1           0       -3.195918   -2.880656   -0.563650
     93          1           0       -2.543709   -2.316679   -2.124152
     94          1           0       -1.366299   -2.424919   -0.618887
     95          1           0        2.196691   -0.323117   -0.386170
     96          1           0       -1.871904    1.022022    0.023417
     97          1           0        0.271575    1.880187    0.205012
     98          1           0        0.322573   -1.041769   -0.644103
 ---------------------------------------------------------------------

 SCF Done:  E(RCAM-B3LYP) =  -1706.99363746     A.U. after   14 cycles

 Excitation energies and oscillator strengths:

 Excited State   1:      Singlet-A      2.5445 eV  487.27 nm  f=3.6228  <S**2>=0.000
     155 ->158        -0.16450
     156 ->157         0.68491
 This state for optimization and/or second-order correction.
 Total Energy, E(TD-HF/TD-DFT) =  -1706.90012996
 Copying the excited state density for this state as the 1-particle RhoCI density.

 The electronic state is 1-A.
 Alpha  occ. eigenvalues --  -19.20919 -19.19624 -10.31137 -10.30564 -10.28312
 Alpha  occ. eigenvalues --  -10.27828 -10.27817 -10.27770 -10.27724 -10.27617
 Alpha  occ. eigenvalues --  -10.27547 -10.27193 -10.27017 -10.26941 -10.26649
 Alpha  occ. eigenvalues --  -10.26602 -10.26579 -10.26565 -10.26561 -10.26447
 Alpha  occ. eigenvalues --  -10.26405 -10.26369 -10.26356 -10.26318 -10.26299
 Alpha  occ. eigenvalues --  -10.26075 -10.25981 -10.25917 -10.25903 -10.25870
 Alpha  occ. eigenvalues --  -10.25825 -10.25812 -10.25799 -10.25786 -10.25460
 Alpha  occ. eigenvalues --  -10.25377 -10.25252 -10.25225 -10.24626 -10.24243
 Alpha  occ. eigenvalues --  -10.24094 -10.23639  -1.10450  -1.09821  -0.93336
 Alpha  occ. eigenvalues --   -0.92754  -0.92438  -0.91697  -0.90696  -0.89454
 Alpha  occ. eigenvalues --   -0.87567  -0.86089  -0.85866  -0.85614  -0.84658
 Alpha  occ. eigenvalues --   -0.83400  -0.82158  -0.80065  -0.79312  -0.78918
 Alpha  occ. eigenvalues --   -0.76867  -0.76435  -0.76217  -0.75672  -0.75108
 Alpha  occ. eigenvalues --   -0.74783  -0.74100  -0.73842  -0.73565  -0.70818
 Alpha  occ. eigenvalues --   -0.69251  -0.66904  -0.66389  -0.64665  -0.63167
 Alpha  occ. eigenvalues --   -0.62874  -0.62192  -0.61815  -0.61498  -0.60264
 Alpha  occ. eigenvalues --   -0.59513  -0.58278  -0.57986  -0.57818  -0.56002
 Alpha  occ. eigenvalues --   -0.55843  -0.55420  -0.54866  -0.54392  -0.53597
 Alpha  occ. eigenvalues --   -0.52731  -0.52205  -0.51395  -0.51188  -0.50613
 Alpha  occ. eigenvalues --   -0.50427  -0.50243  -0.49831  -0.49626  -0.49574
 Alpha  occ. eigenvalues --   -0.49241  -0.48926  -0.48746  -0.48038  -0.47934
 Alpha  occ. eigenvalues --   -0.47758  -0.47472  -0.46877  -0.46289  -0.45821
 Alpha  occ. eigenvalues --   -0.45714  -0.45375  -0.45016  -0.44534  -0.44421
 Alpha  occ. eigenvalues --   -0.44377  -0.43700  -0.43437  -0.43244  -0.43022
 Alpha  occ. eigenvalues --   -0.42752  -0.42697  -0.42469  -0.42268  -0.41710
 Alpha  occ. eigenvalues --   -0.41586  -0.41432  -0.41383  -0.41040  -0.40837
 Alpha  occ. eigenvalues --   -0.40431  -0.39940  -0.39520  -0.39371  -0.39322
 Alpha  occ. eigenvalues --   -0.39091  -0.38817  -0.38626  -0.38564  -0.37981
 Alpha  occ. eigenvalues --   -0.37954  -0.37650  -0.36281  -0.35663  -0.35360
 Alpha  occ. eigenvalues --   -0.34972  -0.33931  -0.33083  -0.32220  -0.31872
 Alpha  occ. eigenvalues --   -0.31742  -0.29895  -0.28709  -0.26577  -0.24140
 Alpha  occ. eigenvalues --   -0.20388
 Alpha virt. eigenvalues --   -0.04980  -0.00501   0.02876   0.06479   0.07792
 Alpha virt. eigenvalues --    0.09818   0.11120   0.11601   0.11644   0.12226
 Alpha virt. eigenvalues --    0.12381   0.12794   0.13071   0.13402   0.13648

 Mulliken charges:
               1
     1  O   -0.560045
     2  O   -0.539185
     3  C   -0.009942
     4  C    0.002994
     5  C   -0.202908
     6  C   -0.163362
     7  C    0.192875
     8  C    0.151859
     9  C    0.113136
    10  C    0.027668
    11  C   -0.207565
    12  C   -0.213057
    13  C   -0.028967
    14  C    0.019524
    15  C   -0.292472
    16  C   -0.293677
    17  C   -0.296975
    18  C   -0.291805
    19  C   -0.066683
    20  C   -0.159531
    21  C   -0.350905
    22  C   -0.340174
    23  C   -0.115846
    24  C   -0.094161
    25  C    0.084399
    26  C    0.102958
    27  C   -0.373195
    28  C   -0.384967
    29  C   -0.128023
    30  C   -0.131410
    31  C   -0.057812
    32  C   -0.071811
    33  C   -0.112838
    34  C   -0.090175
    35  C    0.090339
    36  C    0.087244
    37  C   -0.380864
    38  C   -0.364210
    39  C   -0.111378
    40  C   -0.117454
    41  C   -0.077971
    42  C   -0.095094
    43  H    0.103960
    44  H    0.066861
    45  H    0.077674
    46  H    0.054823
    47  H    0.079917
    48  H    0.063399
    49  H    0.123375
    50  H    0.100775
    51  H    0.120849
    52  H    0.103227
    53  H    0.074659
    54  H    0.097073
    55  H    0.113774
    56  H    0.111385
    57  H    0.078055
    58  H    0.080498
    59  H    0.108334
    60  H    0.120051
    61  H    0.095618
    62  H    0.079311
    63  H    0.098174
    64  H    0.107590
    65  H    0.049225
    66  H    0.079427
    67  H    0.113752
    68  H    0.130009
    69  H    0.089877
    70  H    0.115553
    71  H    0.116456
    72  H    0.124333
    73  H    0.294844
    74  H    0.298906
    75  H    0.085693
    76  H    0.073453
    77  H    0.127633
    78  H    0.096994
    79  H    0.126213
    80  H    0.142863
    81  H    0.118726
    82  H    0.084336
    83  H    0.084797
    84  H    0.088055
    85  H    0.080694
    86  H    0.084350
    87  H    0.077255
    88  H    0.087356
    89  H    0.118392
    90  H    0.114760
    91  H    0.124122
    92  H    0.125296
    93  H    0.133146
    94  H    0.097395
    95  H    0.074533
    96  H    0.080365
    97  H    0.076318
    98  H    0.076958
 Sum of Mulliken charges =  -0.00000

 Dipole moment (field-independent basis, Debye):
    X=              0.0365    Y=             -0.8179    Z=              1.6546  Tot=              1.8460
 Quadrupole moment (field-independent basis, Debye-Ang):
   XX=           -287.9679   YY=           -243.1731   ZZ=           -261.6311
   XY=             12.0735   XZ=             -6.9136   YZ=              5.1530

 Normal termination of Gaussian 16 at Sun Jul  7 16:35:54 2019.
