 Gaussian 16, Revision A.03,
 Gaussian 16:  ES64L-G16RevA.03 25-Dec-2016

 -------------------------------------
 # td=(NStates=1) CAM-B3LYP/6-31G(d,p)
 -------------------------------------

 --
 TD
 --
 Symbolic Z-matrix:
 Charge =  0 Multiplicity = 1

                         Standard orientation:
 ---------------------------------------------------------------------
 Center     Atomic      Atomic             Coordinates (Angstroms)
 Number     Number       Type             X           Y           Z
 ---------------------------------------------------------------------
      1          8           0       14.698853   -2.239362   -0.438334
      2          8           0      -14.815255    1.893693    0.750978
      3          6           0       11.434436   -1.197800    1.170983
      4          6           0      -12.314084   -0.965434    0.726993
      5          6           0       12.928012   -1.593536    1.143519
      6          6           0      -13.671314   -0.232134    0.708228
      7          6           0       13.352588   -1.967290   -0.328781
      8          6           0      -13.490041    1.277278    0.755725
      9          6           0       10.965191   -0.396586   -0.003681
     10          6           0      -11.339667   -0.255237   -0.184897
     11          6           0       13.072885   -0.935369   -1.363945
     12          6           0      -12.788644    1.786406   -0.478559
     13          6           0       11.719647   -0.183547   -1.093966
     14          6           0      -11.603069    0.912294   -0.807445
     15          6           0       11.202372   -0.297538    2.371751
     16          6           0       10.616005   -2.483166    1.333801
     17          6           0      -11.737909   -0.998552    2.126194
     18          6           0      -12.612678   -2.428300    0.413689
     19          6           0        9.644247    0.300571    0.152340
     20          6           0      -10.132475   -1.055584   -0.431369
     21          6           0       11.393111    0.595351   -2.309311
     22          6           0      -10.691497    1.539048   -1.804149
     23          6           0        9.321873    1.608134   -0.048332
     24          6           0       -8.812373   -0.670847   -0.278158
     25          6           0        7.981304    2.339671    0.234076
     26          6           0       -7.543403   -1.311082   -0.509060
     27          6           0        8.094414    3.811797    0.509757
     28          6           0       -7.740176   -2.860272   -0.989197
     29          6           0        6.969370    1.537426   -0.056504
     30          6           0       -6.478630   -0.676832   -0.321397
     31          6           0        5.493348    1.982123    0.111901
     32          6           0       -5.076899   -1.109055   -0.508838
     33          6           0        4.419304    1.236156   -0.113153
     34          6           0       -4.012195   -0.329406   -0.295508
     35          6           0        3.106104    1.780332    0.156118
     36          6           0       -2.631093   -0.701958   -0.390543
     37          6           0        2.867070    3.175602    0.563459
     38          6           0       -2.302328   -2.131648   -0.796814
     39          6           0        2.119373    0.790358   -0.080221
     40          6           0       -1.682369    0.228818   -0.115685
     41          6           0        0.668892    0.978714    0.035953
     42          6           0       -0.291634    0.104021   -0.328421
     43          1           0       13.670884   -0.757816    1.419117
     44          1           0       12.968402   -2.285956    1.873025
     45          1           0      -14.204642   -0.585894    1.374539
     46          1           0      -14.286506   -0.403003   -0.394599
     47          1           0       12.735891   -2.873765   -0.587083
     48          1           0      -12.816715    1.602436    1.706020
     49          1           0       13.849496   -0.138290   -1.225391
     50          1           0       13.101783   -1.269991   -2.436116
     51          1           0      -13.437051    1.854053   -1.384313
     52          1           0      -12.520526    2.795302   -0.089788
     53          1           0       11.687286   -0.704974    3.280388
     54          1           0       10.275214    0.133221    2.651248
     55          1           0       11.749406    0.655173    2.157045
     56          1           0       10.506294   -3.149111    0.578651
     57          1           0       10.653202   -3.087092    2.327835
     58          1           0        9.605200   -2.247858    1.431512
     59          1           0      -11.874792   -0.040824    2.676191
     60          1           0      -10.540289   -1.152139    2.224773
     61          1           0      -12.372931   -1.733917    2.818775
     62          1           0      -13.480632   -2.862186    1.105860
     63          1           0      -11.659876   -2.974329    0.335968
     64          1           0      -12.880082   -2.643580   -0.601523
     65          1           0        8.926509   -0.396375    0.583009
     66          1           0      -10.339320   -2.128833   -0.493757
     67          1           0       10.358972    0.944303   -2.509650
     68          1           0       12.047164    1.421677   -2.760966
     69          1           0       11.527183   -0.281779   -3.067826
     70          1           0      -11.222278    2.295615   -2.396023
     71          1           0       -9.957920    0.849973   -2.293319
     72          1           0       -9.912619    2.077962   -1.285256
     73          1           0       14.855157   -2.885923    0.249637
     74          1           0      -15.203263    1.764528    1.537030
     75          1           0       10.151126    2.239566   -0.203291
     76          1           0       -8.669163    0.565136   -0.111851
     77          1           0        8.928842    4.318886   -0.085558
     78          1           0        7.121823    4.282780    0.205206
     79          1           0        8.530694    3.955855    1.623750
     80          1           0       -8.520331   -3.217867   -0.239482
     81          1           0       -8.290507   -2.929458   -1.896292
     82          1           0       -6.780205   -3.141719   -1.245277
     83          1           0        7.140858    0.269042   -0.313718
     84          1           0       -6.561724    0.282350   -0.028219
     85          1           0        5.284646    3.077214    0.115149
     86          1           0       -4.983079   -2.246278   -0.591522
     87          1           0        4.401511    0.287173   -0.651915
     88          1           0       -4.168208    0.684777   -0.167979
     89          1           0        3.333491    3.462444    1.395443
     90          1           0        1.757171    3.435657    0.523776
     91          1           0        3.296977    3.935934   -0.129686
     92          1           0       -2.962752   -2.933830   -0.058931
     93          1           0       -2.361688   -2.452985   -1.993805
     94          1           0       -1.159653   -2.316684   -0.297071
     95          1           0        2.601999   -0.252191   -0.485555
     96          1           0       -2.063435    1.311370    0.089092
     97          1           0        0.391911    2.018621    0.690668
     98          1           0        0.199901   -0.878588   -0.708421
 ---------------------------------------------------------------------

 SCF Done:  E(RCAM-B3LYP) =  -1706.94271032     A.U. after   13 cycles

 Excitation energies and oscillator strengths:

 Excited State   1:      Singlet-A      2.9383 eV  421.95 nm  f=3.5093  <S**2>=0.000
     155 ->158         0.16032
     156 ->157         0.68104
 This state for optimization and/or second-order correction.
 Total Energy, E(TD-HF/TD-DFT) =  -1706.83472852
 Copying the excited state density for this state as the 1-particle RhoCI density.

 The electronic state is 1-A.
 Alpha  occ. eigenvalues --  -19.21189 -19.20058 -10.31185 -10.30312 -10.29866
 Alpha  occ. eigenvalues --  -10.28433 -10.28273 -10.28080 -10.28048 -10.27991
 Alpha  occ. eigenvalues --  -10.27662 -10.27604 -10.27544 -10.27438 -10.27074
 Alpha  occ. eigenvalues --  -10.26877 -10.26877 -10.26614 -10.26524 -10.26464
 Alpha  occ. eigenvalues --  -10.26424 -10.26299 -10.26297 -10.25993 -10.25909
 Alpha  occ. eigenvalues --  -10.25901 -10.25794 -10.25773 -10.25702 -10.25625
 Alpha  occ. eigenvalues --  -10.25608 -10.25487 -10.25453 -10.25410 -10.25332
 Alpha  occ. eigenvalues --  -10.25147 -10.24915 -10.24366 -10.24357 -10.24354
 Alpha  occ. eigenvalues --  -10.23958 -10.23819  -1.11351  -1.09615  -0.93966
 Alpha  occ. eigenvalues --   -0.93678  -0.92331  -0.91770  -0.90750  -0.89573
 Alpha  occ. eigenvalues --   -0.87417  -0.87159  -0.86952  -0.85207  -0.84331
 Alpha  occ. eigenvalues --   -0.82892  -0.81675  -0.79837  -0.79800  -0.78308
 Alpha  occ. eigenvalues --   -0.77476  -0.77227  -0.76305  -0.76133  -0.75805
 Alpha  occ. eigenvalues --   -0.75653  -0.75284  -0.74684  -0.73736  -0.70623
 Alpha  occ. eigenvalues --   -0.68214  -0.67226  -0.65618  -0.64874  -0.64407
 Alpha  occ. eigenvalues --   -0.63912  -0.62640  -0.60597  -0.60128  -0.59356
 Alpha  occ. eigenvalues --   -0.58723  -0.58477  -0.58054  -0.57130  -0.56364
 Alpha  occ. eigenvalues --   -0.56124  -0.55026  -0.54812  -0.54547  -0.54221
 Alpha  occ. eigenvalues --   -0.53148  -0.52560  -0.52176  -0.52040  -0.50736
 Alpha  occ. eigenvalues --   -0.50449  -0.49983  -0.49723  -0.49570  -0.49407
 Alpha  occ. eigenvalues --   -0.48722  -0.48395  -0.48227  -0.47516  -0.47339
 Alpha  occ. eigenvalues --   -0.47280  -0.47082  -0.46915  -0.46736  -0.46566
 Alpha  occ. eigenvalues --   -0.45930  -0.45848  -0.45558  -0.44868  -0.44791
 Alpha  occ. eigenvalues --   -0.44555  -0.44451  -0.44260  -0.44044  -0.43478
 Alpha  occ. eigenvalues --   -0.43142  -0.42650  -0.42335  -0.42110  -0.41622
 Alpha  occ. eigenvalues --   -0.41296  -0.40958  -0.40789  -0.40335  -0.40120
 Alpha  occ. eigenvalues --   -0.40070  -0.39729  -0.39341  -0.39162  -0.39019
 Alpha  occ. eigenvalues --   -0.38767  -0.38623  -0.38495  -0.38432  -0.37610
 Alpha  occ. eigenvalues --   -0.37304  -0.37256  -0.36563  -0.36291  -0.35817
 Alpha  occ. eigenvalues --   -0.35624  -0.35084  -0.34236  -0.32193  -0.31754
 Alpha  occ. eigenvalues --   -0.31385  -0.30383  -0.28393  -0.26311  -0.24601
 Alpha  occ. eigenvalues --   -0.21418
 Alpha virt. eigenvalues --   -0.03949   0.00450   0.03017   0.05794   0.08273
 Alpha virt. eigenvalues --    0.09442   0.10655   0.10857   0.11890   0.12190
 Alpha virt. eigenvalues --    0.12623   0.12772   0.12981   0.13168   0.13297

 Mulliken charges:
               1
     1  O   -0.535649
     2  O   -0.551220
     3  C   -0.016448
     4  C   -0.022494
     5  C   -0.191190
     6  C   -0.126134
     7  C    0.161723
     8  C    0.132097
     9  C    0.059408
    10  C    0.070701
    11  C   -0.212849
    12  C   -0.209307
    13  C    0.039985
    14  C    0.064348
    15  C   -0.311870
    16  C   -0.322307
    17  C   -0.290565
    18  C   -0.296720
    19  C   -0.118539
    20  C   -0.152440
    21  C   -0.364637
    22  C   -0.374870
    23  C   -0.109723
    24  C   -0.106511
    25  C    0.110237
    26  C    0.132472
    27  C   -0.364975
    28  C   -0.360865
    29  C   -0.116873
    30  C   -0.119201
    31  C   -0.143178
    32  C   -0.107375
    33  C   -0.079335
    34  C   -0.089690
    35  C    0.135103
    36  C    0.136009
    37  C   -0.385295
    38  C   -0.347634
    39  C   -0.147670
    40  C   -0.128551
    41  C   -0.085695
    42  C   -0.094438
    43  H    0.088839
    44  H    0.099424
    45  H    0.072828
    46  H    0.070297
    47  H    0.063812
    48  H    0.067267
    49  H    0.116833
    50  H    0.112776
    51  H    0.124072
    52  H    0.116103
    53  H    0.087612
    54  H    0.118727
    55  H    0.099226
    56  H    0.115376
    57  H    0.085646
    58  H    0.106973
    59  H    0.092120
    60  H    0.103810
    61  H    0.077766
    62  H    0.093000
    63  H    0.094319
    64  H    0.104495
    65  H    0.083699
    66  H    0.066722
    67  H    0.118149
    68  H    0.111933
    69  H    0.091393
    70  H    0.105575
    71  H    0.120465
    72  H    0.122294
    73  H    0.302557
    74  H    0.291359
    75  H    0.078693
    76  H    0.049924
    77  H    0.123313
    78  H    0.118432
    79  H    0.118226
    80  H    0.122982
    81  H    0.129405
    82  H    0.115546
    83  H    0.080250
    84  H    0.070326
    85  H    0.078711
    86  H    0.079190
    87  H    0.091377
    88  H    0.076322
    89  H    0.142265
    90  H    0.110705
    91  H    0.120119
    92  H    0.091676
    93  H    0.115596
    94  H    0.087592
    95  H    0.074849
    96  H    0.084798
    97  H    0.068771
    98  H    0.087629
 Sum of Mulliken charges =  -0.00000

 Dipole moment (field-independent basis, Debye):
    X=              1.0728    Y=             -0.0399    Z=              1.7417  Tot=              2.0460
 Quadrupole moment (field-independent basis, Debye-Ang):
   XX=           -290.2315   YY=           -242.8661   ZZ=           -260.5351
   XY=              9.5393   XZ=             -1.3247   YZ=              1.8805

 Normal termination of Gaussian 16 at Tue Jul  9 16:02:33 2019.
