 Gaussian 16, Revision A.03,
 Gaussian 16:  ES64L-G16RevA.03 25-Dec-2016

 -------------------------------------
 # td=(NStates=1) CAM-B3LYP/6-31G(d,p)
 -------------------------------------

 --
 TD
 --
 Symbolic Z-matrix:
 Charge =  0 Multiplicity = 1

                         Standard orientation:
 ---------------------------------------------------------------------
 Center     Atomic      Atomic             Coordinates (Angstroms)
 Number     Number       Type             X           Y           Z
 ---------------------------------------------------------------------
      1          8           0       14.577019   -2.296450   -0.474797
      2          8           0      -14.570787    2.128879    0.555787
      3          6           0       11.481697   -1.123806    1.263569
      4          6           0      -12.223798   -0.861068    0.881424
      5          6           0       12.836471   -1.530654    1.006999
      6          6           0      -13.623025   -0.187196    0.725414
      7          6           0       13.181206   -1.957165   -0.439253
      8          6           0      -13.447357    1.276986    0.711326
      9          6           0       10.827309   -0.258074    0.047448
     10          6           0      -11.275555   -0.321561   -0.228569
     11          6           0       12.824877   -0.888125   -1.388245
     12          6           0      -12.524754    1.806419   -0.549835
     13          6           0       11.467104   -0.228112   -1.224376
     14          6           0      -11.411896    0.812523   -0.844072
     15          6           0       11.330778   -0.328227    2.554372
     16          6           0       10.548740   -2.447588    1.319281
     17          6           0      -11.736978   -0.777095    2.285213
     18          6           0      -12.561501   -2.420749    0.564852
     19          6           0        9.613460    0.344513    0.187898
     20          6           0      -10.057133   -1.175201   -0.405162
     21          6           0       11.020285    0.590733   -2.441357
     22          6           0      -10.580077    1.310815   -2.017004
     23          6           0        9.268330    1.672606    0.018085
     24          6           0       -8.798843   -0.595040   -0.299430
     25          6           0        8.017499    2.281698    0.148729
     26          6           0       -7.626629   -1.373602   -0.466882
     27          6           0        8.049056    3.713675    0.443588
     28          6           0       -7.595202   -2.734422   -0.824360
     29          6           0        6.916706    1.559900   -0.140880
     30          6           0       -6.402559   -0.609097   -0.471339
     31          6           0        5.532757    1.968956    0.095872
     32          6           0       -5.081152   -1.150215   -0.587593
     33          6           0        4.408445    1.284688    0.019327
     34          6           0       -4.010250   -0.411368   -0.132059
     35          6           0        3.093372    1.678359    0.138713
     36          6           0       -2.578854   -0.870062   -0.456894
     37          6           0        2.802670    3.220666    0.583510
     38          6           0       -2.251748   -2.248061   -0.875149
     39          6           0        2.001102    0.897685   -0.011954
     40          6           0       -1.618976    0.127773   -0.186367
     41          6           0        0.644316    1.027673    0.223934
     42          6           0       -0.167741    0.003920   -0.151940
     43          1           0       13.606640   -0.684693    1.042988
     44          1           0       13.235817   -2.365983    1.775579
     45          1           0      -14.408545   -0.292429    1.444039
     46          1           0      -14.149272   -0.441653   -0.114314
     47          1           0       12.637455   -2.937577   -0.529711
     48          1           0      -13.065187    1.479424    1.641872
     49          1           0       13.763369   -0.074986   -1.433046
     50          1           0       12.670182   -1.107995   -2.562815
     51          1           0      -13.167391    1.763728   -1.373639
     52          1           0      -12.198077    2.760929   -0.210260
     53          1           0       12.044463   -0.817424    3.296638
     54          1           0       10.298987   -0.235781    2.850919
     55          1           0       11.597556    0.790222    2.558063
     56          1           0       10.664579   -3.172082    0.400597
     57          1           0       10.738022   -3.168303    2.333858
     58          1           0        9.325325   -2.283895    1.432297
     59          1           0      -11.443780    0.107706    2.488106
     60          1           0      -10.776598   -1.343935    2.376800
     61          1           0      -12.602194   -1.274011    3.128171
     62          1           0      -13.337802   -2.858407    1.324867
     63          1           0      -11.556897   -2.793543    0.796316
     64          1           0      -13.020492   -2.662713   -0.469244
     65          1           0        8.961097   -0.163756    0.804710
     66          1           0      -10.041507   -2.206042   -0.744264
     67          1           0        9.941436    0.606850   -2.402932
     68          1           0       11.493403    1.725398   -2.336299
     69          1           0       11.317134    0.087550   -3.414960
     70          1           0      -11.693558    1.201652   -2.764448
     71          1           0       -9.652317    0.824077   -2.540249
     72          1           0      -10.353010    2.506483   -1.936743
     73          1           0       14.872868   -2.915403    0.069466
     74          1           0      -14.987313    1.865601    1.394539
     75          1           0       10.154449    2.224194   -0.407400
     76          1           0       -8.875453    0.393034    0.077012
     77          1           0        8.744639    4.255859   -0.265206
     78          1           0        7.078377    4.180526    0.424986
     79          1           0        8.612957    3.956191    1.451912
     80          1           0       -7.998938   -3.540844   -0.101713
     81          1           0       -8.060277   -3.126501   -1.905731
     82          1           0       -6.550219   -3.159956   -0.800042
     83          1           0        7.194552    0.614148   -0.393336
     84          1           0       -6.399442    0.412445   -0.109264
     85          1           0        5.405005    3.083353    0.407754
     86          1           0       -5.014930   -2.215803   -0.774630
     87          1           0        4.444771    0.290825   -0.303205
     88          1           0       -3.955449    0.682573    0.074547
     89          1           0        3.225096    3.111639    1.844091
     90          1           0        1.674632    3.394933    0.493904
     91          1           0        3.422798    3.992189    0.045654
     92          1           0       -2.804304   -3.000359   -0.421198
     93          1           0       -2.561521   -2.410835   -1.910263
     94          1           0       -1.130958   -2.341659   -0.740615
     95          1           0        2.319102   -0.134676   -0.059335
     96          1           0       -1.960499    1.197119   -0.022709
     97          1           0        0.258326    2.123852    0.342969
     98          1           0        0.260145   -1.059276   -0.384020
 ---------------------------------------------------------------------

 SCF Done:  E(RCAM-B3LYP) =  -1706.89323817     A.U. after   15 cycles

 Excitation energies and oscillator strengths:

 Excited State   1:      Singlet-A      2.4902 eV  497.89 nm  f=3.6830  <S**2>=0.000
     155 ->158        -0.18250
     156 ->157         0.67716
 This state for optimization and/or second-order correction.
 Total Energy, E(TD-HF/TD-DFT) =  -1706.80172595
 Copying the excited state density for this state as the 1-particle RhoCI density.

 The electronic state is 1-A.
 Alpha  occ. eigenvalues --  -19.21123 -19.19739 -10.31269 -10.29095 -10.29027
 Alpha  occ. eigenvalues --  -10.28859 -10.28786 -10.28512 -10.28228 -10.28050
 Alpha  occ. eigenvalues --  -10.27850 -10.27827 -10.27737 -10.27650 -10.27613
 Alpha  occ. eigenvalues --  -10.27563 -10.27101 -10.27055 -10.27033 -10.26859
 Alpha  occ. eigenvalues --  -10.26769 -10.26754 -10.26636 -10.26583 -10.26476
 Alpha  occ. eigenvalues --  -10.26431 -10.26156 -10.26154 -10.26103 -10.25937
 Alpha  occ. eigenvalues --  -10.25871 -10.25816 -10.25567 -10.25534 -10.25489
 Alpha  occ. eigenvalues --  -10.25433 -10.25165 -10.25024 -10.24796 -10.24692
 Alpha  occ. eigenvalues --  -10.24614 -10.23273  -1.10155  -1.10072  -0.93781
 Alpha  occ. eigenvalues --   -0.93534  -0.92353  -0.91802  -0.91385  -0.90008
 Alpha  occ. eigenvalues --   -0.87781  -0.87115  -0.86817  -0.85859  -0.85055
 Alpha  occ. eigenvalues --   -0.83279  -0.82054  -0.80389  -0.80106  -0.78267
 Alpha  occ. eigenvalues --   -0.76748  -0.76582  -0.75746  -0.75313  -0.75128
 Alpha  occ. eigenvalues --   -0.74832  -0.74451  -0.73606  -0.73097  -0.70789
 Alpha  occ. eigenvalues --   -0.69612  -0.67252  -0.65765  -0.65089  -0.63845
 Alpha  occ. eigenvalues --   -0.63130  -0.62509  -0.61478  -0.60803  -0.60453
 Alpha  occ. eigenvalues --   -0.59402  -0.59122  -0.58786  -0.57926  -0.56692
 Alpha  occ. eigenvalues --   -0.56227  -0.55564  -0.55227  -0.54447  -0.53892
 Alpha  occ. eigenvalues --   -0.53496  -0.53270  -0.52655  -0.52362  -0.51174
 Alpha  occ. eigenvalues --   -0.50496  -0.50058  -0.49724  -0.49564  -0.48815
 Alpha  occ. eigenvalues --   -0.48341  -0.48108  -0.47989  -0.47747  -0.47476
 Alpha  occ. eigenvalues --   -0.47257  -0.47193  -0.46730  -0.45983  -0.45781
 Alpha  occ. eigenvalues --   -0.45682  -0.45385  -0.45076  -0.44656  -0.44571
 Alpha  occ. eigenvalues --   -0.44398  -0.44334  -0.43761  -0.43730  -0.43534
 Alpha  occ. eigenvalues --   -0.43029  -0.42928  -0.42615  -0.42500  -0.41971
 Alpha  occ. eigenvalues --   -0.41735  -0.41514  -0.41323  -0.40744  -0.40512
 Alpha  occ. eigenvalues --   -0.40402  -0.39951  -0.39896  -0.39839  -0.39718
 Alpha  occ. eigenvalues --   -0.38831  -0.38740  -0.38536  -0.37841  -0.37643
 Alpha  occ. eigenvalues --   -0.37553  -0.37412  -0.36753  -0.36070  -0.35850
 Alpha  occ. eigenvalues --   -0.35095  -0.34366  -0.33830  -0.32113  -0.31567
 Alpha  occ. eigenvalues --   -0.31302  -0.29556  -0.28475  -0.25834  -0.23509
 Alpha  occ. eigenvalues --   -0.20351
 Alpha virt. eigenvalues --   -0.05013  -0.01487   0.01678   0.05612   0.07531
 Alpha virt. eigenvalues --    0.09010   0.10000   0.10985   0.11153   0.11520
 Alpha virt. eigenvalues --    0.11778   0.12025   0.12191   0.12708   0.13062

 Mulliken charges:
               1
     1  O   -0.558553
     2  O   -0.543901
     3  C    0.040800
     4  C   -0.032452
     5  C   -0.207044
     6  C   -0.157267
     7  C    0.182800
     8  C    0.108327
     9  C    0.049858
    10  C    0.053127
    11  C   -0.190457
    12  C   -0.208099
    13  C    0.032406
    14  C    0.037965
    15  C   -0.302246
    16  C   -0.296793
    17  C   -0.270589
    18  C   -0.295571
    19  C   -0.132649
    20  C   -0.165151
    21  C   -0.345249
    22  C   -0.305629
    23  C   -0.121254
    24  C   -0.078247
    25  C    0.127652
    26  C    0.133429
    27  C   -0.373906
    28  C   -0.392976
    29  C   -0.097710
    30  C   -0.125068
    31  C   -0.102345
    32  C   -0.082235
    33  C   -0.085658
    34  C   -0.115189
    35  C    0.103841
    36  C    0.100835
    37  C   -0.338761
    38  C   -0.370476
    39  C   -0.127657
    40  C   -0.147157
    41  C   -0.082908
    42  C   -0.075245
    43  H    0.103014
    44  H    0.070118
    45  H    0.064996
    46  H    0.099654
    47  H    0.079823
    48  H    0.079138
    49  H    0.101994
    50  H    0.084004
    51  H    0.129454
    52  H    0.122323
    53  H    0.096896
    54  H    0.112230
    55  H    0.102733
    56  H    0.105052
    57  H    0.068613
    58  H    0.086821
    59  H    0.116710
    60  H    0.101074
    61  H    0.069399
    62  H    0.085819
    63  H    0.102141
    64  H    0.099152
    65  H    0.078755
    66  H    0.097414
    67  H    0.134868
    68  H    0.105086
    69  H    0.103453
    70  H    0.060740
    71  H    0.124865
    72  H    0.095788
    73  H    0.290126
    74  H    0.294879
    75  H    0.079956
    76  H    0.091991
    77  H    0.116485
    78  H    0.115249
    79  H    0.107050
    80  H    0.115787
    81  H    0.104141
    82  H    0.103580
    83  H    0.075950
    84  H    0.086865
    85  H    0.069296
    86  H    0.086222
    87  H    0.069762
    88  H    0.092641
    89  H    0.077107
    90  H    0.097787
    91  H    0.115333
    92  H    0.129056
    93  H    0.130328
    94  H    0.106496
    95  H    0.068227
    96  H    0.080487
    97  H    0.083042
    98  H    0.087435
 Sum of Mulliken charges =  -0.00000

 Dipole moment (field-independent basis, Debye):
    X=             -0.1710    Y=             -1.7795    Z=              1.6372  Tot=              2.4241
 Quadrupole moment (field-independent basis, Debye-Ang):
   XX=           -282.1266   YY=           -247.6442   ZZ=           -263.1141
   XY=             12.7988   XZ=             -4.2986   YZ=              1.9935

 Normal termination of Gaussian 16 at Thu Jul  4 15:07:15 2019.
