 Gaussian 16, Revision A.03,
 Gaussian 16:  ES64L-G16RevA.03 25-Dec-2016

 -------------------------------------
 # td=(NStates=1) CAM-B3LYP/6-31G(d,p)
 -------------------------------------

 --
 TD
 --
 Symbolic Z-matrix:
 Charge =  0 Multiplicity = 1

                         Standard orientation:
 ---------------------------------------------------------------------
 Center     Atomic      Atomic             Coordinates (Angstroms)
 Number     Number       Type             X           Y           Z
 ---------------------------------------------------------------------
      1          8           0       14.719886   -2.263082   -0.243776
      2          8           0      -14.830729    1.918751    0.731926
      3          6           0       11.376338   -1.017897    1.269283
      4          6           0      -12.297805   -0.981062    0.731748
      5          6           0       12.833062   -1.331520    1.223370
      6          6           0      -13.688237   -0.229209    0.717402
      7          6           0       13.233488   -2.043096   -0.120971
      8          6           0      -13.614289    1.325468    0.725685
      9          6           0       10.842407   -0.448058   -0.014445
     10          6           0      -11.301505   -0.233858   -0.127047
     11          6           0       12.861152   -1.212949   -1.378914
     12          6           0      -12.756823    1.714079   -0.442128
     13          6           0       11.522678   -0.467621   -1.236431
     14          6           0      -11.528481    0.938279   -0.742764
     15          6           0       11.130615   -0.052925    2.478836
     16          6           0       10.635440   -2.291683    1.539277
     17          6           0      -11.743128   -0.912407    2.222886
     18          6           0      -12.573620   -2.480554    0.325281
     19          6           0        9.585496    0.388483    0.164101
     20          6           0      -10.083176   -1.090769   -0.385037
     21          6           0       11.026908    0.117648   -2.394271
     22          6           0      -10.609241    1.731133   -1.719446
     23          6           0        9.396753    1.666638   -0.256977
     24          6           0       -8.753844   -0.591939   -0.306093
     25          6           0        8.113982    2.354008   -0.036797
     26          6           0       -7.529099   -1.309792   -0.547861
     27          6           0        8.157006    3.800745    0.281821
     28          6           0       -7.578772   -2.726201   -1.300293
     29          6           0        6.876536    1.634153   -0.206668
     30          6           0       -6.319779   -0.734948   -0.130483
     31          6           0        5.560269    2.128699    0.076031
     32          6           0       -5.027913   -1.338105   -0.443719
     33          6           0        4.397749    1.275493   -0.051968
     34          6           0       -3.907645   -0.504706   -0.137028
     35          6           0        3.054677    1.921096    0.080979
     36          6           0       -2.509802   -0.831319   -0.313516
     37          6           0        2.777656    3.364902    0.202065
     38          6           0       -2.173189   -2.129770   -0.936292
     39          6           0        2.100971    0.842368    0.062179
     40          6           0       -1.580320    0.039218    0.025980
     41          6           0        0.636855    1.018999    0.107889
     42          6           0       -0.142173   -0.078800   -0.184669
     43          1           0       13.343802   -0.305511    1.155734
     44          1           0       13.259738   -1.876964    2.146467
     45          1           0      -14.336863   -0.660695    1.581516
     46          1           0      -14.188886   -0.573841   -0.271549
     47          1           0       12.765605   -3.148221   -0.273358
     48          1           0      -13.090438    1.623608    1.739814
     49          1           0       13.657877   -0.451229   -1.608386
     50          1           0       12.887365   -1.830228   -2.253362
     51          1           0      -13.460867    1.704147   -1.351899
     52          1           0      -12.628691    2.897036   -0.366392
     53          1           0       11.407938   -0.474941    3.517580
     54          1           0       10.051472    0.174821    2.578122
     55          1           0       11.664489    0.849805    2.116071
     56          1           0       11.015216   -2.947449    0.645024
     57          1           0       10.945290   -2.735653    2.477622
     58          1           0        9.631491   -2.038148    1.425907
     59          1           0      -11.722638    0.182604    2.554438
     60          1           0      -10.868371   -1.485346    2.488780
     61          1           0      -12.336630   -1.299280    2.987162
     62          1           0      -13.326647   -2.857818    0.863163
     63          1           0      -11.796379   -2.998483    0.690388
     64          1           0      -12.829572   -2.511706   -0.704907
     65          1           0        8.686971    0.066611    0.899280
     66          1           0      -10.053242   -2.199536   -0.836060
     67          1           0        9.997693    0.491702   -2.490915
     68          1           0       11.886029    1.159561   -2.499120
     69          1           0       11.344580   -0.596899   -3.241259
     70          1           0      -11.145591    1.935449   -2.572422
     71          1           0       -9.698181    1.051905   -1.868626
     72          1           0       -9.920960    2.414724   -1.215883
     73          1           0       15.000967   -2.581489    0.593351
     74          1           0      -15.503359    1.415329    1.297217
     75          1           0       10.101852    2.258417   -0.622446
     76          1           0       -8.599527    0.354255   -0.029863
     77          1           0        8.802624    4.269004   -0.536811
     78          1           0        7.132959    4.148389    0.192118
     79          1           0        8.838870    4.026493    1.095231
     80          1           0       -8.314684   -3.603222   -0.612879
     81          1           0       -7.981852   -2.566768   -2.242241
     82          1           0       -6.757021   -3.321506   -1.386244
     83          1           0        7.192869    0.561141   -0.587116
     84          1           0       -6.460801    0.238913    0.446338
     85          1           0        5.465638    3.180849    0.142573
     86          1           0       -4.735669   -2.145892   -0.815997
     87          1           0        4.472979    0.230929   -0.048210
     88          1           0       -4.066471    0.486341    0.162497
     89          1           0        3.329240    3.604387    1.131658
     90          1           0        1.644723    3.481575    0.404253
     91          1           0        3.277703    3.948026   -0.694077
     92          1           0       -2.455219   -3.020192   -0.320913
     93          1           0       -2.809590   -2.438350   -1.818152
     94          1           0       -1.084040   -2.610042   -1.047223
     95          1           0        2.464183   -0.086666   -0.053087
     96          1           0       -1.865825    0.965365    0.573965
     97          1           0        0.107453    2.070050    0.244154
     98          1           0        0.139971   -1.004034   -0.612213
 ---------------------------------------------------------------------

 SCF Done:  E(RCAM-B3LYP) =  -1706.94687128     A.U. after   14 cycles

 Excitation energies and oscillator strengths:

 Excited State   1:      Singlet-A      2.4844 eV  499.06 nm  f=3.5535  <S**2>=0.000
     155 ->158         0.18234
     156 ->157         0.67817
 This state for optimization and/or second-order correction.
 Total Energy, E(TD-HF/TD-DFT) =  -1706.85557205
 Copying the excited state density for this state as the 1-particle RhoCI density.

 The electronic state is 1-A.
 Alpha  occ. eigenvalues --  -19.21407 -19.20563 -10.32588 -10.30545 -10.28184
 Alpha  occ. eigenvalues --  -10.27948 -10.27821 -10.27724 -10.27698 -10.27611
 Alpha  occ. eigenvalues --  -10.27609 -10.27458 -10.27345 -10.27172 -10.27162
 Alpha  occ. eigenvalues --  -10.26970 -10.26883 -10.26840 -10.26788 -10.26725
 Alpha  occ. eigenvalues --  -10.26714 -10.26699 -10.26692 -10.26573 -10.26568
 Alpha  occ. eigenvalues --  -10.26312 -10.26108 -10.26063 -10.25987 -10.25984
 Alpha  occ. eigenvalues --  -10.25887 -10.25877 -10.25737 -10.25704 -10.25588
 Alpha  occ. eigenvalues --  -10.25276 -10.25246 -10.25171 -10.24688 -10.23906
 Alpha  occ. eigenvalues --  -10.23724 -10.22583  -1.10585  -1.07371  -0.94283
 Alpha  occ. eigenvalues --   -0.92538  -0.91933  -0.90757  -0.89836  -0.89103
 Alpha  occ. eigenvalues --   -0.88549  -0.86316  -0.86114  -0.84571  -0.83714
 Alpha  occ. eigenvalues --   -0.82284  -0.81549  -0.80375  -0.78902  -0.78164
 Alpha  occ. eigenvalues --   -0.76999  -0.76351  -0.76254  -0.76150  -0.75826
 Alpha  occ. eigenvalues --   -0.75521  -0.75082  -0.74462  -0.73242  -0.69931
 Alpha  occ. eigenvalues --   -0.68273  -0.67193  -0.65492  -0.64583  -0.64549
 Alpha  occ. eigenvalues --   -0.63554  -0.63044  -0.62467  -0.61148  -0.59956
 Alpha  occ. eigenvalues --   -0.59013  -0.57775  -0.57267  -0.56957  -0.56281
 Alpha  occ. eigenvalues --   -0.55653  -0.54955  -0.54578  -0.53923  -0.53749
 Alpha  occ. eigenvalues --   -0.53320  -0.53144  -0.52529  -0.51691  -0.51236
 Alpha  occ. eigenvalues --   -0.50712  -0.50412  -0.49881  -0.49656  -0.48988
 Alpha  occ. eigenvalues --   -0.48880  -0.48526  -0.48460  -0.48224  -0.48125
 Alpha  occ. eigenvalues --   -0.47474  -0.47092  -0.46823  -0.46684  -0.46305
 Alpha  occ. eigenvalues --   -0.45974  -0.45713  -0.45400  -0.45034  -0.44926
 Alpha  occ. eigenvalues --   -0.44742  -0.44642  -0.43913  -0.43672  -0.43488
 Alpha  occ. eigenvalues --   -0.43009  -0.42840  -0.42609  -0.42572  -0.42101
 Alpha  occ. eigenvalues --   -0.42036  -0.41663  -0.41312  -0.40936  -0.40665
 Alpha  occ. eigenvalues --   -0.40430  -0.40186  -0.39810  -0.39592  -0.39469
 Alpha  occ. eigenvalues --   -0.38825  -0.38435  -0.38243  -0.37932  -0.37488
 Alpha  occ. eigenvalues --   -0.37244  -0.36715  -0.36545  -0.36095  -0.35634
 Alpha  occ. eigenvalues --   -0.34737  -0.34060  -0.33126  -0.31933  -0.31408
 Alpha  occ. eigenvalues --   -0.30985  -0.29119  -0.27594  -0.26196  -0.22840
 Alpha  occ. eigenvalues --   -0.19783
 Alpha virt. eigenvalues --   -0.04441  -0.00838   0.02381   0.05078   0.07159
 Alpha virt. eigenvalues --    0.08652   0.09717   0.11285   0.11900   0.11914
 Alpha virt. eigenvalues --    0.11988   0.12189   0.12705   0.13205   0.13539

 Mulliken charges:
               1
     1  O   -0.573497
     2  O   -0.556494
     3  C   -0.034743
     4  C   -0.027044
     5  C   -0.186246
     6  C   -0.215990
     7  C    0.154835
     8  C    0.220061
     9  C    0.038396
    10  C    0.056150
    11  C   -0.217627
    12  C   -0.233261
    13  C    0.094084
    14  C    0.071101
    15  C   -0.289729
    16  C   -0.263173
    17  C   -0.318669
    18  C   -0.297405
    19  C   -0.153540
    20  C   -0.141334
    21  C   -0.341149
    22  C   -0.356361
    23  C   -0.075392
    24  C   -0.095886
    25  C    0.052578
    26  C    0.097606
    27  C   -0.365141
    28  C   -0.349412
    29  C   -0.116895
    30  C   -0.138631
    31  C   -0.125273
    32  C   -0.034108
    33  C   -0.102472
    34  C   -0.133891
    35  C    0.104923
    36  C    0.175622
    37  C   -0.368559
    38  C   -0.419972
    39  C   -0.120549
    40  C   -0.157442
    41  C   -0.108300
    42  C   -0.059362
    43  H    0.096972
    44  H    0.082245
    45  H    0.063802
    46  H    0.081136
    47  H    0.078302
    48  H    0.048364
    49  H    0.124795
    50  H    0.120063
    51  H    0.104526
    52  H    0.096530
    53  H    0.089576
    54  H    0.102419
    55  H    0.101723
    56  H    0.078532
    57  H    0.095137
    58  H    0.104340
    59  H    0.097050
    60  H    0.108111
    61  H    0.097291
    62  H    0.107134
    63  H    0.110855
    64  H    0.110112
    65  H    0.098669
    66  H    0.094395
    67  H    0.137488
    68  H    0.058185
    69  H    0.102057
    70  H    0.125487
    71  H    0.102009
    72  H    0.126154
    73  H    0.299973
    74  H    0.316722
    75  H    0.081053
    76  H    0.069161
    77  H    0.104932
    78  H    0.112361
    79  H    0.131737
    80  H    0.059945
    81  H    0.136096
    82  H    0.122147
    83  H    0.080847
    84  H    0.093768
    85  H    0.084588
    86  H    0.053436
    87  H    0.096884
    88  H    0.076713
    89  H    0.133987
    90  H    0.112425
    91  H    0.125307
    92  H    0.119640
    93  H    0.118602
    94  H    0.104119
    95  H    0.080668
    96  H    0.075363
    97  H    0.091263
    98  H    0.086995
 Sum of Mulliken charges =  -0.00000

 Dipole moment (field-independent basis, Debye):
    X=              0.6153    Y=             -0.8959    Z=              1.3263  Tot=              1.7147
 Quadrupole moment (field-independent basis, Debye-Ang):
   XX=           -272.0583   YY=           -248.5588   ZZ=           -259.9921
   XY=             25.3773   XZ=              6.4146   YZ=             -0.2244

 Normal termination of Gaussian 16 at Mon Jul  1 04:28:01 2019.
