 Gaussian 16, Revision A.03,
 Gaussian 16:  ES64L-G16RevA.03 25-Dec-2016

 -------------------------------------
 # td=(NStates=1) CAM-B3LYP/6-31G(d,p)
 -------------------------------------

 --
 TD
 --
 Symbolic Z-matrix:
 Charge =  0 Multiplicity = 1

                         Standard orientation:
 ---------------------------------------------------------------------
 Center     Atomic      Atomic             Coordinates (Angstroms)
 Number     Number       Type             X           Y           Z
 ---------------------------------------------------------------------
      1          8           0       14.751771   -2.202816   -0.389301
      2          8           0      -14.730697    1.896229    0.903438
      3          6           0       11.549345   -1.099562    1.202417
      4          6           0      -12.261870   -0.918886    0.785217
      5          6           0       13.035619   -1.458069    1.072054
      6          6           0      -13.642689   -0.214394    0.879230
      7          6           0       13.384055   -1.936361   -0.273125
      8          6           0      -13.516695    1.215940    0.844910
      9          6           0       10.979583   -0.297563   -0.002053
     10          6           0      -11.371178   -0.252637   -0.156463
     11          6           0       12.978847   -0.894798   -1.332435
     12          6           0      -12.751262    1.710836   -0.488396
     13          6           0       11.620314   -0.224694   -1.140221
     14          6           0      -11.534852    0.982614   -0.764005
     15          6           0       11.375756   -0.189462    2.436923
     16          6           0       10.676203   -2.413495    1.448861
     17          6           0      -11.598841   -0.887895    2.338332
     18          6           0      -12.522193   -2.495289    0.385578
     19          6           0        9.624346    0.314760    0.208988
     20          6           0      -10.094505   -0.970830   -0.474646
     21          6           0       11.128859    0.513555   -2.351079
     22          6           0      -10.663270    1.527273   -1.817192
     23          6           0        9.408733    1.545659   -0.012517
     24          6           0       -8.857547   -0.550954   -0.279942
     25          6           0        8.074963    2.218103    0.149650
     26          6           0       -7.664998   -1.260276   -0.620625
     27          6           0        8.147212    3.655512    0.437866
     28          6           0       -7.771379   -2.642948   -1.030134
     29          6           0        6.888524    1.458354   -0.026554
     30          6           0       -6.474893   -0.690260   -0.435032
     31          6           0        5.537851    1.987035    0.104187
     32          6           0       -5.124969   -1.103199   -0.586347
     33          6           0        4.404225    1.209103   -0.022871
     34          6           0       -4.117847   -0.391332   -0.270826
     35          6           0        3.049955    1.694475    0.119345
     36          6           0       -2.653130   -0.818797   -0.495997
     37          6           0        2.840932    3.103073    0.402557
     38          6           0       -2.429712   -2.121832   -0.779001
     39          6           0        2.006799    0.837224   -0.157601
     40          6           0       -1.675115    0.158388   -0.240235
     41          6           0        0.570678    1.012945   -0.078884
     42          6           0       -0.285246    0.042537   -0.217541
     43          1           0       13.568602   -0.553950    1.230914
     44          1           0       13.455168   -2.011814    1.779370
     45          1           0      -14.175902   -0.716682    1.630374
     46          1           0      -14.271696   -0.630153    0.041269
     47          1           0       12.800480   -2.903382   -0.518426
     48          1           0      -12.978123    1.632744    1.606654
     49          1           0       13.879531   -0.393283   -1.353539
     50          1           0       12.992339   -1.468287   -2.302158
     51          1           0      -13.599556    1.893255   -1.180407
     52          1           0      -12.581068    2.733486   -0.302927
     53          1           0       11.726870   -0.751576    3.138023
     54          1           0       10.321391   -0.028946    2.690013
     55          1           0       11.927208    0.781445    2.536070
     56          1           0       10.726091   -3.103849    0.659527
     57          1           0       11.365172   -2.696346    2.353690
     58          1           0        9.662820   -2.174657    1.750593
     59          1           0      -11.442625    0.164456    2.757263
     60          1           0      -10.689325   -1.497223    2.089756
     61          1           0      -12.179250   -1.703359    2.874284
     62          1           0      -13.300274   -2.681865    1.047529
     63          1           0      -11.850397   -3.170278    0.448181
     64          1           0      -13.048963   -2.529347   -0.669527
     65          1           0        8.878087   -0.147089    0.676978
     66          1           0      -10.296696   -2.033999   -0.777603
     67          1           0       10.133706    0.839600   -2.349991
     68          1           0       11.668346    1.456325   -2.817854
     69          1           0       11.160464   -0.194254   -3.217894
     70          1           0      -11.277985    1.785023   -2.751080
     71          1           0       -9.884813    0.812950   -2.253025
     72          1           0       -9.984566    2.431504   -1.461369
     73          1           0       14.989368   -3.012643    0.198577
     74          1           0      -15.426534    1.458945    1.473049
     75          1           0       10.096928    2.067439   -0.146149
     76          1           0       -8.892949    0.371326    0.211221
     77          1           0        8.889302    4.179494   -0.462492
     78          1           0        7.241520    3.988151    0.765697
     79          1           0        8.827894    3.881144    1.369788
     80          1           0       -8.403074   -3.291728   -0.432427
     81          1           0       -8.306989   -2.852583   -2.055415
     82          1           0       -6.783408   -2.981955   -1.123261
     83          1           0        6.971100    0.304242   -0.336978
     84          1           0       -6.583066    0.323670   -0.219281
     85          1           0        5.411806    3.077155    0.223779
     86          1           0       -4.945793   -2.144713   -0.920602
     87          1           0        4.390007    0.057309   -0.354105
     88          1           0       -4.126621    0.721062   -0.259928
     89          1           0        3.447198    3.513417    1.342207
     90          1           0        1.731138    3.468893    0.612592
     91          1           0        3.198785    3.786541   -0.427874
     92          1           0       -2.823330   -3.055652   -0.074025
     93          1           0       -2.959607   -2.544522   -1.570323
     94          1           0       -1.241920   -2.400666   -1.182953
     95          1           0        2.406154   -0.145228   -0.303757
     96          1           0       -2.193314    1.188317    0.139040
     97          1           0        0.333516    2.006176    0.002913
     98          1           0        0.254606   -0.774473   -0.511445
 ---------------------------------------------------------------------

 SCF Done:  E(RCAM-B3LYP) =  -1706.91609464     A.U. after   14 cycles

 Excitation energies and oscillator strengths:

 Excited State   1:      Singlet-A      2.8559 eV  434.13 nm  f=3.5272  <S**2>=0.000
     155 ->158         0.16229
     156 ->157         0.68183
 This state for optimization and/or second-order correction.
 Total Energy, E(TD-HF/TD-DFT) =  -1706.81114240
 Copying the excited state density for this state as the 1-particle RhoCI density.

 The electronic state is 1-A.
 Alpha  occ. eigenvalues --  -19.21748 -19.20451 -10.29949 -10.28976 -10.28504
 Alpha  occ. eigenvalues --  -10.27685 -10.27548 -10.27505 -10.27451 -10.27442
 Alpha  occ. eigenvalues --  -10.27438 -10.27227 -10.27127 -10.27050 -10.27022
 Alpha  occ. eigenvalues --  -10.26934 -10.26399 -10.26261 -10.26178 -10.25987
 Alpha  occ. eigenvalues --  -10.25950 -10.25936 -10.25652 -10.25626 -10.25606
 Alpha  occ. eigenvalues --  -10.25282 -10.25240 -10.25223 -10.25141 -10.24859
 Alpha  occ. eigenvalues --  -10.24858 -10.24710 -10.24653 -10.24601 -10.24356
 Alpha  occ. eigenvalues --  -10.24348 -10.24292 -10.24040 -10.23817 -10.23171
 Alpha  occ. eigenvalues --  -10.22984 -10.22580  -1.09395  -1.09026  -0.93716
 Alpha  occ. eigenvalues --   -0.93571  -0.92806  -0.91969  -0.91063  -0.90514
 Alpha  occ. eigenvalues --   -0.88521  -0.86981  -0.86598  -0.85891  -0.85324
 Alpha  occ. eigenvalues --   -0.83647  -0.82625  -0.81062  -0.80259  -0.78258
 Alpha  occ. eigenvalues --   -0.76923  -0.76601  -0.76530  -0.76432  -0.75838
 Alpha  occ. eigenvalues --   -0.75811  -0.75379  -0.74760  -0.73891  -0.70199
 Alpha  occ. eigenvalues --   -0.69025  -0.68257  -0.66342  -0.65348  -0.64742
 Alpha  occ. eigenvalues --   -0.64358  -0.63693  -0.62732  -0.60869  -0.60313
 Alpha  occ. eigenvalues --   -0.59520  -0.58686  -0.58551  -0.58141  -0.57058
 Alpha  occ. eigenvalues --   -0.56320  -0.56085  -0.55569  -0.55052  -0.54771
 Alpha  occ. eigenvalues --   -0.53574  -0.53156  -0.52657  -0.52376  -0.51092
 Alpha  occ. eigenvalues --   -0.50788  -0.50532  -0.49768  -0.49285  -0.48953
 Alpha  occ. eigenvalues --   -0.48671  -0.48550  -0.48218  -0.47632  -0.47559
 Alpha  occ. eigenvalues --   -0.47286  -0.47230  -0.47130  -0.46603  -0.46482
 Alpha  occ. eigenvalues --   -0.46309  -0.46233  -0.45606  -0.45472  -0.45325
 Alpha  occ. eigenvalues --   -0.44591  -0.44322  -0.43856  -0.43772  -0.43744
 Alpha  occ. eigenvalues --   -0.43193  -0.42861  -0.42654  -0.42445  -0.41730
 Alpha  occ. eigenvalues --   -0.41651  -0.41551  -0.41297  -0.41083  -0.40938
 Alpha  occ. eigenvalues --   -0.40715  -0.40176  -0.39893  -0.39672  -0.39563
 Alpha  occ. eigenvalues --   -0.39451  -0.38994  -0.38635  -0.38431  -0.37565
 Alpha  occ. eigenvalues --   -0.37486  -0.37446  -0.36992  -0.36836  -0.35245
 Alpha  occ. eigenvalues --   -0.34516  -0.34303  -0.33521  -0.32096  -0.31903
 Alpha  occ. eigenvalues --   -0.31420  -0.28971  -0.28052  -0.26411  -0.24180
 Alpha  occ. eigenvalues --   -0.21006
 Alpha virt. eigenvalues --   -0.03966   0.00142   0.03135   0.06187   0.07305
 Alpha virt. eigenvalues --    0.09356   0.11026   0.11514   0.11576   0.12068
 Alpha virt. eigenvalues --    0.12621   0.12811   0.12909   0.13062   0.13496

 Mulliken charges:
               1
     1  O   -0.569496
     2  O   -0.588079
     3  C   -0.061433
     4  C   -0.051719
     5  C   -0.165367
     6  C   -0.197178
     7  C    0.161167
     8  C    0.202533
     9  C    0.067656
    10  C    0.068164
    11  C   -0.228518
    12  C   -0.257531
    13  C    0.065203
    14  C    0.105554
    15  C   -0.296761
    16  C   -0.291095
    17  C   -0.311045
    18  C   -0.318488
    19  C   -0.105451
    20  C   -0.161755
    21  C   -0.372892
    22  C   -0.370109
    23  C    0.005429
    24  C   -0.072740
    25  C    0.063435
    26  C    0.146288
    27  C   -0.355288
    28  C   -0.378858
    29  C   -0.120351
    30  C   -0.133993
    31  C   -0.108663
    32  C   -0.058882
    33  C   -0.118907
    34  C   -0.115462
    35  C    0.166352
    36  C    0.166800
    37  C   -0.396751
    38  C   -0.410201
    39  C   -0.161742
    40  C   -0.145200
    41  C   -0.041493
    42  C   -0.054467
    43  H    0.103786
    44  H    0.078452
    45  H    0.085255
    46  H    0.088812
    47  H    0.053124
    48  H    0.084379
    49  H    0.129759
    50  H    0.096677
    51  H    0.117694
    52  H    0.110809
    53  H    0.102221
    54  H    0.100370
    55  H    0.101226
    56  H    0.116700
    57  H    0.085436
    58  H    0.109037
    59  H    0.116883
    60  H    0.111315
    61  H    0.096417
    62  H    0.107492
    63  H    0.114565
    64  H    0.095917
    65  H    0.075470
    66  H    0.072313
    67  H    0.125368
    68  H    0.096009
    69  H    0.098768
    70  H    0.105321
    71  H    0.118986
    72  H    0.099186
    73  H    0.312631
    74  H    0.307293
    75  H    0.027788
    76  H    0.080751
    77  H    0.101518
    78  H    0.120249
    79  H    0.108191
    80  H    0.119213
    81  H    0.101005
    82  H    0.105132
    83  H    0.085674
    84  H    0.069628
    85  H    0.092653
    86  H    0.075730
    87  H    0.077001
    88  H    0.084743
    89  H    0.101697
    90  H    0.100071
    91  H    0.123028
    92  H    0.106715
    93  H    0.137777
    94  H    0.078716
    95  H    0.064668
    96  H    0.073259
    97  H    0.068964
    98  H    0.079488
 Sum of Mulliken charges =  -0.00000

 Dipole moment (field-independent basis, Debye):
    X=             -0.3776    Y=             -2.0261    Z=              1.6504  Tot=              2.6403
 Quadrupole moment (field-independent basis, Debye-Ang):
   XX=           -249.4597   YY=           -242.6752   ZZ=           -261.7359
   XY=             16.4152   XZ=              6.9984   YZ=              1.3502

 Normal termination of Gaussian 16 at Mon Jul  1 04:13:38 2019.
