 Gaussian 16, Revision A.03,
 Gaussian 16:  ES64L-G16RevA.03 25-Dec-2016

 -------------------------------------
 # td=(NStates=1) CAM-B3LYP/6-31G(d,p)
 -------------------------------------

 --
 TD
 --
 Symbolic Z-matrix:
 Charge =  0 Multiplicity = 1

                         Standard orientation:
 ---------------------------------------------------------------------
 Center     Atomic      Atomic             Coordinates (Angstroms)
 Number     Number       Type             X           Y           Z
 ---------------------------------------------------------------------
      1          8           0       14.698498   -2.185734   -0.427658
      2          8           0      -14.751494    2.045637    0.549249
      3          6           0       11.508757   -0.935208    1.150201
      4          6           0      -12.242845   -0.892291    0.842470
      5          6           0       13.072581   -1.215788    1.088989
      6          6           0      -13.682784   -0.307244    0.681521
      7          6           0       13.342909   -1.924888   -0.282051
      8          6           0      -13.570558    1.253483    0.604808
      9          6           0       10.877976   -0.338269   -0.048741
     10          6           0      -11.383228   -0.273160   -0.132613
     11          6           0       12.884183   -1.057501   -1.397853
     12          6           0      -12.888579    1.680546   -0.632992
     13          6           0       11.519273   -0.367119   -1.236978
     14          6           0      -11.567591    0.817454   -0.881374
     15          6           0       11.364428   -0.109119    2.483771
     16          6           0       10.876521   -2.376793    1.411699
     17          6           0      -11.733504   -0.695778    2.368585
     18          6           0      -12.513712   -2.442072    0.718335
     19          6           0        9.510886    0.265211    0.198899
     20          6           0      -10.131291   -1.042391   -0.180481
     21          6           0       10.999858    0.325460   -2.527008
     22          6           0      -10.674638    1.458294   -1.981654
     23          6           0        9.256496    1.518677   -0.199502
     24          6           0       -8.772104   -0.619667   -0.296290
     25          6           0        8.011251    2.248313    0.177541
     26          6           0       -7.539380   -1.370031   -0.496030
     27          6           0        8.203032    3.752002    0.404911
     28          6           0       -7.569068   -2.813427   -0.874651
     29          6           0        6.862508    1.578122    0.018383
     30          6           0       -6.421165   -0.636564   -0.459962
     31          6           0        5.488447    2.031963    0.017123
     32          6           0       -5.064722   -1.132409   -0.602354
     33          6           0        4.438730    1.220492    0.156545
     34          6           0       -3.901309   -0.404767   -0.282803
     35          6           0        3.018134    1.710955    0.258011
     36          6           0       -2.569362   -0.830730   -0.369321
     37          6           0        2.721408    3.208656    0.518532
     38          6           0       -2.282709   -2.226570   -0.884594
     39          6           0        2.050275    0.858935   -0.055827
     40          6           0       -1.653429    0.138240   -0.168219
     41          6           0        0.625359    0.923570    0.058986
     42          6           0       -0.219945   -0.080310   -0.220973
     43          1           0       13.566770   -0.206058    1.011747
     44          1           0       13.369956   -1.775113    2.161223
     45          1           0      -14.236784   -0.420749    1.600757
     46          1           0      -14.188484   -0.676543   -0.256134
     47          1           0       12.838952   -3.040212   -0.132543
     48          1           0      -13.218290    1.748670    1.634894
     49          1           0       13.689377   -0.249519   -1.539598
     50          1           0       12.829994   -1.653480   -2.314271
     51          1           0      -13.731917    1.647911   -1.440866
     52          1           0      -12.517015    2.727786   -0.655804
     53          1           0       11.853694   -0.431495    3.285116
     54          1           0       10.260745   -0.038253    2.866094
     55          1           0       11.799374    0.967501    2.299822
     56          1           0       10.961517   -3.050574    0.545419
     57          1           0       11.099277   -2.863980    2.320825
     58          1           0        9.794323   -2.176994    1.855272
     59          1           0      -11.607212    0.446093    2.499781
     60          1           0      -10.785768   -0.943135    2.411737
     61          1           0      -12.276659   -1.235058    3.002822
     62          1           0      -13.155254   -2.822940    1.504638
     63          1           0      -11.563670   -2.935577    0.999312
     64          1           0      -12.748915   -2.891865   -0.359243
     65          1           0        8.839845   -0.162053    0.826718
     66          1           0      -10.323158   -2.144669   -0.237869
     67          1           0       10.030487    0.557632   -2.397467
     68          1           0       11.544411    1.393271   -2.810378
     69          1           0       10.965400   -0.430492   -3.399469
     70          1           0      -11.457448    1.860739   -2.687097
     71          1           0       -9.938870    0.643636   -2.313203
     72          1           0      -10.191694    2.543756   -1.787678
     73          1           0       14.945558   -2.666191    0.303849
     74          1           0      -15.318087    1.781914    1.407671
     75          1           0       10.291934    2.068957   -0.556671
     76          1           0       -8.633906    0.370704   -0.181500
     77          1           0        8.872501    4.087503   -0.416294
     78          1           0        7.233278    4.235391    0.541248
     79          1           0        8.880653    3.874547    1.323722
     80          1           0       -7.878155   -3.486900    0.065217
     81          1           0       -8.297483   -2.923761   -1.649301
     82          1           0       -6.585574   -3.167410   -1.196200
     83          1           0        6.915878    0.469276   -0.137390
     84          1           0       -6.386549    0.450001   -0.218052
     85          1           0        5.441587    3.074893    0.220247
     86          1           0       -4.882328   -2.047348   -0.873100
     87          1           0        4.469209    0.145042   -0.146695
     88          1           0       -4.031540    0.473533    0.120546
     89          1           0        3.480126    3.609463    1.261978
     90          1           0        1.683291    3.606617    0.968476
     91          1           0        3.021520    3.662445   -0.414186
     92          1           0       -2.649819   -2.884830   -0.245677
     93          1           0       -2.658258   -2.665222   -1.729888
     94          1           0       -1.185877   -2.487373   -0.715551
     95          1           0        2.117399   -0.175087   -0.453751
     96          1           0       -1.890414    1.143100    0.037547
     97          1           0        0.297994    1.984472    0.254666
     98          1           0        0.161480   -1.190856   -0.720421
 ---------------------------------------------------------------------

 SCF Done:  E(RCAM-B3LYP) =  -1706.97029270     A.U. after   14 cycles

 Excitation energies and oscillator strengths:

 Excited State   1:      Singlet-A      2.8271 eV  438.55 nm  f=3.6675  <S**2>=0.000
     155 ->158        -0.17640
     156 ->157         0.67817
 This state for optimization and/or second-order correction.
 Total Energy, E(TD-HF/TD-DFT) =  -1706.86639840
 Copying the excited state density for this state as the 1-particle RhoCI density.

 The electronic state is 1-A.
 Alpha  occ. eigenvalues --  -19.20772 -19.20279 -10.31472 -10.30089 -10.27852
 Alpha  occ. eigenvalues --  -10.27804 -10.27762 -10.27741 -10.27441 -10.27383
 Alpha  occ. eigenvalues --  -10.27258 -10.27160 -10.27065 -10.26965 -10.26961
 Alpha  occ. eigenvalues --  -10.26943 -10.26879 -10.26823 -10.26688 -10.26301
 Alpha  occ. eigenvalues --  -10.26176 -10.26163 -10.26133 -10.26034 -10.25986
 Alpha  occ. eigenvalues --  -10.25933 -10.25924 -10.25838 -10.25823 -10.25719
 Alpha  occ. eigenvalues --  -10.25540 -10.25444 -10.25418 -10.25304 -10.25214
 Alpha  occ. eigenvalues --  -10.25182 -10.25096 -10.25059 -10.24988 -10.24763
 Alpha  occ. eigenvalues --  -10.24469 -10.23512  -1.11504  -1.07539  -0.93525
 Alpha  occ. eigenvalues --   -0.93120  -0.92568  -0.91503  -0.90661  -0.89942
 Alpha  occ. eigenvalues --   -0.87195  -0.85758  -0.85668  -0.85045  -0.84093
 Alpha  occ. eigenvalues --   -0.82948  -0.81912  -0.79868  -0.79427  -0.78827
 Alpha  occ. eigenvalues --   -0.77157  -0.76863  -0.76299  -0.76158  -0.75804
 Alpha  occ. eigenvalues --   -0.75257  -0.74811  -0.74410  -0.74135  -0.70879
 Alpha  occ. eigenvalues --   -0.68468  -0.66844  -0.65709  -0.64909  -0.64460
 Alpha  occ. eigenvalues --   -0.63649  -0.62641  -0.62216  -0.61100  -0.60402
 Alpha  occ. eigenvalues --   -0.59298  -0.58383  -0.58092  -0.57001  -0.56184
 Alpha  occ. eigenvalues --   -0.55218  -0.54911  -0.54753  -0.53801  -0.53547
 Alpha  occ. eigenvalues --   -0.53066  -0.52281  -0.51664  -0.50624  -0.50443
 Alpha  occ. eigenvalues --   -0.49923  -0.49854  -0.49705  -0.49549  -0.49172
 Alpha  occ. eigenvalues --   -0.48815  -0.48681  -0.48575  -0.48088  -0.47928
 Alpha  occ. eigenvalues --   -0.47726  -0.47224  -0.47040  -0.46754  -0.46157
 Alpha  occ. eigenvalues --   -0.45770  -0.45656  -0.45426  -0.44991  -0.44806
 Alpha  occ. eigenvalues --   -0.44764  -0.44272  -0.43697  -0.43528  -0.43395
 Alpha  occ. eigenvalues --   -0.43105  -0.42883  -0.42632  -0.42478  -0.42097
 Alpha  occ. eigenvalues --   -0.41954  -0.41765  -0.41567  -0.41051  -0.40500
 Alpha  occ. eigenvalues --   -0.40386  -0.40266  -0.40229  -0.40090  -0.39870
 Alpha  occ. eigenvalues --   -0.39176  -0.39085  -0.38843  -0.38284  -0.37971
 Alpha  occ. eigenvalues --   -0.37586  -0.37172  -0.36915  -0.35687  -0.35270
 Alpha  occ. eigenvalues --   -0.35016  -0.34690  -0.33960  -0.32169  -0.30459
 Alpha  occ. eigenvalues --   -0.30432  -0.29802  -0.28394  -0.26489  -0.24029
 Alpha  occ. eigenvalues --   -0.20915
 Alpha virt. eigenvalues --   -0.04017  -0.00114   0.03084   0.05666   0.07676
 Alpha virt. eigenvalues --    0.09368   0.10445   0.10725   0.11085   0.11674
 Alpha virt. eigenvalues --    0.12738   0.13140   0.13447   0.13631   0.13768

 Mulliken charges:
               1
     1  O   -0.538675
     2  O   -0.576950
     3  C   -0.037609
     4  C   -0.036333
     5  C   -0.184910
     6  C   -0.174538
     7  C    0.178146
     8  C    0.168883
     9  C    0.084147
    10  C    0.097164
    11  C   -0.211695
    12  C   -0.218275
    13  C    0.019460
    14  C    0.048619
    15  C   -0.298178
    16  C   -0.304809
    17  C   -0.300663
    18  C   -0.313103
    19  C   -0.089237
    20  C   -0.171633
    21  C   -0.348005
    22  C   -0.357387
    23  C   -0.112756
    24  C   -0.106867
    25  C    0.059721
    26  C    0.125879
    27  C   -0.361846
    28  C   -0.364862
    29  C   -0.109563
    30  C   -0.124057
    31  C   -0.077437
    32  C   -0.077916
    33  C   -0.103369
    34  C   -0.101388
    35  C    0.076414
    36  C    0.122888
    37  C   -0.376669
    38  C   -0.384023
    39  C   -0.107249
    40  C   -0.119396
    41  C   -0.083335
    42  C   -0.095417
    43  H    0.092659
    44  H    0.067985
    45  H    0.075682
    46  H    0.104275
    47  H    0.045383
    48  H    0.063352
    49  H    0.119388
    50  H    0.117510
    51  H    0.111118
    52  H    0.108571
    53  H    0.114105
    54  H    0.080236
    55  H    0.086977
    56  H    0.114918
    57  H    0.104355
    58  H    0.069962
    59  H    0.097292
    60  H    0.123837
    61  H    0.109356
    62  H    0.107159
    63  H    0.098165
    64  H    0.095311
    65  H    0.096703
    66  H    0.081398
    67  H    0.137159
    68  H    0.090775
    69  H    0.095768
    70  H    0.114415
    71  H    0.123647
    72  H    0.101701
    73  H    0.297071
    74  H    0.292470
    75  H    0.088095
    76  H    0.079428
    77  H    0.126789
    78  H    0.113433
    79  H    0.118449
    80  H    0.103017
    81  H    0.129924
    82  H    0.113865
    83  H    0.079545
    84  H    0.083111
    85  H    0.072548
    86  H    0.048547
    87  H    0.094476
    88  H    0.059509
    89  H    0.109809
    90  H    0.109672
    91  H    0.140321
    92  H    0.135196
    93  H    0.135441
    94  H    0.093225
    95  H    0.067820
    96  H    0.091897
    97  H    0.073977
    98  H    0.080034
 Sum of Mulliken charges =  -0.00000

 Dipole moment (field-independent basis, Debye):
    X=              0.1808    Y=             -0.9875    Z=              2.2922  Tot=              2.5024
 Quadrupole moment (field-independent basis, Debye-Ang):
   XX=           -284.0008   YY=           -244.5075   ZZ=           -259.0848
   XY=             20.2464   XZ=              2.5131   YZ=             -0.4989

 Normal termination of Gaussian 16 at Thu Jun 27 17:11:14 2019.
