 Gaussian 16, Revision A.03,
 Gaussian 16:  ES64L-G16RevA.03 25-Dec-2016

 -------------------------------------
 # td=(NStates=1) CAM-B3LYP/6-31G(d,p)
 -------------------------------------

 --
 TD
 --
 Symbolic Z-matrix:
 Charge =  0 Multiplicity = 1

                         Standard orientation:
 ---------------------------------------------------------------------
 Center     Atomic      Atomic             Coordinates (Angstroms)
 Number     Number       Type             X           Y           Z
 ---------------------------------------------------------------------
      1          8           0       14.856636   -2.048906   -0.308857
      2          8           0      -14.804982    1.976931    0.795534
      3          6           0       11.323834   -1.160189    1.183212
      4          6           0      -12.253103   -0.850615    0.850417
      5          6           0       12.908233   -1.425973    1.004636
      6          6           0      -13.667480   -0.059128    0.893095
      7          6           0       13.373010   -1.842261   -0.285255
      8          6           0      -13.530378    1.397462    0.796539
      9          6           0       10.957101   -0.243856   -0.016532
     10          6           0      -11.329358   -0.183483   -0.128253
     11          6           0       13.109154   -0.611964   -1.293234
     12          6           0      -12.882419    1.628634   -0.613854
     13          6           0       11.749927    0.011233   -1.137819
     14          6           0      -11.640216    0.847357   -0.931699
     15          6           0       11.044952   -0.616067    2.481288
     16          6           0       10.533049   -2.542391    0.915416
     17          6           0      -11.614384   -0.881242    2.257450
     18          6           0      -12.564628   -2.291765    0.381996
     19          6           0        9.602324    0.229619    0.211836
     20          6           0      -10.079259   -1.002677   -0.392531
     21          6           0       11.298304    0.837561   -2.301099
     22          6           0      -10.798111    1.485155   -2.007121
     23          6           0        9.378925    1.566299    0.035824
     24          6           0       -8.850747   -0.500534   -0.351230
     25          6           0        8.047160    2.190493    0.295292
     26          6           0       -7.604132   -1.305895   -0.456748
     27          6           0        8.014966    3.556138    0.809851
     28          6           0       -7.674062   -2.771678   -0.773310
     29          6           0        6.917865    1.580921   -0.045377
     30          6           0       -6.456621   -0.626322   -0.314412
     31          6           0        5.594436    1.924767    0.112811
     32          6           0       -5.120265   -1.226972   -0.329890
     33          6           0        4.501190    1.235565   -0.188711
     34          6           0       -3.968406   -0.456627   -0.313202
     35          6           0        3.095939    1.660889    0.207335
     36          6           0       -2.666797   -0.817746   -0.545693
     37          6           0        2.876714    3.095525    0.568244
     38          6           0       -2.283620   -2.304332   -0.973843
     39          6           0        2.117174    0.687626   -0.108595
     40          6           0       -1.622889    0.042061   -0.356522
     41          6           0        0.670613    0.864812   -0.083821
     42          6           0       -0.227280   -0.100709   -0.288306
     43          1           0       13.394442   -0.447321    1.372341
     44          1           0       13.125649   -2.105247    1.964158
     45          1           0      -14.137582   -0.562515    1.608466
     46          1           0      -14.150262   -0.088228   -0.020339
     47          1           0       12.722552   -2.759010   -0.606128
     48          1           0      -12.908122    1.775535    1.642441
     49          1           0       13.823061    0.209538   -1.100088
     50          1           0       13.387752   -0.920725   -2.212963
     51          1           0      -13.830172    1.177751   -1.303368
     52          1           0      -12.719731    2.713896   -0.798279
     53          1           0       11.294202   -1.263811    3.382197
     54          1           0        9.898965   -0.589797    2.763182
     55          1           0       11.223437    0.449342    2.635852
     56          1           0       10.924210   -2.970589    0.027242
     57          1           0       10.573343   -3.356665    1.728261
     58          1           0        9.483473   -2.340747    0.765801
     59          1           0      -11.689974    0.019526    2.700178
     60          1           0      -10.591705   -1.286639    2.211205
     61          1           0      -12.103087   -1.524790    2.730026
     62          1           0      -13.354704   -2.581682    0.826954
     63          1           0      -11.693643   -2.944812    0.545728
     64          1           0      -12.835980   -2.204584   -0.696393
     65          1           0        8.824858   -0.372777    0.350823
     66          1           0      -10.105985   -2.013393   -0.264296
     67          1           0       10.294789    1.035689   -2.490428
     68          1           0       11.874979    1.768366   -2.211701
     69          1           0       11.607156    0.364315   -3.242409
     70          1           0      -11.384005    1.538903   -3.009532
     71          1           0       -9.717808    0.795418   -2.242855
     72          1           0      -10.623172    2.503071   -1.532273
     73          1           0       15.011288   -3.040936   -0.143289
     74          1           0      -15.410393    1.457163    1.385848
     75          1           0       10.393728    2.250528   -0.134722
     76          1           0       -8.751294    0.637396   -0.077215
     77          1           0        8.862967    4.160192    0.292988
     78          1           0        7.122049    4.197132    0.749299
     79          1           0        8.342147    3.614894    1.702602
     80          1           0       -8.221250   -3.392887    0.049024
     81          1           0       -8.053594   -2.939217   -1.851585
     82          1           0       -6.626911   -3.083910   -0.517656
     83          1           0        7.051965    0.638299   -0.682720
     84          1           0       -6.484035    0.413505   -0.344916
     85          1           0        5.326118    2.915160    0.744985
     86          1           0       -4.815251   -2.209390   -0.630443
     87          1           0        4.486043    0.240668   -0.678602
     88          1           0       -4.067161    0.587293    0.061028
     89          1           0        3.414837    3.467064    1.447715
     90          1           0        1.825137    3.458344    0.690941
     91          1           0        3.196541    3.817479   -0.196611
     92          1           0       -2.542966   -2.953289   -0.121065
     93          1           0       -2.678638   -2.686509   -1.845964
     94          1           0       -1.111121   -2.538387   -1.063689
     95          1           0        2.556069   -0.139800   -0.596248
     96          1           0       -1.957716    1.023508   -0.094230
     97          1           0        0.356291    1.829703    0.300527
     98          1           0        0.070653   -1.284377   -0.472335
 ---------------------------------------------------------------------

 SCF Done:  E(RCAM-B3LYP) =  -1706.98598687     A.U. after   14 cycles

 Excitation energies and oscillator strengths:

 Excited State   1:      Singlet-A      2.6792 eV  462.77 nm  f=3.6932  <S**2>=0.000
     155 ->158        -0.16301
     156 ->157         0.68382
 This state for optimization and/or second-order correction.
 Total Energy, E(TD-HF/TD-DFT) =  -1706.88752855
 Copying the excited state density for this state as the 1-particle RhoCI density.

 The electronic state is 1-A.
 Alpha  occ. eigenvalues --  -19.21830 -19.21195 -10.31820 -10.30281 -10.28474
 Alpha  occ. eigenvalues --  -10.27858 -10.27414 -10.27363 -10.27361 -10.27190
 Alpha  occ. eigenvalues --  -10.27128 -10.26997 -10.26996 -10.26861 -10.26853
 Alpha  occ. eigenvalues --  -10.26619 -10.26548 -10.26358 -10.26331 -10.26269
 Alpha  occ. eigenvalues --  -10.26186 -10.26177 -10.26114 -10.25935 -10.25931
 Alpha  occ. eigenvalues --  -10.25906 -10.25893 -10.25622 -10.25574 -10.25574
 Alpha  occ. eigenvalues --  -10.25198 -10.25102 -10.25083 -10.25082 -10.25082
 Alpha  occ. eigenvalues --  -10.24967 -10.24532 -10.24235 -10.24189 -10.23524
 Alpha  occ. eigenvalues --  -10.23046 -10.21909  -1.09782  -1.06487  -0.93488
 Alpha  occ. eigenvalues --   -0.93360  -0.92015  -0.91625  -0.90546  -0.89613
 Alpha  occ. eigenvalues --   -0.87226  -0.87004  -0.86856  -0.85635  -0.85073
 Alpha  occ. eigenvalues --   -0.83350  -0.82087  -0.80917  -0.80239  -0.78170
 Alpha  occ. eigenvalues --   -0.78087  -0.77010  -0.76473  -0.76331  -0.75839
 Alpha  occ. eigenvalues --   -0.75553  -0.75089  -0.74544  -0.74069  -0.70784
 Alpha  occ. eigenvalues --   -0.68555  -0.67070  -0.65452  -0.65090  -0.64204
 Alpha  occ. eigenvalues --   -0.63599  -0.62316  -0.60967  -0.60425  -0.59918
 Alpha  occ. eigenvalues --   -0.59048  -0.58449  -0.58191  -0.58020  -0.56968
 Alpha  occ. eigenvalues --   -0.56086  -0.55394  -0.54776  -0.54184  -0.53779
 Alpha  occ. eigenvalues --   -0.53317  -0.52559  -0.52367  -0.51921  -0.51114
 Alpha  occ. eigenvalues --   -0.50618  -0.50289  -0.49838  -0.49352  -0.49090
 Alpha  occ. eigenvalues --   -0.48942  -0.48803  -0.48687  -0.48602  -0.48329
 Alpha  occ. eigenvalues --   -0.47830  -0.47585  -0.47514  -0.46995  -0.46622
 Alpha  occ. eigenvalues --   -0.46050  -0.45857  -0.45449  -0.45400  -0.45299
 Alpha  occ. eigenvalues --   -0.44145  -0.44080  -0.43583  -0.43120  -0.42889
 Alpha  occ. eigenvalues --   -0.42811  -0.42618  -0.42427  -0.42394  -0.41919
 Alpha  occ. eigenvalues --   -0.41821  -0.41582  -0.41277  -0.41224  -0.40910
 Alpha  occ. eigenvalues --   -0.40457  -0.40179  -0.40054  -0.39922  -0.39476
 Alpha  occ. eigenvalues --   -0.39083  -0.38860  -0.38553  -0.38442  -0.38177
 Alpha  occ. eigenvalues --   -0.37815  -0.37482  -0.36719  -0.35757  -0.35358
 Alpha  occ. eigenvalues --   -0.35103  -0.34546  -0.33046  -0.32578  -0.32042
 Alpha  occ. eigenvalues --   -0.31806  -0.29705  -0.27764  -0.26256  -0.23898
 Alpha  occ. eigenvalues --   -0.20584
 Alpha virt. eigenvalues --   -0.04495   0.00048   0.03355   0.06040   0.07905
 Alpha virt. eigenvalues --    0.09503   0.10693   0.11590   0.11753   0.12290
 Alpha virt. eigenvalues --    0.12810   0.12837   0.13099   0.13270   0.13928

 Mulliken charges:
               1
     1  O   -0.566129
     2  O   -0.557089
     3  C    0.008751
     4  C   -0.066800
     5  C   -0.156838
     6  C   -0.193624
     7  C    0.139903
     8  C    0.174983
     9  C    0.017137
    10  C    0.062578
    11  C   -0.216719
    12  C   -0.233473
    13  C    0.050154
    14  C    0.083994
    15  C   -0.317495
    16  C   -0.311959
    17  C   -0.284634
    18  C   -0.287863
    19  C   -0.073384
    20  C   -0.129768
    21  C   -0.360011
    22  C   -0.341532
    23  C   -0.134295
    24  C   -0.099256
    25  C    0.100257
    26  C    0.099748
    27  C   -0.375962
    28  C   -0.368045
    29  C   -0.124594
    30  C   -0.106720
    31  C   -0.067211
    32  C   -0.108680
    33  C   -0.117347
    34  C   -0.130177
    35  C    0.112292
    36  C    0.133265
    37  C   -0.396549
    38  C   -0.385754
    39  C   -0.127652
    40  C   -0.133371
    41  C   -0.099242
    42  C   -0.047790
    43  H    0.095086
    44  H    0.061964
    45  H    0.079022
    46  H    0.099833
    47  H    0.080406
    48  H    0.071252
    49  H    0.121701
    50  H    0.113706
    51  H    0.085900
    52  H    0.101883
    53  H    0.102724
    54  H    0.086313
    55  H    0.116036
    56  H    0.104418
    57  H    0.089896
    58  H    0.107753
    59  H    0.108019
    60  H    0.102579
    61  H    0.101766
    62  H    0.103424
    63  H    0.098116
    64  H    0.104384
    65  H    0.098406
    66  H    0.073437
    67  H    0.132505
    68  H    0.115417
    69  H    0.103588
    70  H    0.108220
    71  H    0.092969
    72  H    0.113322
    73  H    0.309650
    74  H    0.310909
    75  H    0.080947
    76  H    0.082082
    77  H    0.096619
    78  H    0.114490
    79  H    0.136338
    80  H    0.104564
    81  H    0.129902
    82  H    0.113743
    83  H    0.070492
    84  H    0.090959
    85  H    0.062501
    86  H    0.089411
    87  H    0.080913
    88  H    0.076169
    89  H    0.123620
    90  H    0.109227
    91  H    0.133612
    92  H    0.121107
    93  H    0.132301
    94  H    0.090426
    95  H    0.082399
    96  H    0.067720
    97  H    0.089156
    98  H    0.063599
 Sum of Mulliken charges =  -0.00000

 Dipole moment (field-independent basis, Debye):
    X=             -0.0388    Y=             -2.1099    Z=              1.0989  Tot=              2.3793
 Quadrupole moment (field-independent basis, Debye-Ang):
   XX=           -272.6290   YY=           -242.2196   ZZ=           -259.4421
   XY=             13.7028   XZ=            -15.0984   YZ=              3.2441

 Normal termination of Gaussian 16 at Tue Jul  9 23:35:07 2019.
