 Gaussian 16, Revision A.03,
 Gaussian 16:  ES64L-G16RevA.03 25-Dec-2016

 -------------------------------------
 # td=(NStates=1) CAM-B3LYP/6-31G(d,p)
 -------------------------------------

 --
 TD
 --
 Symbolic Z-matrix:
 Charge =  0 Multiplicity = 1

                         Standard orientation:
 ---------------------------------------------------------------------
 Center     Atomic      Atomic             Coordinates (Angstroms)
 Number     Number       Type             X           Y           Z
 ---------------------------------------------------------------------
      1          8           0       14.957470   -2.059056   -0.371875
      2          8           0      -14.813456    1.981409    0.724227
      3          6           0       11.507499   -1.050436    1.192694
      4          6           0      -12.363023   -0.925821    0.762156
      5          6           0       13.062670   -1.450151    1.136997
      6          6           0      -13.628443   -0.159238    0.805959
      7          6           0       13.516436   -1.855361   -0.252139
      8          6           0      -13.568489    1.361330    0.833966
      9          6           0       11.059936   -0.276739   -0.026494
     10          6           0      -11.382466   -0.193000   -0.217409
     11          6           0       13.139353   -0.751607   -1.281837
     12          6           0      -12.835535    1.777252   -0.456384
     13          6           0       11.840665   -0.222613   -1.105152
     14          6           0      -11.593031    1.017584   -0.769396
     15          6           0       11.264236   -0.230211    2.495102
     16          6           0       10.771303   -2.471425    1.218693
     17          6           0      -11.792377   -1.028738    2.256369
     18          6           0      -12.555562   -2.458223    0.388084
     19          6           0        9.697392    0.411538    0.172280
     20          6           0      -10.206060   -0.984371   -0.508643
     21          6           0       11.139620    0.395841   -2.443799
     22          6           0      -10.834387    1.573086   -1.882315
     23          6           0        9.289885    1.582564   -0.091528
     24          6           0       -8.916021   -0.515973   -0.206125
     25          6           0        8.046481    2.290121    0.241325
     26          6           0       -7.680551   -1.341710   -0.507944
     27          6           0        7.961954    3.741288    0.440685
     28          6           0       -7.850548   -2.837235   -1.027506
     29          6           0        6.890707    1.593072    0.057757
     30          6           0       -6.492939   -0.677297   -0.286116
     31          6           0        5.555718    1.977153    0.071994
     32          6           0       -5.086206   -1.179680   -0.407165
     33          6           0        4.525680    1.144016   -0.092152
     34          6           0       -4.019633   -0.329233   -0.270127
     35          6           0        3.084301    1.562267    0.082475
     36          6           0       -2.634881   -0.815068   -0.434674
     37          6           0        2.785226    2.949091    0.586921
     38          6           0       -2.439315   -2.203959   -0.829056
     39          6           0        2.099981    0.626712   -0.164852
     40          6           0       -1.649420    0.032797   -0.228684
     41          6           0        0.755549    0.909686   -0.072486
     42          6           0       -0.232493   -0.114623   -0.372493
     43          1           0       13.673223   -0.511851    1.245034
     44          1           0       13.305426   -2.220892    1.664692
     45          1           0      -14.105854   -0.656340    1.597884
     46          1           0      -14.211544   -0.458220   -0.117824
     47          1           0       12.779685   -2.636219   -0.666583
     48          1           0      -13.013489    1.805582    1.659764
     49          1           0       13.810693   -0.008304   -1.197738
     50          1           0       13.379682   -1.099908   -2.308794
     51          1           0      -13.572160    1.754879   -1.136949
     52          1           0      -12.589854    2.822667   -0.474814
     53          1           0       11.782396   -0.742484    3.278721
     54          1           0       10.275933    0.102531    2.751110
     55          1           0       11.918522    0.622931    2.575516
     56          1           0       10.962042   -3.052252    0.297845
     57          1           0       11.090310   -3.063214    2.057375
     58          1           0        9.486792   -2.334211    1.400731
     59          1           0      -11.500604   -0.173326    2.692072
     60          1           0      -10.720221   -1.661619    2.103947
     61          1           0      -12.388918   -1.615900    2.799719
     62          1           0      -13.050338   -2.922671    1.212250
     63          1           0      -11.543131   -3.066912    0.347142
     64          1           0      -12.957091   -2.690898   -0.519237
     65          1           0        9.087218   -0.329995    0.702442
     66          1           0      -10.454392   -1.975732   -0.650677
     67          1           0       10.226800    0.678901   -2.205065
     68          1           0       11.641654    1.301262   -2.527906
     69          1           0       11.097212   -0.326744   -3.355607
     70          1           0      -11.324303    2.126267   -2.699903
     71          1           0      -10.024231    0.872035   -2.050044
     72          1           0      -10.358792    2.554985   -1.565407
     73          1           0       15.137082   -2.443687    0.658095
     74          1           0      -15.036566    2.160888    1.637839
     75          1           0        9.979485    2.264614   -0.678485
     76          1           0       -8.763780    0.363031    0.173326
     77          1           0        8.348981    4.216310   -0.499188
     78          1           0        6.979452    4.037059    0.617584
     79          1           0        8.820906    4.111538    1.088227
     80          1           0       -8.384325   -3.386039   -0.045942
     81          1           0       -8.293301   -2.862568   -1.979804
     82          1           0       -6.824644   -3.249767   -1.183321
     83          1           0        6.786991    0.670043   -0.123018
     84          1           0       -6.817355    0.498253   -0.090909
     85          1           0        5.171841    2.965764    0.510299
     86          1           0       -5.015647   -2.148465   -0.619534
     87          1           0        4.667779    0.153442   -0.551029
     88          1           0       -4.208197    0.810498   -0.080314
     89          1           0        3.184459    3.194531    1.657456
     90          1           0        1.763991    3.253313    0.809079
     91          1           0        3.166323    3.713535   -0.169304
     92          1           0       -2.883521   -2.843006   -0.073763
     93          1           0       -2.793396   -2.313664   -1.879493
     94          1           0       -1.444305   -2.320212   -0.996892
     95          1           0        2.322521   -0.439743   -0.368826
     96          1           0       -1.974978    0.978663    0.411746
     97          1           0        0.491419    1.929127    0.099778
     98          1           0        0.364735   -1.022751   -0.905992
 ---------------------------------------------------------------------

 SCF Done:  E(RCAM-B3LYP) =  -1706.93883842     A.U. after   14 cycles

 Excitation energies and oscillator strengths:

 Excited State   1:      Singlet-A      2.6454 eV  468.68 nm  f=3.5822  <S**2>=0.000
     155 ->158         0.15177
     156 ->157         0.68692
 This state for optimization and/or second-order correction.
 Total Energy, E(TD-HF/TD-DFT) =  -1706.84162188
 Copying the excited state density for this state as the 1-particle RhoCI density.

 The electronic state is 1-A.
 Alpha  occ. eigenvalues --  -19.23513 -19.21413 -10.30767 -10.30173 -10.28654
 Alpha  occ. eigenvalues --  -10.28248 -10.28080 -10.27698 -10.27584 -10.27407
 Alpha  occ. eigenvalues --  -10.27208 -10.27108 -10.27057 -10.26984 -10.26952
 Alpha  occ. eigenvalues --  -10.26362 -10.26285 -10.26275 -10.26257 -10.26091
 Alpha  occ. eigenvalues --  -10.25901 -10.25772 -10.25713 -10.25686 -10.25495
 Alpha  occ. eigenvalues --  -10.25486 -10.25428 -10.25419 -10.25417 -10.25311
 Alpha  occ. eigenvalues --  -10.24968 -10.24851 -10.24683 -10.24387 -10.24239
 Alpha  occ. eigenvalues --  -10.23991 -10.23976 -10.23903 -10.23533 -10.23488
 Alpha  occ. eigenvalues --  -10.23471 -10.22743  -1.11047  -1.07245  -0.93423
 Alpha  occ. eigenvalues --   -0.93257  -0.92315  -0.91902  -0.90498  -0.88797
 Alpha  occ. eigenvalues --   -0.87375  -0.87244  -0.86448  -0.85361  -0.84671
 Alpha  occ. eigenvalues --   -0.83187  -0.81901  -0.80857  -0.79620  -0.78670
 Alpha  occ. eigenvalues --   -0.77151  -0.76481  -0.76370  -0.76266  -0.76149
 Alpha  occ. eigenvalues --   -0.75755  -0.75318  -0.75033  -0.73529  -0.70501
 Alpha  occ. eigenvalues --   -0.68824  -0.67466  -0.66168  -0.65553  -0.64567
 Alpha  occ. eigenvalues --   -0.63878  -0.62486  -0.61661  -0.61340  -0.60500
 Alpha  occ. eigenvalues --   -0.60138  -0.59331  -0.57533  -0.57246  -0.56181
 Alpha  occ. eigenvalues --   -0.55864  -0.55392  -0.55070  -0.54103  -0.53532
 Alpha  occ. eigenvalues --   -0.53124  -0.52060  -0.51550  -0.51378  -0.51223
 Alpha  occ. eigenvalues --   -0.50548  -0.50295  -0.49779  -0.49602  -0.49277
 Alpha  occ. eigenvalues --   -0.48999  -0.48814  -0.48669  -0.48480  -0.48157
 Alpha  occ. eigenvalues --   -0.48004  -0.47589  -0.47379  -0.47057  -0.46938
 Alpha  occ. eigenvalues --   -0.46493  -0.45873  -0.45821  -0.45331  -0.45035
 Alpha  occ. eigenvalues --   -0.44863  -0.44574  -0.44358  -0.44070  -0.43827
 Alpha  occ. eigenvalues --   -0.43432  -0.43145  -0.42669  -0.42306  -0.42151
 Alpha  occ. eigenvalues --   -0.41915  -0.41378  -0.41216  -0.41132  -0.40676
 Alpha  occ. eigenvalues --   -0.40620  -0.39945  -0.39674  -0.39657  -0.39314
 Alpha  occ. eigenvalues --   -0.39208  -0.38968  -0.38714  -0.38325  -0.38189
 Alpha  occ. eigenvalues --   -0.38137  -0.37206  -0.36203  -0.36168  -0.35353
 Alpha  occ. eigenvalues --   -0.34919  -0.34296  -0.33972  -0.32801  -0.32352
 Alpha  occ. eigenvalues --   -0.31723  -0.28891  -0.27870  -0.26070  -0.23756
 Alpha  occ. eigenvalues --   -0.20265
 Alpha virt. eigenvalues --   -0.04366   0.00409   0.03320   0.06529   0.07882
 Alpha virt. eigenvalues --    0.09036   0.10127   0.11510   0.11546   0.11913
 Alpha virt. eigenvalues --    0.12550   0.12859   0.13028   0.13674   0.14149

 Mulliken charges:
               1
     1  O   -0.553313
     2  O   -0.537280
     3  C   -0.029598
     4  C   -0.020602
     5  C   -0.197130
     6  C   -0.161151
     7  C    0.145111
     8  C    0.133087
     9  C    0.070927
    10  C    0.044271
    11  C   -0.232629
    12  C   -0.226553
    13  C    0.019105
    14  C    0.083970
    15  C   -0.313911
    16  C   -0.294120
    17  C   -0.289688
    18  C   -0.316595
    19  C   -0.096147
    20  C   -0.150066
    21  C   -0.349072
    22  C   -0.374390
    23  C   -0.096330
    24  C   -0.068880
    25  C    0.068781
    26  C    0.080843
    27  C   -0.367811
    28  C   -0.351478
    29  C   -0.049511
    30  C   -0.137687
    31  C   -0.096155
    32  C   -0.090929
    33  C   -0.120617
    34  C   -0.098637
    35  C    0.096360
    36  C    0.115297
    37  C   -0.389682
    38  C   -0.362209
    39  C   -0.111018
    40  C   -0.137546
    41  C   -0.069129
    42  C   -0.124344
    43  H    0.106080
    44  H    0.089079
    45  H    0.076406
    46  H    0.094011
    47  H    0.074736
    48  H    0.078055
    49  H    0.126701
    50  H    0.108885
    51  H    0.131519
    52  H    0.089287
    53  H    0.094767
    54  H    0.118944
    55  H    0.105374
    56  H    0.115241
    57  H    0.108845
    58  H    0.060421
    59  H    0.108338
    60  H    0.068609
    61  H    0.110419
    62  H    0.105501
    63  H    0.088937
    64  H    0.117173
    65  H    0.083577
    66  H    0.081414
    67  H    0.120609
    68  H    0.114787
    69  H    0.098604
    70  H    0.118974
    71  H    0.120245
    72  H    0.092362
    73  H    0.302453
    74  H    0.306071
    75  H    0.076974
    76  H    0.076018
    77  H    0.117716
    78  H    0.125939
    79  H    0.113038
    80  H    0.103937
    81  H    0.139321
    82  H    0.104735
    83  H    0.052428
    84  H    0.064645
    85  H    0.070683
    86  H    0.083663
    87  H    0.083644
    88  H    0.088442
    89  H    0.116148
    90  H    0.116729
    91  H    0.121548
    92  H    0.129164
    93  H    0.117394
    94  H    0.113276
    95  H    0.082245
    96  H    0.077490
    97  H    0.085229
    98  H    0.079624
 Sum of Mulliken charges =  -0.00000

 Dipole moment (field-independent basis, Debye):
    X=             -0.3300    Y=             -0.0398    Z=              2.6349  Tot=              2.6557
 Quadrupole moment (field-independent basis, Debye-Ang):
   XX=           -278.4351   YY=           -242.2371   ZZ=           -257.3798
   XY=              7.5879   XZ=              2.5777   YZ=              2.7844

 Normal termination of Gaussian 16 at Fri Jul  5 02:48:46 2019.
