 Gaussian 16, Revision A.03,
 Gaussian 16:  ES64L-G16RevA.03 25-Dec-2016

 -------------------------------------
 # td=(NStates=1) CAM-B3LYP/6-31G(d,p)
 -------------------------------------

 --
 TD
 --
 Symbolic Z-matrix:
 Charge =  0 Multiplicity = 1

                         Standard orientation:
 ---------------------------------------------------------------------
 Center     Atomic      Atomic             Coordinates (Angstroms)
 Number     Number       Type             X           Y           Z
 ---------------------------------------------------------------------
      1          8           0       14.629624   -2.287529   -0.377990
      2          8           0      -14.617541    2.118501    0.866962
      3          6           0       11.449318   -1.031690    1.296618
      4          6           0      -12.358654   -0.935261    0.878857
      5          6           0       12.955472   -1.381333    1.134010
      6          6           0      -13.617658   -0.188191    0.835084
      7          6           0       13.276395   -1.933125   -0.256988
      8          6           0      -13.387795    1.401113    0.782026
      9          6           0       10.873842   -0.347406    0.002706
     10          6           0      -11.330676   -0.323576   -0.152259
     11          6           0       12.956701   -0.957457   -1.298416
     12          6           0      -12.683727    1.763693   -0.445894
     13          6           0       11.672220   -0.273969   -1.143003
     14          6           0      -11.583087    0.810175   -0.787451
     15          6           0       11.302897   -0.275739    2.634928
     16          6           0       10.557726   -2.392914    1.297440
     17          6           0      -11.679873   -0.876143    2.268598
     18          6           0      -12.534178   -2.468077    0.462355
     19          6           0        9.690222    0.413684    0.184115
     20          6           0      -10.107544   -1.099947   -0.414872
     21          6           0       11.175029    0.440399   -2.365241
     22          6           0      -10.847209    1.279934   -2.004201
     23          6           0        9.388094    1.659780   -0.117949
     24          6           0       -8.897693   -0.520475   -0.416709
     25          6           0        8.065914    2.282506    0.093656
     26          6           0       -7.575263   -1.288782   -0.443335
     27          6           0        8.051792    3.773006    0.480033
     28          6           0       -7.646799   -2.749972   -0.677616
     29          6           0        6.866354    1.555330   -0.000229
     30          6           0       -6.408642   -0.552788   -0.494037
     31          6           0        5.563025    2.065566    0.116721
     32          6           0       -5.129297   -1.121478   -0.630441
     33          6           0        4.472541    1.255223    0.011725
     34          6           0       -3.999633   -0.436129   -0.356361
     35          6           0        3.102119    1.700620   -0.035860
     36          6           0       -2.650056   -0.846707   -0.417588
     37          6           0        2.784152    3.091137    0.412705
     38          6           0       -2.321071   -2.230663   -0.806255
     39          6           0        2.071813    0.844940   -0.280301
     40          6           0       -1.613801    0.107841   -0.295342
     41          6           0        0.703477    0.952141   -0.132912
     42          6           0       -0.217716   -0.037741   -0.366856
     43          1           0       13.427561   -0.471100    1.244704
     44          1           0       13.164263   -1.924406    1.997260
     45          1           0      -14.144482   -0.412641    1.722299
     46          1           0      -14.126603   -0.535609    0.092133
     47          1           0       12.617331   -2.955306   -0.241121
     48          1           0      -12.851151    1.548328    1.702890
     49          1           0       13.777260   -0.303134   -1.343068
     50          1           0       13.011335   -1.611488   -2.314477
     51          1           0      -13.374285    1.883999   -1.403822
     52          1           0      -12.469686    2.764857   -0.374567
     53          1           0       11.978835   -0.803716    3.427144
     54          1           0       10.143401   -0.065901    2.866707
     55          1           0       11.697379    0.713803    2.378949
     56          1           0       10.617673   -2.889296    0.289998
     57          1           0       11.042846   -2.994204    2.045435
     58          1           0        9.450408   -2.040225    1.404879
     59          1           0      -11.605039    0.120770    2.716668
     60          1           0      -10.659154   -1.153228    2.454090
     61          1           0      -12.200300   -1.265527    3.144971
     62          1           0      -13.313970   -2.843902    1.044902
     63          1           0      -11.764660   -3.220106    0.468710
     64          1           0      -12.789379   -2.415674   -0.704648
     65          1           0        8.918394   -0.391698    0.650713
     66          1           0      -10.207936   -2.138770   -0.393433
     67          1           0       10.099558    0.664013   -2.279704
     68          1           0       11.766617    1.277703   -2.574333
     69          1           0       11.236317   -0.346984   -3.303893
     70          1           0      -11.674615    1.591177   -2.668749
     71          1           0      -10.157817    0.619589   -2.289635
     72          1           0      -10.246373    2.100377   -1.564586
     73          1           0       14.956007   -2.763767    0.607018
     74          1           0      -15.091361    1.660191    1.590456
     75          1           0       10.223807    2.156468   -0.550161
     76          1           0       -8.887156    0.649142   -0.581887
     77          1           0        8.696058    4.296899   -0.143212
     78          1           0        7.115887    4.330501    0.566825
     79          1           0        8.418611    3.963965    1.464809
     80          1           0       -8.250030   -3.325005   -0.056223
     81          1           0       -8.260764   -3.094011   -1.614362
     82          1           0       -6.573891   -3.060267   -0.986114
     83          1           0        7.010003    0.565270   -0.351615
     84          1           0       -6.569849    0.385798   -0.323890
     85          1           0        5.397530    3.110829    0.518644
     86          1           0       -4.813978   -2.177340   -0.775631
     87          1           0        4.618392    0.234584   -0.300818
     88          1           0       -4.287539    0.768984   -0.212820
     89          1           0        3.217433    3.330616    1.578164
     90          1           0        1.730439    3.333116    0.281128
     91          1           0        3.374012    3.691664   -0.095023
     92          1           0       -2.855532   -2.903799   -0.017747
     93          1           0       -2.741542   -2.516624   -1.729376
     94          1           0       -1.261495   -2.293752   -0.929400
     95          1           0        2.573825   -0.089481   -0.693190
     96          1           0       -1.860479    1.131480   -0.141944
     97          1           0        0.233689    1.744635    0.374213
     98          1           0        0.095144   -1.044713   -0.894775
 ---------------------------------------------------------------------

 SCF Done:  E(RCAM-B3LYP) =  -1707.00296326     A.U. after   14 cycles

 Excitation energies and oscillator strengths:

 Excited State   1:      Singlet-A      2.4378 eV  508.59 nm  f=3.7371  <S**2>=0.000
     155 ->158         0.15355
     156 ->157         0.68806
 This state for optimization and/or second-order correction.
 Total Energy, E(TD-HF/TD-DFT) =  -1706.91337623
 Copying the excited state density for this state as the 1-particle RhoCI density.

 The electronic state is 1-A.
 Alpha  occ. eigenvalues --  -19.22381 -19.21126 -10.30924 -10.30061 -10.28448
 Alpha  occ. eigenvalues --  -10.28131 -10.27769 -10.27736 -10.27713 -10.27097
 Alpha  occ. eigenvalues --  -10.26954 -10.26893 -10.26865 -10.26854 -10.26746
 Alpha  occ. eigenvalues --  -10.26745 -10.26699 -10.26295 -10.26262 -10.26224
 Alpha  occ. eigenvalues --  -10.26217 -10.26138 -10.26023 -10.26017 -10.25984
 Alpha  occ. eigenvalues --  -10.25837 -10.25613 -10.25611 -10.25497 -10.25435
 Alpha  occ. eigenvalues --  -10.25382 -10.25320 -10.25227 -10.25189 -10.25148
 Alpha  occ. eigenvalues --  -10.24982 -10.24893 -10.24795 -10.24007 -10.23824
 Alpha  occ. eigenvalues --  -10.23568 -10.23255  -1.09182  -1.07919  -0.93880
 Alpha  occ. eigenvalues --   -0.93631  -0.92548  -0.91942  -0.90562  -0.89952
 Alpha  occ. eigenvalues --   -0.88005  -0.87630  -0.87044  -0.86254  -0.85410
 Alpha  occ. eigenvalues --   -0.83469  -0.82512  -0.80277  -0.80038  -0.78853
 Alpha  occ. eigenvalues --   -0.77207  -0.77010  -0.76970  -0.76663  -0.76581
 Alpha  occ. eigenvalues --   -0.75700  -0.75591  -0.75167  -0.74062  -0.70881
 Alpha  occ. eigenvalues --   -0.68642  -0.67660  -0.66222  -0.65092  -0.64324
 Alpha  occ. eigenvalues --   -0.63650  -0.62438  -0.61509  -0.61107  -0.60424
 Alpha  occ. eigenvalues --   -0.60111  -0.59136  -0.58015  -0.57904  -0.56425
 Alpha  occ. eigenvalues --   -0.55930  -0.55476  -0.55333  -0.54787  -0.54448
 Alpha  occ. eigenvalues --   -0.53599  -0.53184  -0.52466  -0.52110  -0.51353
 Alpha  occ. eigenvalues --   -0.50854  -0.50520  -0.49871  -0.49699  -0.49555
 Alpha  occ. eigenvalues --   -0.49274  -0.48864  -0.48554  -0.48079  -0.47817
 Alpha  occ. eigenvalues --   -0.47677  -0.47563  -0.47301  -0.46978  -0.46604
 Alpha  occ. eigenvalues --   -0.46268  -0.46184  -0.45699  -0.45655  -0.45501
 Alpha  occ. eigenvalues --   -0.45121  -0.44739  -0.44651  -0.44162  -0.43896
 Alpha  occ. eigenvalues --   -0.43715  -0.43667  -0.43340  -0.42863  -0.42222
 Alpha  occ. eigenvalues --   -0.41982  -0.41727  -0.41375  -0.41329  -0.41144
 Alpha  occ. eigenvalues --   -0.40721  -0.40448  -0.40135  -0.39578  -0.39511
 Alpha  occ. eigenvalues --   -0.39220  -0.38973  -0.38767  -0.38360  -0.38174
 Alpha  occ. eigenvalues --   -0.37562  -0.37548  -0.37374  -0.37077  -0.36144
 Alpha  occ. eigenvalues --   -0.35021  -0.34760  -0.33689  -0.32350  -0.31492
 Alpha  occ. eigenvalues --   -0.31049  -0.29482  -0.27643  -0.26271  -0.24054
 Alpha  occ. eigenvalues --   -0.20165
 Alpha virt. eigenvalues --   -0.05391  -0.00626   0.02638   0.05557   0.07891
 Alpha virt. eigenvalues --    0.08393   0.09905   0.11179   0.11465   0.12052
 Alpha virt. eigenvalues --    0.12441   0.12648   0.13226   0.13479   0.13817

 Mulliken charges:
               1
     1  O   -0.572816
     2  O   -0.564125
     3  C   -0.024831
     4  C    0.008305
     5  C   -0.204540
     6  C   -0.202741
     7  C    0.211120
     8  C    0.169888
     9  C    0.038425
    10  C    0.058984
    11  C   -0.218858
    12  C   -0.211102
    13  C    0.053675
    14  C    0.016196
    15  C   -0.296859
    16  C   -0.298289
    17  C   -0.329777
    18  C   -0.319872
    19  C   -0.082473
    20  C   -0.117956
    21  C   -0.360313
    22  C   -0.334160
    23  C   -0.126412
    24  C   -0.099955
    25  C    0.063898
    26  C    0.099208
    27  C   -0.378049
    28  C   -0.377098
    29  C   -0.106786
    30  C   -0.086018
    31  C   -0.073658
    32  C   -0.085051
    33  C   -0.114088
    34  C   -0.103834
    35  C    0.111725
    36  C    0.097431
    37  C   -0.359293
    38  C   -0.372263
    39  C   -0.116979
    40  C   -0.123005
    41  C   -0.095995
    42  C   -0.073309
    43  H    0.102874
    44  H    0.081409
    45  H    0.076799
    46  H    0.107091
    47  H    0.048092
    48  H    0.089504
    49  H    0.132049
    50  H    0.099334
    51  H    0.096129
    52  H    0.124076
    53  H    0.095492
    54  H    0.097823
    55  H    0.114578
    56  H    0.110213
    57  H    0.097087
    58  H    0.091580
    59  H    0.094343
    60  H    0.114901
    61  H    0.089177
    62  H    0.106823
    63  H    0.114083
    64  H    0.085052
    65  H    0.068167
    66  H    0.070907
    67  H    0.124856
    68  H    0.123242
    69  H    0.077669
    70  H    0.105459
    71  H    0.121067
    72  H    0.108825
    73  H    0.304870
    74  H    0.305192
    75  H    0.097608
    76  H    0.078517
    77  H    0.121727
    78  H    0.110539
    79  H    0.126332
    80  H    0.130322
    81  H    0.102487
    82  H    0.107876
    83  H    0.082791
    84  H    0.072590
    85  H    0.085536
    86  H    0.081450
    87  H    0.079245
    88  H    0.056436
    89  H    0.081216
    90  H    0.109514
    91  H    0.133079
    92  H    0.111928
    93  H    0.133429
    94  H    0.111802
    95  H    0.068443
    96  H    0.078206
    97  H    0.091510
    98  H    0.070298
 Sum of Mulliken charges =  -0.00000

 Dipole moment (field-independent basis, Debye):
    X=              0.9275    Y=             -0.8751    Z=              1.9830  Tot=              2.3577
 Quadrupole moment (field-independent basis, Debye-Ang):
   XX=           -256.6429   YY=           -249.4761   ZZ=           -260.7664
   XY=             25.9224   XZ=              7.1772   YZ=             -0.7310

 Normal termination of Gaussian 16 at Thu Jul 11 12:04:31 2019.
