 Gaussian 16, Revision A.03,
 Gaussian 16:  ES64L-G16RevA.03 25-Dec-2016

 -------------------------------------
 # td=(NStates=1) CAM-B3LYP/6-31G(d,p)
 -------------------------------------

 --
 TD
 --
 Symbolic Z-matrix:
 Charge =  0 Multiplicity = 1

                         Standard orientation:
 ---------------------------------------------------------------------
 Center     Atomic      Atomic             Coordinates (Angstroms)
 Number     Number       Type             X           Y           Z
 ---------------------------------------------------------------------
      1          8           0       14.827226   -2.208944   -0.309966
      2          8           0      -14.800748    2.018583    0.876746
      3          6           0       11.526614   -1.060328    1.216355
      4          6           0      -12.415280   -0.843547    0.798108
      5          6           0       13.035998   -1.408561    1.164005
      6          6           0      -13.704259   -0.167715    0.822337
      7          6           0       13.398132   -1.910192   -0.211424
      8          6           0      -13.527453    1.320390    0.898316
      9          6           0       11.042422   -0.261312   -0.045470
     10          6           0      -11.399943   -0.284439   -0.158192
     11          6           0       13.117809   -0.897632   -1.230671
     12          6           0      -12.788022    1.715957   -0.457199
     13          6           0       11.728815   -0.211222   -1.169276
     14          6           0      -11.692868    0.935183   -0.759576
     15          6           0       11.387073   -0.253928    2.596707
     16          6           0       10.840044   -2.340649    1.424942
     17          6           0      -11.679764   -0.962708    2.205672
     18          6           0      -12.687817   -2.380567    0.361640
     19          6           0        9.677935    0.398961    0.127183
     20          6           0      -10.234986   -1.076189   -0.531163
     21          6           0       11.195131    0.517335   -2.347590
     22          6           0      -10.673519    1.502540   -1.750351
     23          6           0        9.287908    1.606378   -0.166583
     24          6           0       -8.973831   -0.532286   -0.287975
     25          6           0        8.012548    2.219382    0.182634
     26          6           0       -7.659967   -1.334818   -0.527306
     27          6           0        8.120422    3.714709    0.608644
     28          6           0       -7.623250   -2.685547   -0.809419
     29          6           0        6.946100    1.549580   -0.013999
     30          6           0       -6.453200   -0.730802   -0.293047
     31          6           0        5.528030    2.042879    0.164433
     32          6           0       -5.110538   -1.101503   -0.450077
     33          6           0        4.470372    1.206279   -0.099915
     34          6           0       -3.973093   -0.474520   -0.328061
     35          6           0        3.010081    1.683295   -0.071748
     36          6           0       -2.624570   -0.814145   -0.513344
     37          6           0        2.709037    3.082150    0.320721
     38          6           0       -2.412249   -2.125422   -1.148116
     39          6           0        2.150501    0.721536   -0.292379
     40          6           0       -1.614375    0.097971   -0.344816
     41          6           0        0.661374    0.822734   -0.128852
     42          6           0       -0.261330   -0.080749   -0.287552
     43          1           0       13.710499   -0.695432    1.488347
     44          1           0       13.236809   -2.240199    1.861343
     45          1           0      -14.329765   -0.492700    1.798808
     46          1           0      -14.118695   -0.405524   -0.026104
     47          1           0       12.886518   -2.822681   -0.650381
     48          1           0      -13.018550    1.648335    1.743525
     49          1           0       13.906215   -0.162796   -0.838707
     50          1           0       13.272869   -1.252453   -2.180007
     51          1           0      -13.498258    1.548838   -1.030090
     52          1           0      -12.429332    2.774514   -0.271289
     53          1           0       11.826961   -0.675960    3.454750
     54          1           0       10.137885   -0.241915    2.659925
     55          1           0       11.753800    0.728212    2.447508
     56          1           0       11.003679   -2.989061    0.464967
     57          1           0       11.077101   -2.879805    2.521029
     58          1           0        9.695267   -2.112202    1.414290
     59          1           0      -11.559571   -0.101576    2.729549
     60          1           0      -10.900440   -1.692058    2.210577
     61          1           0      -12.514342   -1.458662    2.803922
     62          1           0      -13.445098   -2.952496    0.862904
     63          1           0      -11.841007   -3.117232    0.403529
     64          1           0      -13.165543   -2.439568   -0.663484
     65          1           0        8.826325   -0.044402    0.675404
     66          1           0      -10.427926   -2.107337   -0.758443
     67          1           0       10.157695    0.835111   -2.380197
     68          1           0       11.724154    1.447892   -2.470815
     69          1           0       11.589668   -0.099196   -3.196956
     70          1           0      -10.957333    2.131499   -2.649176
     71          1           0       -9.941364    0.903133   -2.143087
     72          1           0      -10.315141    2.314818   -1.243364
     73          1           0       14.802445   -2.910091    0.247849
     74          1           0      -15.264683    1.882824    1.803038
     75          1           0        9.972423    2.221306   -0.601702
     76          1           0       -8.692724    0.402014    0.007578
     77          1           0        8.280907    4.333533   -0.467312
     78          1           0        6.980831    4.020055    1.002196
     79          1           0        8.963747    3.737918    1.380998
     80          1           0       -8.117509   -3.408643   -0.017653
     81          1           0       -8.230784   -3.004751   -1.802966
     82          1           0       -6.693833   -3.311245   -0.954874
     83          1           0        7.082403    0.552395   -0.522208
     84          1           0       -6.444991    0.380783    0.081696
     85          1           0        5.302076    3.039772    0.372551
     86          1           0       -5.058617   -2.171001   -0.606513
     87          1           0        4.823270    0.410560   -0.572872
     88          1           0       -3.960735    0.727111    0.047065
     89          1           0        3.361847    3.301963    1.183139
     90          1           0        1.694556    3.086629    0.688338
     91          1           0        2.839136    3.690706   -0.596974
     92          1           0       -3.156179   -2.868622   -0.561278
     93          1           0       -2.647812   -1.930004   -2.286038
     94          1           0       -1.403171   -2.536077   -1.319834
     95          1           0        2.460825   -0.412059   -0.519898
     96          1           0       -1.911464    1.180693   -0.077438
     97          1           0        0.194863    1.741789    0.342046
     98          1           0        0.252062   -1.174621   -0.627004
 ---------------------------------------------------------------------

 SCF Done:  E(RCAM-B3LYP) =  -1706.90440713     A.U. after   14 cycles

 Excitation energies and oscillator strengths:

 Excited State   1:      Singlet-A      2.9907 eV  414.57 nm  f=3.4071  <S**2>=0.000
     155 ->158         0.14938
     156 ->157         0.68429
 This state for optimization and/or second-order correction.
 Total Energy, E(TD-HF/TD-DFT) =  -1706.79450156
 Copying the excited state density for this state as the 1-particle RhoCI density.

 The electronic state is 1-A.
 Alpha  occ. eigenvalues --  -19.21473 -19.20474 -10.30209 -10.29866 -10.29382
 Alpha  occ. eigenvalues --  -10.27643 -10.27550 -10.27477 -10.27437 -10.27162
 Alpha  occ. eigenvalues --  -10.27009 -10.26924 -10.26895 -10.26832 -10.26823
 Alpha  occ. eigenvalues --  -10.26787 -10.26760 -10.26551 -10.26474 -10.26409
 Alpha  occ. eigenvalues --  -10.26379 -10.26357 -10.26304 -10.26097 -10.26031
 Alpha  occ. eigenvalues --  -10.26023 -10.25886 -10.25623 -10.25459 -10.25452
 Alpha  occ. eigenvalues --  -10.25433 -10.25273 -10.25238 -10.25209 -10.25052
 Alpha  occ. eigenvalues --  -10.24959 -10.24636 -10.24481 -10.24247 -10.23830
 Alpha  occ. eigenvalues --  -10.23552 -10.23132  -1.10648  -1.07195  -0.94605
 Alpha  occ. eigenvalues --   -0.93947  -0.92830  -0.91990  -0.91241  -0.90521
 Alpha  occ. eigenvalues --   -0.87944  -0.87714  -0.87593  -0.86004  -0.85595
 Alpha  occ. eigenvalues --   -0.83737  -0.82801  -0.80617  -0.80006  -0.78371
 Alpha  occ. eigenvalues --   -0.77171  -0.76890  -0.76265  -0.75711  -0.75657
 Alpha  occ. eigenvalues --   -0.75634  -0.75210  -0.74916  -0.74387  -0.70865
 Alpha  occ. eigenvalues --   -0.68741  -0.67816  -0.66146  -0.65012  -0.64267
 Alpha  occ. eigenvalues --   -0.63829  -0.63140  -0.61799  -0.60180  -0.60078
 Alpha  occ. eigenvalues --   -0.59506  -0.59440  -0.58824  -0.57751  -0.55944
 Alpha  occ. eigenvalues --   -0.55421  -0.55077  -0.54905  -0.54539  -0.53745
 Alpha  occ. eigenvalues --   -0.53329  -0.53135  -0.52494  -0.52284  -0.51742
 Alpha  occ. eigenvalues --   -0.51156  -0.50702  -0.50616  -0.50236  -0.49722
 Alpha  occ. eigenvalues --   -0.49263  -0.48971  -0.48783  -0.48552  -0.48048
 Alpha  occ. eigenvalues --   -0.47915  -0.47380  -0.47099  -0.46972  -0.46645
 Alpha  occ. eigenvalues --   -0.46370  -0.46235  -0.45658  -0.45406  -0.45248
 Alpha  occ. eigenvalues --   -0.44826  -0.44370  -0.43867  -0.43335  -0.43236
 Alpha  occ. eigenvalues --   -0.43176  -0.42744  -0.42566  -0.42387  -0.42286
 Alpha  occ. eigenvalues --   -0.41881  -0.41490  -0.40842  -0.40739  -0.40549
 Alpha  occ. eigenvalues --   -0.40278  -0.40119  -0.39747  -0.39638  -0.39193
 Alpha  occ. eigenvalues --   -0.38970  -0.38702  -0.38579  -0.37612  -0.37507
 Alpha  occ. eigenvalues --   -0.37390  -0.37090  -0.36794  -0.36048  -0.35741
 Alpha  occ. eigenvalues --   -0.35316  -0.34934  -0.33743  -0.32829  -0.31984
 Alpha  occ. eigenvalues --   -0.31842  -0.29786  -0.28323  -0.26293  -0.24722
 Alpha  occ. eigenvalues --   -0.21462
 Alpha virt. eigenvalues --   -0.03822   0.00833   0.03502   0.05928   0.07847
 Alpha virt. eigenvalues --    0.09825   0.10668   0.10931   0.11071   0.11853
 Alpha virt. eigenvalues --    0.11993   0.12579   0.12784   0.13093   0.13303

 Mulliken charges:
               1
     1  O   -0.541611
     2  O   -0.577183
     3  C   -0.022161
     4  C   -0.026440
     5  C   -0.178764
     6  C   -0.152831
     7  C    0.109878
     8  C    0.139285
     9  C    0.050257
    10  C    0.071188
    11  C   -0.193225
    12  C   -0.210253
    13  C    0.058760
    14  C    0.065083
    15  C   -0.290834
    16  C   -0.270964
    17  C   -0.297788
    18  C   -0.342210
    19  C   -0.115784
    20  C   -0.150559
    21  C   -0.369157
    22  C   -0.369285
    23  C   -0.103984
    24  C   -0.052367
    25  C    0.083337
    26  C    0.152946
    27  C   -0.336468
    28  C   -0.410539
    29  C   -0.133868
    30  C   -0.148844
    31  C   -0.103978
    32  C   -0.073907
    33  C   -0.089171
    34  C   -0.089160
    35  C    0.086893
    36  C    0.141933
    37  C   -0.363668
    38  C   -0.361784
    39  C   -0.115888
    40  C   -0.150320
    41  C   -0.101313
    42  C   -0.046816
    43  H    0.111459
    44  H    0.079765
    45  H    0.063533
    46  H    0.107335
    47  H    0.079625
    48  H    0.086962
    49  H    0.114056
    50  H    0.105921
    51  H    0.131088
    52  H    0.104272
    53  H    0.109722
    54  H    0.069032
    55  H    0.109887
    56  H    0.090843
    57  H    0.084326
    58  H    0.089296
    59  H    0.107902
    60  H    0.117703
    61  H    0.077507
    62  H    0.105277
    63  H    0.098437
    64  H    0.094292
    65  H    0.080306
    66  H    0.105618
    67  H    0.131290
    68  H    0.123977
    69  H    0.097615
    70  H    0.089477
    71  H    0.128984
    72  H    0.118613
    73  H    0.295397
    74  H    0.305222
    75  H    0.074126
    76  H    0.092494
    77  H    0.105274
    78  H    0.094594
    79  H    0.127173
    80  H    0.105579
    81  H    0.091643
    82  H    0.122644
    83  H    0.088877
    84  H    0.055717
    85  H    0.077912
    86  H    0.064205
    87  H    0.078567
    88  H    0.047900
    89  H    0.124067
    90  H    0.120143
    91  H    0.134494
    92  H    0.099776
    93  H    0.119913
    94  H    0.114672
    95  H    0.081666
    96  H    0.074724
    97  H    0.070888
    98  H    0.049778
 Sum of Mulliken charges =  -0.00000

 Dipole moment (field-independent basis, Debye):
    X=             -0.4086    Y=             -0.7707    Z=              1.5930  Tot=              1.8162
 Quadrupole moment (field-independent basis, Debye-Ang):
   XX=           -279.2590   YY=           -245.7147   ZZ=           -257.6946
   XY=             14.1128   XZ=             -9.8493   YZ=              2.1098

 Normal termination of Gaussian 16 at Sat Jun 29 01:07:40 2019.
