 Gaussian 16, Revision A.03,
 Gaussian 16:  ES64L-G16RevA.03 25-Dec-2016

 -------------------------------------
 # td=(NStates=1) CAM-B3LYP/6-31G(d,p)
 -------------------------------------

 --
 TD
 --
 Symbolic Z-matrix:
 Charge =  0 Multiplicity = 1

                         Standard orientation:
 ---------------------------------------------------------------------
 Center     Atomic      Atomic             Coordinates (Angstroms)
 Number     Number       Type             X           Y           Z
 ---------------------------------------------------------------------
      1          8           0       14.546678   -2.340833   -0.507113
      2          8           0      -14.756038    1.949779    0.844156
      3          6           0       11.451756   -1.134042    1.206178
      4          6           0      -12.289175   -0.945659    0.731433
      5          6           0       12.966042   -1.500433    1.017080
      6          6           0      -13.624269   -0.241398    0.764522
      7          6           0       13.227642   -1.985575   -0.317708
      8          6           0      -13.509081    1.233974    0.847012
      9          6           0       11.014574   -0.158230    0.093644
     10          6           0      -11.333239   -0.219873   -0.188561
     11          6           0       12.952932   -0.894323   -1.327030
     12          6           0      -12.838068    1.784276   -0.331434
     13          6           0       11.712358   -0.040684   -1.076497
     14          6           0      -11.558658    0.975953   -0.835473
     15          6           0       11.270574   -0.283154    2.502058
     16          6           0       10.630415   -2.372251    1.365223
     17          6           0      -11.693164   -1.069056    2.155258
     18          6           0      -12.588919   -2.392514    0.248948
     19          6           0        9.711931    0.459349    0.160861
     20          6           0      -10.053114   -0.979107   -0.520148
     21          6           0       11.238510    0.658596   -2.338073
     22          6           0      -10.803236    1.749822   -1.784272
     23          6           0        9.366620    1.711816   -0.108339
     24          6           0       -8.799340   -0.537772   -0.316574
     25          6           0        8.004967    2.326929    0.061383
     26          6           0       -7.648681   -1.299517   -0.527411
     27          6           0        8.018132    3.774697    0.350071
     28          6           0       -7.587621   -2.709430   -0.964017
     29          6           0        6.896283    1.508611   -0.042875
     30          6           0       -6.474484   -0.544658   -0.423436
     31          6           0        5.552184    1.975627    0.233004
     32          6           0       -5.092700   -1.087500   -0.479770
     33          6           0        4.457157    1.212559    0.020524
     34          6           0       -4.011230   -0.362664   -0.404312
     35          6           0        3.112577    1.581368    0.127342
     36          6           0       -2.570229   -0.817658   -0.380708
     37          6           0        2.760173    2.952649    0.581425
     38          6           0       -2.309082   -2.363332   -0.725943
     39          6           0        2.142802    0.650894   -0.124601
     40          6           0       -1.572703    0.018470   -0.231050
     41          6           0        0.722031    0.782487    0.060030
     42          6           0       -0.213927   -0.078978   -0.187769
     43          1           0       13.513855   -0.402964    1.301834
     44          1           0       13.228633   -2.136131    1.813568
     45          1           0      -14.141002   -0.558813    1.693770
     46          1           0      -14.381461   -0.572031   -0.025043
     47          1           0       12.738502   -2.943899   -0.590854
     48          1           0      -12.879593    1.565853    1.661327
     49          1           0       13.751264   -0.091805   -1.366819
     50          1           0       12.822942   -1.377810   -2.220732
     51          1           0      -13.594642    1.631335   -1.076474
     52          1           0      -12.436378    2.856473   -0.250927
     53          1           0       11.466430   -0.898688    3.505564
     54          1           0       10.270271    0.085576    2.532349
     55          1           0       11.953871    0.592366    2.632272
     56          1           0       10.666999   -3.108362    0.502451
     57          1           0       10.810058   -2.972607    2.280946
     58          1           0        9.551474   -2.190099    1.366228
     59          1           0      -11.469715   -0.005644    2.642022
     60          1           0      -10.678138   -1.752911    1.981594
     61          1           0      -12.414601   -1.507197    2.699289
     62          1           0      -13.408568   -2.937987    0.832199
     63          1           0      -11.693031   -2.996763    0.235164
     64          1           0      -12.926564   -2.325930   -0.779341
     65          1           0        8.832529   -0.031793    0.401171
     66          1           0      -10.305588   -2.033673   -0.803362
     67          1           0       10.231723    1.224256   -2.100730
     68          1           0       11.608777    1.392011   -2.632966
     69          1           0       11.130055    0.003883   -3.055598
     70          1           0      -11.330828    2.061370   -2.562612
     71          1           0       -9.917800    1.055980   -2.257811
     72          1           0      -10.233593    2.524668   -1.313397
     73          1           0       15.034612   -3.121928    0.122872
     74          1           0      -15.306775    1.808995    1.625714
     75          1           0       10.039592    2.482127   -0.461786
     76          1           0       -8.690477    0.539724   -0.043370
     77          1           0        8.466819    4.236889   -0.635584
     78          1           0        7.028017    4.099241    0.677831
     79          1           0        8.949083    4.050282    1.197526
     80          1           0       -7.869668   -3.352739   -0.195974
     81          1           0       -8.169941   -2.644374   -1.925688
     82          1           0       -6.601746   -3.199259   -1.174504
     83          1           0        6.956307    0.430663   -0.483225
     84          1           0       -6.569880    0.459068    0.029653
     85          1           0        5.409939    2.941772    0.614473
     86          1           0       -4.926364   -2.165168   -0.755193
     87          1           0        4.719583    0.177483   -0.226508
     88          1           0       -4.036235    0.734939   -0.128852
     89          1           0        3.280216    3.336951    1.541767
     90          1           0        1.655249    3.372846    0.623620
     91          1           0        3.123979    3.861801   -0.225221
     92          1           0       -2.803526   -2.984156   -0.199349
     93          1           0       -2.653293   -2.650211   -1.919559
     94          1           0       -1.223787   -2.801015   -0.637852
     95          1           0        2.478686   -0.297743   -0.433145
     96          1           0       -1.877997    1.033168    0.083257
     97          1           0        0.253748    1.673082    0.270958
     98          1           0        0.410427   -1.084284   -0.423269
 ---------------------------------------------------------------------

 SCF Done:  E(RCAM-B3LYP) =  -1706.95230817     A.U. after   14 cycles

 Excitation energies and oscillator strengths:

 Excited State   1:      Singlet-A      2.9025 eV  427.17 nm  f=3.7502  <S**2>=0.000
     155 ->158        -0.18273
     156 ->157         0.67558
 This state for optimization and/or second-order correction.
 Total Energy, E(TD-HF/TD-DFT) =  -1706.84564425
 Copying the excited state density for this state as the 1-particle RhoCI density.

 The electronic state is 1-A.
 Alpha  occ. eigenvalues --  -19.20580 -19.20532 -10.29650 -10.29238 -10.28414
 Alpha  occ. eigenvalues --  -10.28136 -10.27969 -10.27531 -10.27415 -10.27391
 Alpha  occ. eigenvalues --  -10.27244 -10.27055 -10.26959 -10.26471 -10.26418
 Alpha  occ. eigenvalues --  -10.26324 -10.26323 -10.26298 -10.26129 -10.25886
 Alpha  occ. eigenvalues --  -10.25839 -10.25814 -10.25812 -10.25795 -10.25776
 Alpha  occ. eigenvalues --  -10.25725 -10.25537 -10.25453 -10.25342 -10.25210
 Alpha  occ. eigenvalues --  -10.25196 -10.25192 -10.25118 -10.25094 -10.24969
 Alpha  occ. eigenvalues --  -10.24840 -10.24822 -10.24563 -10.24536 -10.24458
 Alpha  occ. eigenvalues --  -10.24186 -10.21972  -1.08428  -1.07883  -0.93581
 Alpha  occ. eigenvalues --   -0.93514  -0.92455  -0.91619  -0.91014  -0.89965
 Alpha  occ. eigenvalues --   -0.87801  -0.87187  -0.87109  -0.85564  -0.84809
 Alpha  occ. eigenvalues --   -0.83637  -0.82182  -0.80952  -0.80683  -0.77723
 Alpha  occ. eigenvalues --   -0.77499  -0.77136  -0.76007  -0.75878  -0.75608
 Alpha  occ. eigenvalues --   -0.75250  -0.75130  -0.74942  -0.74297  -0.70280
 Alpha  occ. eigenvalues --   -0.68810  -0.67382  -0.65609  -0.64741  -0.64167
 Alpha  occ. eigenvalues --   -0.64094  -0.63039  -0.61322  -0.60573  -0.59889
 Alpha  occ. eigenvalues --   -0.59773  -0.58862  -0.58009  -0.57697  -0.56319
 Alpha  occ. eigenvalues --   -0.55676  -0.55621  -0.55522  -0.54787  -0.53867
 Alpha  occ. eigenvalues --   -0.53118  -0.52876  -0.52042  -0.51822  -0.51616
 Alpha  occ. eigenvalues --   -0.51061  -0.50657  -0.50290  -0.50118  -0.50045
 Alpha  occ. eigenvalues --   -0.49571  -0.48656  -0.48044  -0.47864  -0.47619
 Alpha  occ. eigenvalues --   -0.47246  -0.47080  -0.46780  -0.46536  -0.46307
 Alpha  occ. eigenvalues --   -0.46187  -0.45930  -0.45548  -0.45243  -0.44886
 Alpha  occ. eigenvalues --   -0.44553  -0.44092  -0.44008  -0.43828  -0.43043
 Alpha  occ. eigenvalues --   -0.42743  -0.42547  -0.42319  -0.41790  -0.41693
 Alpha  occ. eigenvalues --   -0.41467  -0.41212  -0.40790  -0.40346  -0.40287
 Alpha  occ. eigenvalues --   -0.39973  -0.39843  -0.39695  -0.39373  -0.39354
 Alpha  occ. eigenvalues --   -0.38830  -0.38509  -0.38248  -0.37965  -0.37846
 Alpha  occ. eigenvalues --   -0.37612  -0.36401  -0.36274  -0.36075  -0.35373
 Alpha  occ. eigenvalues --   -0.34602  -0.34467  -0.33802  -0.32668  -0.32325
 Alpha  occ. eigenvalues --   -0.31189  -0.29400  -0.28136  -0.26582  -0.23808
 Alpha  occ. eigenvalues --   -0.20964
 Alpha virt. eigenvalues --   -0.03694   0.00061   0.03365   0.06551   0.08119
 Alpha virt. eigenvalues --    0.09138   0.09738   0.10997   0.12018   0.12427
 Alpha virt. eigenvalues --    0.12894   0.13110   0.13337   0.13553   0.13768

 Mulliken charges:
               1
     1  O   -0.596322
     2  O   -0.572206
     3  C   -0.012106
     4  C   -0.023945
     5  C   -0.176923
     6  C   -0.187337
     7  C    0.222894
     8  C    0.169111
     9  C    0.075218
    10  C    0.044768
    11  C   -0.204892
    12  C   -0.203498
    13  C    0.005285
    14  C    0.054079
    15  C   -0.303571
    16  C   -0.311687
    17  C   -0.267900
    18  C   -0.312466
    19  C   -0.099944
    20  C   -0.177182
    21  C   -0.320957
    22  C   -0.365290
    23  C   -0.108711
    24  C   -0.073668
    25  C    0.081006
    26  C    0.127145
    27  C   -0.348368
    28  C   -0.367594
    29  C   -0.129160
    30  C   -0.148048
    31  C   -0.073885
    32  C   -0.089323
    33  C   -0.132903
    34  C   -0.098032
    35  C    0.183878
    36  C    0.116153
    37  C   -0.387567
    38  C   -0.356535
    39  C   -0.149662
    40  C   -0.148232
    41  C   -0.058764
    42  C   -0.042559
    43  H    0.070781
    44  H    0.082286
    45  H    0.074511
    46  H    0.097303
    47  H    0.076022
    48  H    0.079572
    49  H    0.122627
    50  H    0.112242
    51  H    0.116916
    52  H    0.094396
    53  H    0.069739
    54  H    0.117270
    55  H    0.100831
    56  H    0.094436
    57  H    0.105489
    58  H    0.105308
    59  H    0.086650
    60  H    0.087940
    61  H    0.110792
    62  H    0.096720
    63  H    0.101928
    64  H    0.111247
    65  H    0.084358
    66  H    0.084271
    67  H    0.087258
    68  H    0.118535
    69  H    0.118090
    70  H    0.130582
    71  H    0.089699
    72  H    0.125952
    73  H    0.303982
    74  H    0.299456
    75  H    0.068460
    76  H    0.091373
    77  H    0.120461
    78  H    0.121590
    79  H    0.091598
    80  H    0.131001
    81  H    0.124655
    82  H    0.111501
    83  H    0.088158
    84  H    0.082368
    85  H    0.072759
    86  H    0.080820
    87  H    0.075193
    88  H    0.072667
    89  H    0.116335
    90  H    0.114996
    91  H    0.079657
    92  H    0.133105
    93  H    0.077878
    94  H    0.102796
    95  H    0.079390
    96  H    0.071415
    97  H    0.058107
    98  H    0.046230
 Sum of Mulliken charges =  -0.00000

 Dipole moment (field-independent basis, Debye):
    X=              0.0068    Y=             -1.6825    Z=              1.7232  Tot=              2.4084
 Quadrupole moment (field-independent basis, Debye-Ang):
   XX=           -249.5239   YY=           -240.4736   ZZ=           -260.9726
   XY=              7.2478   XZ=             -6.9902   YZ=              0.5270

 Normal termination of Gaussian 16 at Mon Jul  1 22:07:54 2019.
