 Gaussian 16, Revision A.03,
 Gaussian 16:  ES64L-G16RevA.03 25-Dec-2016

 -------------------------------------
 # td=(NStates=1) CAM-B3LYP/6-31G(d,p)
 -------------------------------------

 --
 TD
 --
 Symbolic Z-matrix:
 Charge =  0 Multiplicity = 1

                         Standard orientation:
 ---------------------------------------------------------------------
 Center     Atomic      Atomic             Coordinates (Angstroms)
 Number     Number       Type             X           Y           Z
 ---------------------------------------------------------------------
      1          8           0       14.723867   -2.262437   -0.315235
      2          8           0      -14.925296    1.852339    0.675036
      3          6           0       11.473545   -1.144239    1.153036
      4          6           0      -12.258696   -0.896260    0.797732
      5          6           0       12.909187   -1.485734    1.088471
      6          6           0      -13.641563   -0.271331    0.880375
      7          6           0       13.301476   -1.954336   -0.347050
      8          6           0      -13.614604    1.240720    0.699996
      9          6           0       11.036936   -0.224573   -0.050410
     10          6           0      -11.386284   -0.294110   -0.288780
     11          6           0       13.138826   -0.787436   -1.299539
     12          6           0      -12.822951    1.751768   -0.489484
     13          6           0       11.750862   -0.172691   -1.201395
     14          6           0      -11.585094    0.879724   -0.770627
     15          6           0       11.240853   -0.345120    2.439450
     16          6           0       10.570060   -2.416003    1.272353
     17          6           0      -11.660633   -1.022964    2.071289
     18          6           0      -12.640045   -2.390036    0.254218
     19          6           0        9.722631    0.347107    0.031718
     20          6           0      -10.037531   -1.033049   -0.399659
     21          6           0       11.285485    0.623415   -2.486380
     22          6           0      -10.738574    1.597217   -1.777611
     23          6           0        9.383271    1.578964   -0.143458
     24          6           0       -8.860672   -0.522512   -0.324222
     25          6           0        8.032210    2.230933    0.147768
     26          6           0       -7.600986   -1.250343   -0.539655
     27          6           0        8.147915    3.686485    0.504631
     28          6           0       -7.638140   -2.621912   -1.007841
     29          6           0        6.859295    1.612961    0.026628
     30          6           0       -6.440283   -0.473099   -0.362079
     31          6           0        5.532307    2.043721    0.294421
     32          6           0       -5.010852   -1.046306   -0.441628
     33          6           0        4.450540    1.201523    0.221561
     34          6           0       -3.957745   -0.249725   -0.357010
     35          6           0        3.105140    1.667393    0.154716
     36          6           0       -2.573222   -0.853824   -0.366189
     37          6           0        2.843997    3.097391    0.517615
     38          6           0       -2.342072   -2.221087   -0.901408
     39          6           0        2.076561    0.764275   -0.025797
     40          6           0       -1.684890    0.096610   -0.085718
     41          6           0        0.649718    0.893158    0.073385
     42          6           0       -0.244676   -0.150562   -0.126485
     43          1           0       13.541037   -0.652768    1.319229
     44          1           0       13.283301   -2.093286    1.906777
     45          1           0      -13.996649   -0.483877    2.045319
     46          1           0      -14.223165   -0.598033    0.048618
     47          1           0       12.591665   -2.738997   -0.898001
     48          1           0      -13.092843    1.824428    1.566643
     49          1           0       13.796351   -0.021297   -1.234454
     50          1           0       13.293260   -1.119561   -2.338922
     51          1           0      -13.706493    1.760498   -1.266213
     52          1           0      -12.622279    2.805117   -0.228681
     53          1           0       11.587527   -1.193215    3.374699
     54          1           0       10.196184    0.072288    2.633453
     55          1           0       11.826625    0.617115    2.476231
     56          1           0       10.663703   -3.208218    0.400554
     57          1           0       10.909443   -3.076379    2.111016
     58          1           0        9.447382   -2.235688    1.210985
     59          1           0      -11.615150    0.038093    2.626523
     60          1           0      -10.672234   -1.544963    2.269552
     61          1           0      -12.260173   -1.606671    2.714384
     62          1           0      -13.388321   -2.776784    0.971765
     63          1           0      -11.736715   -3.142126    0.543660
     64          1           0      -12.817140   -2.617152   -0.694341
     65          1           0        8.958845   -0.460634    0.362117
     66          1           0      -10.247546   -2.150519   -0.435710
     67          1           0       10.287508    0.999509   -2.568110
     68          1           0       11.841267    1.410161   -2.694442
     69          1           0       11.365492   -0.007847   -3.111658
     70          1           0      -11.296692    1.649615   -2.776661
     71          1           0      -10.087652    0.732289   -1.888261
     72          1           0      -10.182460    2.531432   -1.504964
     73          1           0       14.595927   -3.096257    0.202839
     74          1           0      -15.586236    1.647063    1.453032
     75          1           0       10.095698    2.372355   -0.539638
     76          1           0       -8.856601    0.459225    0.020061
     77          1           0        8.493758    4.165936   -0.362190
     78          1           0        7.133541    4.122588    0.541817
     79          1           0        8.792374    3.811171    1.632739
     80          1           0       -8.123967   -3.441532   -0.120325
     81          1           0       -8.456886   -2.555992   -1.912919
     82          1           0       -6.778401   -2.939800   -1.397220
     83          1           0        6.988172    0.432580   -0.221535
     84          1           0       -6.574886    0.628314    0.070353
     85          1           0        5.256947    3.158717    0.265091
     86          1           0       -4.933596   -2.023686   -0.733377
     87          1           0        4.743915    0.076379    0.045045
     88          1           0       -4.120617    0.746016   -0.022915
     89          1           0        3.525773    3.211185    1.320672
     90          1           0        1.886517    3.321740    0.688821
     91          1           0        3.465207    3.804450   -0.188650
     92          1           0       -2.797016   -2.934671   -0.222175
     93          1           0       -2.967874   -2.322188   -1.999012
     94          1           0       -1.267093   -2.483719   -1.147155
     95          1           0        2.500588   -0.117916   -0.507528
     96          1           0       -1.930354    1.080268    0.242943
     97          1           0        0.103050    1.599421    0.485827
     98          1           0        0.151616   -1.070070   -0.435728
 ---------------------------------------------------------------------

 SCF Done:  E(RCAM-B3LYP) =  -1706.90554639     A.U. after   13 cycles

 Excitation energies and oscillator strengths:

 Excited State   1:      Singlet-A      2.9213 eV  424.41 nm  f=3.4190  <S**2>=0.000
     155 ->158        -0.15554
     156 ->157         0.68498
 This state for optimization and/or second-order correction.
 Total Energy, E(TD-HF/TD-DFT) =  -1706.79818948
 Copying the excited state density for this state as the 1-particle RhoCI density.

 The electronic state is 1-A.
 Alpha  occ. eigenvalues --  -19.21943 -19.20415 -10.31776 -10.29868 -10.28210
 Alpha  occ. eigenvalues --  -10.27948 -10.27882 -10.27440 -10.27370 -10.27367
 Alpha  occ. eigenvalues --  -10.27278 -10.27082 -10.26961 -10.26892 -10.26857
 Alpha  occ. eigenvalues --  -10.26836 -10.26792 -10.26710 -10.26523 -10.26221
 Alpha  occ. eigenvalues --  -10.26090 -10.26089 -10.25963 -10.25880 -10.25827
 Alpha  occ. eigenvalues --  -10.25817 -10.25807 -10.25732 -10.25602 -10.25590
 Alpha  occ. eigenvalues --  -10.25458 -10.25397 -10.25364 -10.25133 -10.24965
 Alpha  occ. eigenvalues --  -10.24963 -10.24961 -10.24791 -10.24617 -10.24392
 Alpha  occ. eigenvalues --  -10.24230 -10.21836  -1.09135  -1.06105  -0.94326
 Alpha  occ. eigenvalues --   -0.93688  -0.92264  -0.91667  -0.90600  -0.89987
 Alpha  occ. eigenvalues --   -0.87795  -0.87418  -0.87086  -0.85743  -0.84617
 Alpha  occ. eigenvalues --   -0.83073  -0.81996  -0.80831  -0.80262  -0.78495
 Alpha  occ. eigenvalues --   -0.77563  -0.76782  -0.76425  -0.75982  -0.75805
 Alpha  occ. eigenvalues --   -0.75314  -0.75074  -0.74511  -0.74159  -0.69905
 Alpha  occ. eigenvalues --   -0.68235  -0.66846  -0.65426  -0.64683  -0.64144
 Alpha  occ. eigenvalues --   -0.63656  -0.63374  -0.61710  -0.61166  -0.59905
 Alpha  occ. eigenvalues --   -0.59071  -0.58516  -0.57638  -0.57026  -0.55952
 Alpha  occ. eigenvalues --   -0.55724  -0.55329  -0.54891  -0.53917  -0.53407
 Alpha  occ. eigenvalues --   -0.52715  -0.52152  -0.52120  -0.51607  -0.51380
 Alpha  occ. eigenvalues --   -0.50811  -0.50348  -0.49808  -0.49525  -0.49451
 Alpha  occ. eigenvalues --   -0.49248  -0.49002  -0.48583  -0.48310  -0.48149
 Alpha  occ. eigenvalues --   -0.47756  -0.47093  -0.46921  -0.46681  -0.46559
 Alpha  occ. eigenvalues --   -0.46335  -0.45931  -0.45748  -0.45706  -0.45369
 Alpha  occ. eigenvalues --   -0.44680  -0.44429  -0.43745  -0.43464  -0.43320
 Alpha  occ. eigenvalues --   -0.42696  -0.42498  -0.42382  -0.42316  -0.41905
 Alpha  occ. eigenvalues --   -0.41576  -0.41362  -0.41070  -0.40762  -0.40586
 Alpha  occ. eigenvalues --   -0.40454  -0.39648  -0.39569  -0.39311  -0.39288
 Alpha  occ. eigenvalues --   -0.39034  -0.38875  -0.38433  -0.38048  -0.37721
 Alpha  occ. eigenvalues --   -0.37417  -0.37292  -0.37062  -0.36207  -0.35468
 Alpha  occ. eigenvalues --   -0.34939  -0.34354  -0.33036  -0.32439  -0.31844
 Alpha  occ. eigenvalues --   -0.30630  -0.29923  -0.28830  -0.26974  -0.24612
 Alpha  occ. eigenvalues --   -0.21080
 Alpha virt. eigenvalues --   -0.03697   0.00426   0.03539   0.06417   0.07970
 Alpha virt. eigenvalues --    0.09509   0.10868   0.11256   0.11718   0.12077
 Alpha virt. eigenvalues --    0.12295   0.12373   0.12560   0.12750   0.13210

 Mulliken charges:
               1
     1  O   -0.546564
     2  O   -0.597516
     3  C    0.004587
     4  C    0.010850
     5  C   -0.187870
     6  C   -0.177587
     7  C    0.128903
     8  C    0.179897
     9  C    0.045405
    10  C    0.101438
    11  C   -0.206978
    12  C   -0.217314
    13  C   -0.004738
    14  C    0.004576
    15  C   -0.278818
    16  C   -0.300220
    17  C   -0.306499
    18  C   -0.320804
    19  C   -0.106172
    20  C   -0.157418
    21  C   -0.334622
    22  C   -0.360463
    23  C   -0.088668
    24  C   -0.058628
    25  C    0.065197
    26  C    0.120372
    27  C   -0.350872
    28  C   -0.341357
    29  C   -0.116005
    30  C   -0.149479
    31  C   -0.088133
    32  C   -0.093186
    33  C   -0.112297
    34  C   -0.087756
    35  C    0.114767
    36  C    0.118316
    37  C   -0.372406
    38  C   -0.368822
    39  C   -0.141499
    40  C   -0.124967
    41  C   -0.065213
    42  C   -0.086226
    43  H    0.118823
    44  H    0.082953
    45  H    0.069358
    46  H    0.115036
    47  H    0.081474
    48  H    0.053319
    49  H    0.130224
    50  H    0.098324
    51  H    0.107250
    52  H    0.114385
    53  H    0.050870
    54  H    0.107840
    55  H    0.102161
    56  H    0.079553
    57  H    0.103156
    58  H    0.105769
    59  H    0.085060
    60  H    0.108679
    61  H    0.108001
    62  H    0.100195
    63  H    0.063902
    64  H    0.122786
    65  H    0.084725
    66  H    0.079736
    67  H    0.112389
    68  H    0.119000
    69  H    0.117068
    70  H    0.106077
    71  H    0.113954
    72  H    0.112132
    73  H    0.308120
    74  H    0.308269
    75  H    0.085095
    76  H    0.090976
    77  H    0.128725
    78  H    0.105215
    79  H    0.095433
    80  H    0.085925
    81  H    0.103302
    82  H    0.119265
    83  H    0.060877
    84  H    0.078931
    85  H    0.074793
    86  H    0.075909
    87  H    0.081222
    88  H    0.086056
    89  H    0.134450
    90  H    0.115078
    91  H    0.107359
    92  H    0.134897
    93  H    0.097096
    94  H    0.120157
    95  H    0.078865
    96  H    0.086633
    97  H    0.065945
    98  H    0.071994
 Sum of Mulliken charges =  -0.00000

 Dipole moment (field-independent basis, Debye):
    X=              0.1042    Y=             -1.7252    Z=              1.1992  Tot=              2.1036
 Quadrupole moment (field-independent basis, Debye-Ang):
   XX=           -290.1475   YY=           -243.8537   ZZ=           -260.9556
   XY=             12.8813   XZ=            -15.8333   YZ=              1.2379

 Normal termination of Gaussian 16 at Thu Jul 11 09:05:57 2019.
