 Gaussian 16, Revision A.03,
 Gaussian 16:  ES64L-G16RevA.03 25-Dec-2016

 -------------------------------------
 # td=(NStates=1) CAM-B3LYP/6-31G(d,p)
 -------------------------------------

 --
 TD
 --
 Symbolic Z-matrix:
 Charge =  0 Multiplicity = 1

                         Standard orientation:
 ---------------------------------------------------------------------
 Center     Atomic      Atomic             Coordinates (Angstroms)
 Number     Number       Type             X           Y           Z
 ---------------------------------------------------------------------
      1          8           0       14.764100   -1.987081   -0.378349
      2          8           0      -14.699590    2.196944    0.740941
      3          6           0       11.569010   -1.038504    1.202393
      4          6           0      -12.372084   -0.870003    0.704210
      5          6           0       12.995268   -1.314666    1.069463
      6          6           0      -13.746880   -0.107017    0.611824
      7          6           0       13.382613   -1.795304   -0.338470
      8          6           0      -13.482696    1.421283    0.740194
      9          6           0       10.918434   -0.265722   -0.058598
     10          6           0      -11.412659   -0.268222   -0.220087
     11          6           0       13.010909   -0.709477   -1.324883
     12          6           0      -12.674439    1.830239   -0.584966
     13          6           0       11.558401   -0.266521   -1.206938
     14          6           0      -11.513131    0.918774   -0.839617
     15          6           0       11.240100   -0.064772    2.308513
     16          6           0       10.793827   -2.456941    1.394022
     17          6           0      -11.750414   -1.025508    2.134406
     18          6           0      -12.739257   -2.332559    0.200565
     19          6           0        9.612574    0.281796    0.226590
     20          6           0      -10.075609   -1.049861   -0.439927
     21          6           0       11.018587    0.344331   -2.483387
     22          6           0      -10.473993    1.509207   -1.863026
     23          6           0        9.395802    1.542613   -0.078924
     24          6           0       -8.863638   -0.553135   -0.094912
     25          6           0        8.005720    2.150612    0.091463
     26          6           0       -7.672491   -1.334199   -0.410570
     27          6           0        8.130659    3.651532    0.504748
     28          6           0       -7.805106   -2.751568   -0.958348
     29          6           0        6.973121    1.432328   -0.048628
     30          6           0       -6.503505   -0.752452   -0.198444
     31          6           0        5.566055    1.962888    0.053947
     32          6           0       -5.062391   -1.247380   -0.316218
     33          6           0        4.467386    1.252399   -0.126836
     34          6           0       -4.034482   -0.451599   -0.093985
     35          6           0        3.029507    1.588777    0.060074
     36          6           0       -2.583545   -0.827838   -0.307845
     37          6           0        2.727493    3.052824    0.444049
     38          6           0       -2.426597   -2.234213   -0.604821
     39          6           0        2.099599    0.670944   -0.098093
     40          6           0       -1.658878    0.071826    0.029165
     41          6           0        0.685234    0.861880    0.051926
     42          6           0       -0.211302   -0.053839   -0.239844
     43          1           0       13.777078   -0.439016    1.354943
     44          1           0       13.449952   -1.925536    1.847092
     45          1           0      -14.489330   -0.432835    1.505794
     46          1           0      -14.320149   -0.277639   -0.385156
     47          1           0       12.773389   -2.790234   -0.507000
     48          1           0      -12.861021    1.570909    1.485919
     49          1           0       13.722605    0.054403   -1.106930
     50          1           0       13.181470   -1.091349   -2.360396
     51          1           0      -13.536464    2.115153   -1.352320
     52          1           0      -12.245283    2.970256   -0.525599
     53          1           0       11.762180   -0.235791    3.315654
     54          1           0       10.190204    0.012987    2.318592
     55          1           0       11.874961    0.888566    1.962451
     56          1           0       10.981521   -3.117634    0.573178
     57          1           0       11.015185   -3.018364    2.340784
     58          1           0        9.712559   -2.357860    1.285139
     59          1           0      -11.551666   -0.174850    2.754178
     60          1           0      -10.787848   -1.641463    2.267886
     61          1           0      -12.486437   -1.591274    2.833571
     62          1           0      -13.630395   -2.763757    0.734967
     63          1           0      -11.786405   -2.902828    0.254123
     64          1           0      -13.035863   -1.972729   -0.882355
     65          1           0        8.890998   -0.372678    0.402735
     66          1           0      -10.050122   -2.008852   -0.760426
     67          1           0       10.075539    0.908112   -2.366839
     68          1           0       11.857727    0.989503   -3.157092
     69          1           0       10.911915   -0.573187   -3.228293
     70          1           0      -10.912884    2.019468   -2.947272
     71          1           0       -9.812527    0.480857   -2.163281
     72          1           0       -9.831877    2.369630   -1.613546
     73          1           0       15.094969   -2.691431    0.288459
     74          1           0      -15.132948    1.740721    1.496832
     75          1           0       10.299016    2.020364   -0.379929
     76          1           0       -8.619704    0.342891    0.229182
     77          1           0        8.812183    4.198521   -0.211090
     78          1           0        7.005655    4.011710    0.773971
     79          1           0        8.804783    3.560755    1.408691
     80          1           0       -8.400133   -3.439561   -0.395678
     81          1           0       -8.256574   -2.955199   -1.899009
     82          1           0       -6.839539   -3.201640   -1.111850
     83          1           0        6.858592    0.460057   -0.394710
     84          1           0       -6.672619    0.231873    0.251300
     85          1           0        5.596781    2.864531    0.529786
     86          1           0       -4.987375   -2.137141   -0.596422
     87          1           0        4.612485    0.044508   -0.461037
     88          1           0       -4.089451    0.485435    0.310981
     89          1           0        3.396013    3.315711    1.342993
     90          1           0        1.524935    3.189557    0.667618
     91          1           0        3.267945    3.574897   -0.316158
     92          1           0       -3.131044   -2.930765    0.015451
     93          1           0       -2.601340   -2.414853   -1.645859
     94          1           0       -1.366312   -2.594724   -0.370859
     95          1           0        2.319493   -0.373299   -0.425566
     96          1           0       -1.895747    0.970022    0.578943
     97          1           0        0.186268    1.791752    0.708954
     98          1           0        0.155363   -1.073277   -0.517335
 ---------------------------------------------------------------------

 SCF Done:  E(RCAM-B3LYP) =  -1706.95777905     A.U. after   13 cycles

 Excitation energies and oscillator strengths:

 Excited State   1:      Singlet-A      3.5284 eV  351.39 nm  f=3.5007  <S**2>=0.000
     155 ->158        -0.18342
     156 ->157         0.67164
 This state for optimization and/or second-order correction.
 Total Energy, E(TD-HF/TD-DFT) =  -1706.82811362
 Copying the excited state density for this state as the 1-particle RhoCI density.

 The electronic state is 1-A.
 Alpha  occ. eigenvalues --  -19.21569 -19.21491 -10.30666 -10.29493 -10.28478
 Alpha  occ. eigenvalues --  -10.28179 -10.27805 -10.27673 -10.27517 -10.27423
 Alpha  occ. eigenvalues --  -10.27321 -10.27304 -10.27247 -10.27244 -10.27234
 Alpha  occ. eigenvalues --  -10.27101 -10.26974 -10.26758 -10.26621 -10.26470
 Alpha  occ. eigenvalues --  -10.26309 -10.26289 -10.26280 -10.26275 -10.26200
 Alpha  occ. eigenvalues --  -10.26111 -10.25919 -10.25882 -10.25600 -10.25558
 Alpha  occ. eigenvalues --  -10.25548 -10.25505 -10.25210 -10.25135 -10.25033
 Alpha  occ. eigenvalues --  -10.24929 -10.24893 -10.24877 -10.24867 -10.24811
 Alpha  occ. eigenvalues --  -10.24800 -10.24236  -1.09080  -1.08865  -0.93954
 Alpha  occ. eigenvalues --   -0.93544  -0.92458  -0.91845  -0.91084  -0.90434
 Alpha  occ. eigenvalues --   -0.87697  -0.86628  -0.86019  -0.85507  -0.84575
 Alpha  occ. eigenvalues --   -0.82956  -0.81983  -0.79775  -0.79397  -0.78339
 Alpha  occ. eigenvalues --   -0.77701  -0.76231  -0.76030  -0.75770  -0.75490
 Alpha  occ. eigenvalues --   -0.75261  -0.74428  -0.74288  -0.73103  -0.70511
 Alpha  occ. eigenvalues --   -0.68579  -0.67259  -0.65972  -0.64942  -0.64347
 Alpha  occ. eigenvalues --   -0.64130  -0.62535  -0.62066  -0.61223  -0.60945
 Alpha  occ. eigenvalues --   -0.60896  -0.59118  -0.58641  -0.57831  -0.56358
 Alpha  occ. eigenvalues --   -0.55714  -0.55088  -0.54917  -0.54076  -0.53821
 Alpha  occ. eigenvalues --   -0.53069  -0.52185  -0.52075  -0.51404  -0.51244
 Alpha  occ. eigenvalues --   -0.50208  -0.50068  -0.49590  -0.49379  -0.48568
 Alpha  occ. eigenvalues --   -0.48418  -0.48031  -0.47837  -0.47568  -0.47528
 Alpha  occ. eigenvalues --   -0.47053  -0.46965  -0.46773  -0.46575  -0.46244
 Alpha  occ. eigenvalues --   -0.46090  -0.45731  -0.45678  -0.45424  -0.45072
 Alpha  occ. eigenvalues --   -0.44880  -0.44676  -0.44444  -0.44105  -0.43958
 Alpha  occ. eigenvalues --   -0.43498  -0.43042  -0.42881  -0.42523  -0.42096
 Alpha  occ. eigenvalues --   -0.41799  -0.41666  -0.41606  -0.40962  -0.40625
 Alpha  occ. eigenvalues --   -0.40294  -0.40150  -0.39823  -0.39557  -0.39156
 Alpha  occ. eigenvalues --   -0.38828  -0.38670  -0.38417  -0.38021  -0.37601
 Alpha  occ. eigenvalues --   -0.36963  -0.36870  -0.36368  -0.35946  -0.35705
 Alpha  occ. eigenvalues --   -0.35164  -0.34196  -0.33222  -0.32259  -0.32065
 Alpha  occ. eigenvalues --   -0.31266  -0.29701  -0.28683  -0.27443  -0.25545
 Alpha  occ. eigenvalues --   -0.22915
 Alpha virt. eigenvalues --   -0.02517   0.01026   0.03562   0.06089   0.07489
 Alpha virt. eigenvalues --    0.09297   0.10143   0.10974   0.11480   0.11509
 Alpha virt. eigenvalues --    0.12037   0.12388   0.13316   0.13348   0.13630

 Mulliken charges:
               1
     1  O   -0.570931
     2  O   -0.553972
     3  C    0.014089
     4  C   -0.028858
     5  C   -0.196145
     6  C   -0.200957
     7  C    0.185585
     8  C    0.162788
     9  C    0.018323
    10  C    0.074783
    11  C   -0.204200
    12  C   -0.240963
    13  C    0.067053
    14  C    0.090823
    15  C   -0.283738
    16  C   -0.324971
    17  C   -0.314233
    18  C   -0.284254
    19  C   -0.081555
    20  C   -0.177519
    21  C   -0.358110
    22  C   -0.344981
    23  C   -0.123343
    24  C   -0.032009
    25  C    0.076068
    26  C    0.141585
    27  C   -0.353358
    28  C   -0.402635
    29  C   -0.092458
    30  C   -0.169210
    31  C   -0.087315
    32  C   -0.051112
    33  C   -0.114286
    34  C   -0.080475
    35  C    0.121801
    36  C    0.129895
    37  C   -0.359325
    38  C   -0.383968
    39  C   -0.139988
    40  C   -0.147453
    41  C   -0.070324
    42  C   -0.086394
    43  H    0.068889
    44  H    0.079056
    45  H    0.058257
    46  H    0.108457
    47  H    0.059398
    48  H    0.101160
    49  H    0.128486
    50  H    0.098546
    51  H    0.114513
    52  H    0.079332
    53  H    0.082257
    54  H    0.117613
    55  H    0.083610
    56  H    0.108043
    57  H    0.100611
    58  H    0.095303
    59  H    0.109650
    60  H    0.109873
    61  H    0.082588
    62  H    0.107549
    63  H    0.101245
    64  H    0.094120
    65  H    0.094431
    66  H    0.084646
    67  H    0.122952
    68  H    0.084338
    69  H    0.099070
    70  H    0.072598
    71  H    0.100385
    72  H    0.122226
    73  H    0.311604
    74  H    0.303152
    75  H    0.097887
    76  H    0.074385
    77  H    0.128958
    78  H    0.099427
    79  H    0.127859
    80  H    0.121005
    81  H    0.125831
    82  H    0.107157
    83  H    0.079914
    84  H    0.067327
    85  H    0.060545
    86  H    0.055216
    87  H    0.055058
    88  H    0.074181
    89  H    0.110960
    90  H    0.103364
    91  H    0.135777
    92  H    0.118389
    93  H    0.131895
    94  H    0.101212
    95  H    0.085883
    96  H    0.084698
    97  H    0.066841
    98  H    0.078518
 Sum of Mulliken charges =  -0.00000

 Dipole moment (field-independent basis, Debye):
    X=              1.1397    Y=             -2.4055    Z=              2.3533  Tot=              3.5530
 Quadrupole moment (field-independent basis, Debye-Ang):
   XX=           -283.5838   YY=           -249.4041   ZZ=           -261.7312
   XY=             16.0787   XZ=             -3.8680   YZ=              1.7278

 Normal termination of Gaussian 16 at Mon Jul  8 02:55:45 2019.
