 Gaussian 16, Revision A.03,
 Gaussian 16:  ES64L-G16RevA.03 25-Dec-2016

 -------------------------------------
 # td=(NStates=1) CAM-B3LYP/6-31G(d,p)
 -------------------------------------

 --
 TD
 --
 Symbolic Z-matrix:
 Charge =  0 Multiplicity = 1

                         Standard orientation:
 ---------------------------------------------------------------------
 Center     Atomic      Atomic             Coordinates (Angstroms)
 Number     Number       Type             X           Y           Z
 ---------------------------------------------------------------------
      1          8           0       14.533533   -2.317153   -0.428903
      2          8           0      -14.886857    1.833405    0.787752
      3          6           0       11.362322   -1.143793    1.235851
      4          6           0      -12.306494   -0.904217    0.856991
      5          6           0       12.904524   -1.452530    1.061828
      6          6           0      -13.693183   -0.259057    0.754848
      7          6           0       13.226927   -2.006098   -0.340905
      8          6           0      -13.593456    1.225960    0.724829
      9          6           0       10.919230   -0.340223    0.044156
     10          6           0      -11.308476   -0.294049   -0.124709
     11          6           0       13.023521   -0.836866   -1.245062
     12          6           0      -12.865558    1.674799   -0.520634
     13          6           0       11.630192   -0.267273   -1.154073
     14          6           0      -11.636008    0.844972   -0.858517
     15          6           0       11.322581   -0.401917    2.653684
     16          6           0       10.619210   -2.478189    1.172338
     17          6           0      -11.637829   -0.931472    2.291225
     18          6           0      -12.578957   -2.472040    0.519821
     19          6           0        9.615165    0.299529    0.233943
     20          6           0      -10.040753   -1.042053   -0.319712
     21          6           0       11.196541    0.536753   -2.329371
     22          6           0      -10.680143    1.412013   -1.822174
     23          6           0        9.310573    1.623430   -0.068461
     24          6           0       -8.822187   -0.550663   -0.393801
     25          6           0        8.061616    2.223037    0.118199
     26          6           0       -7.544416   -1.257977   -0.531858
     27          6           0        8.209618    3.749638    0.534408
     28          6           0       -7.578560   -2.823440   -0.853942
     29          6           0        6.886636    1.522624   -0.020956
     30          6           0       -6.358718   -0.597579   -0.458656
     31          6           0        5.497357    2.075089    0.112032
     32          6           0       -4.929150   -1.150415   -0.526181
     33          6           0        4.496485    1.361097   -0.189974
     34          6           0       -3.960851   -0.237695   -0.389696
     35          6           0        3.068458    1.780857    0.183030
     36          6           0       -2.561060   -0.594105   -0.587241
     37          6           0        2.754972    3.090867    0.678108
     38          6           0       -2.348229   -2.094823   -0.854936
     39          6           0        2.115507    0.861861   -0.158905
     40          6           0       -1.610424    0.346660   -0.420215
     41          6           0        0.674546    1.039536   -0.093615
     42          6           0       -0.211023    0.062093   -0.392394
     43          1           0       13.659962   -0.569355    1.303078
     44          1           0       13.150367   -2.414457    1.843383
     45          1           0      -14.195190   -0.634358    1.613599
     46          1           0      -14.420146   -0.474778   -0.005211
     47          1           0       12.531260   -2.966125   -0.544525
     48          1           0      -12.962229    1.776403    1.479416
     49          1           0       13.646018    0.036616   -0.912635
     50          1           0       13.204912   -1.096702   -2.466167
     51          1           0      -13.495994    1.465455   -1.303463
     52          1           0      -12.555094    2.749579   -0.498463
     53          1           0       11.883360   -1.026974    3.373622
     54          1           0       10.269090   -0.446148    2.744589
     55          1           0       11.617041    0.508941    2.686831
     56          1           0       10.989742   -2.922024    0.231744
     57          1           0       10.902817   -3.092947    2.000306
     58          1           0        9.557008   -2.319956    1.424483
     59          1           0      -11.377426    0.090829    2.716667
     60          1           0      -10.677994   -1.368371    2.124263
     61          1           0      -12.359632   -1.382346    3.028613
     62          1           0      -13.395491   -2.856490    1.237823
     63          1           0      -11.889581   -3.305966    0.501001
     64          1           0      -12.929709   -2.561484   -0.578558
     65          1           0        8.998683   -0.429489    0.703867
     66          1           0      -10.323706   -2.048154   -0.658010
     67          1           0       10.200564    0.897363   -2.213066
     68          1           0       11.934301    1.404797   -2.392300
     69          1           0       11.328354   -0.061587   -3.339926
     70          1           0      -11.210615    1.758277   -2.556930
     71          1           0       -9.947568    0.615198   -2.210043
     72          1           0      -10.346506    2.264867   -1.257279
     73          1           0       14.778261   -3.180602    0.090473
     74          1           0      -15.313023    1.934438    1.743258
     75          1           0        9.952315    2.304009   -0.611461
     76          1           0       -8.680350    0.477124   -0.146563
     77          1           0        8.839941    4.009110   -0.207036
     78          1           0        7.343993    4.342086    0.623858
     79          1           0        8.685379    3.798290    1.520429
     80          1           0       -8.131943   -3.429762    0.023641
     81          1           0       -7.882643   -3.117088   -1.911578
     82          1           0       -6.624991   -3.161587   -0.820521
     83          1           0        6.939246    0.457016   -0.169163
     84          1           0       -6.295112    0.489576   -0.173064
     85          1           0        5.398308    3.193818    0.482371
     86          1           0       -4.826730   -2.115425   -0.752668
     87          1           0        4.697774    0.395202   -0.394533
     88          1           0       -4.298624    0.805186   -0.352141
     89          1           0        3.355918    3.194833    1.703636
     90          1           0        1.818376    3.383858    1.085116
     91          1           0        3.248892    3.951879    0.080228
     92          1           0       -2.747804   -2.790307   -0.267826
     93          1           0       -2.808629   -2.181137   -1.812506
     94          1           0       -1.210079   -2.247888   -0.702051
     95          1           0        2.525412   -0.020604   -0.570717
     96          1           0       -2.068026    1.284772   -0.017877
     97          1           0        0.491066    1.920079    0.226992
     98          1           0        0.070014   -0.983545   -0.733626
 ---------------------------------------------------------------------

 SCF Done:  E(RCAM-B3LYP) =  -1707.00031250     A.U. after   13 cycles

 Excitation energies and oscillator strengths:

 Excited State   1:      Singlet-A      3.1125 eV  398.34 nm  f=3.5903  <S**2>=0.000
     155 ->158         0.20690
     156 ->157         0.66379
 This state for optimization and/or second-order correction.
 Total Energy, E(TD-HF/TD-DFT) =  -1706.88592878
 Copying the excited state density for this state as the 1-particle RhoCI density.

 The electronic state is 1-A.
 Alpha  occ. eigenvalues --  -19.21695 -19.20747 -10.30951 -10.29887 -10.27894
 Alpha  occ. eigenvalues --  -10.27440 -10.27259 -10.27193 -10.26824 -10.26789
 Alpha  occ. eigenvalues --  -10.26707 -10.26658 -10.26620 -10.26613 -10.26485
 Alpha  occ. eigenvalues --  -10.26461 -10.26220 -10.26214 -10.25976 -10.25927
 Alpha  occ. eigenvalues --  -10.25866 -10.25830 -10.25810 -10.25643 -10.25581
 Alpha  occ. eigenvalues --  -10.25563 -10.25372 -10.25327 -10.25151 -10.25060
 Alpha  occ. eigenvalues --  -10.24988 -10.24858 -10.24844 -10.24768 -10.24766
 Alpha  occ. eigenvalues --  -10.24747 -10.24729 -10.24426 -10.24379 -10.23863
 Alpha  occ. eigenvalues --  -10.23156 -10.23093  -1.10940  -1.06871  -0.93415
 Alpha  occ. eigenvalues --   -0.92680  -0.92156  -0.91513  -0.90156  -0.89250
 Alpha  occ. eigenvalues --   -0.87495  -0.86706  -0.86526  -0.85442  -0.84228
 Alpha  occ. eigenvalues --   -0.83353  -0.82057  -0.79983  -0.79624  -0.78605
 Alpha  occ. eigenvalues --   -0.77562  -0.76844  -0.76494  -0.75962  -0.75478
 Alpha  occ. eigenvalues --   -0.74885  -0.74440  -0.73924  -0.73723  -0.70267
 Alpha  occ. eigenvalues --   -0.69097  -0.67220  -0.65082  -0.64636  -0.63591
 Alpha  occ. eigenvalues --   -0.63367  -0.63008  -0.62259  -0.61266  -0.60799
 Alpha  occ. eigenvalues --   -0.59154  -0.59005  -0.57923  -0.57789  -0.56613
 Alpha  occ. eigenvalues --   -0.55649  -0.54859  -0.54491  -0.54190  -0.53533
 Alpha  occ. eigenvalues --   -0.52785  -0.52473  -0.52122  -0.51638  -0.51316
 Alpha  occ. eigenvalues --   -0.50789  -0.50186  -0.49842  -0.49362  -0.49268
 Alpha  occ. eigenvalues --   -0.48727  -0.48558  -0.48432  -0.48097  -0.48055
 Alpha  occ. eigenvalues --   -0.47822  -0.47190  -0.46961  -0.46933  -0.46267
 Alpha  occ. eigenvalues --   -0.46241  -0.46171  -0.45606  -0.45191  -0.45088
 Alpha  occ. eigenvalues --   -0.44957  -0.44891  -0.44151  -0.43889  -0.43567
 Alpha  occ. eigenvalues --   -0.43507  -0.43339  -0.42810  -0.42335  -0.42224
 Alpha  occ. eigenvalues --   -0.41901  -0.41512  -0.41216  -0.41032  -0.40628
 Alpha  occ. eigenvalues --   -0.40451  -0.40135  -0.39922  -0.39185  -0.39085
 Alpha  occ. eigenvalues --   -0.38725  -0.38507  -0.38328  -0.37872  -0.37626
 Alpha  occ. eigenvalues --   -0.37309  -0.36884  -0.36032  -0.35868  -0.35740
 Alpha  occ. eigenvalues --   -0.35376  -0.34319  -0.33459  -0.31891  -0.31653
 Alpha  occ. eigenvalues --   -0.30411  -0.29037  -0.27648  -0.25469  -0.23800
 Alpha  occ. eigenvalues --   -0.21323
 Alpha virt. eigenvalues --   -0.02885   0.00261   0.02958   0.06573   0.08341
 Alpha virt. eigenvalues --    0.09811   0.10333   0.10912   0.11223   0.12229
 Alpha virt. eigenvalues --    0.12985   0.13093   0.13303   0.13566   0.14154

 Mulliken charges:
               1
     1  O   -0.553142
     2  O   -0.591442
     3  C   -0.055901
     4  C   -0.016084
     5  C   -0.176817
     6  C   -0.169777
     7  C    0.200456
     8  C    0.168036
     9  C    0.055220
    10  C    0.039538
    11  C   -0.197683
    12  C   -0.211022
    13  C    0.055807
    14  C    0.015815
    15  C   -0.282091
    16  C   -0.295347
    17  C   -0.294986
    18  C   -0.321866
    19  C   -0.108862
    20  C   -0.135261
    21  C   -0.352280
    22  C   -0.343456
    23  C   -0.115258
    24  C   -0.087334
    25  C    0.047973
    26  C    0.084286
    27  C   -0.350304
    28  C   -0.359085
    29  C   -0.138008
    30  C   -0.148059
    31  C   -0.063935
    32  C   -0.059591
    33  C   -0.089537
    34  C   -0.109203
    35  C    0.118866
    36  C    0.072748
    37  C   -0.399770
    38  C   -0.358886
    39  C   -0.133493
    40  C   -0.114851
    41  C   -0.035326
    42  C   -0.097550
    43  H    0.093313
    44  H    0.029780
    45  H    0.084807
    46  H    0.113505
    47  H    0.056892
    48  H    0.070812
    49  H    0.123542
    50  H    0.071118
    51  H    0.122984
    52  H    0.100614
    53  H    0.099468
    54  H    0.095287
    55  H    0.117547
    56  H    0.112476
    57  H    0.101490
    58  H    0.101533
    59  H    0.088649
    60  H    0.124114
    61  H    0.092088
    62  H    0.085448
    63  H    0.105273
    64  H    0.089829
    65  H    0.088418
    66  H    0.096840
    67  H    0.124066
    68  H    0.106279
    69  H    0.093027
    70  H    0.112402
    71  H    0.121494
    72  H    0.114985
    73  H    0.308297
    74  H    0.313136
    75  H    0.095040
    76  H    0.084472
    77  H    0.123265
    78  H    0.112418
    79  H    0.125238
    80  H    0.101480
    81  H    0.114656
    82  H    0.113815
    83  H    0.079409
    84  H    0.075370
    85  H    0.070290
    86  H    0.078810
    87  H    0.080360
    88  H    0.087192
    89  H    0.099237
    90  H    0.129609
    91  H    0.120683
    92  H    0.136295
    93  H    0.132475
    94  H    0.089315
    95  H    0.067154
    96  H    0.084502
    97  H    0.055213
    98  H    0.091650
 Sum of Mulliken charges =  -0.00000

 Dipole moment (field-independent basis, Debye):
    X=              1.3994    Y=             -0.7062    Z=              2.1512  Tot=              2.6617
 Quadrupole moment (field-independent basis, Debye-Ang):
   XX=           -274.7147   YY=           -239.0651   ZZ=           -260.2342
   XY=             -2.7955   XZ=             -3.1357   YZ=              4.2905

 Normal termination of Gaussian 16 at Thu Jul 11 14:48:08 2019.
