 Gaussian 16, Revision A.03,
 Gaussian 16:  ES64L-G16RevA.03 25-Dec-2016

 -------------------------------------
 # td=(NStates=1) CAM-B3LYP/6-31G(d,p)
 -------------------------------------

 --
 TD
 --
 Symbolic Z-matrix:
 Charge =  0 Multiplicity = 1

                         Standard orientation:
 ---------------------------------------------------------------------
 Center     Atomic      Atomic             Coordinates (Angstroms)
 Number     Number       Type             X           Y           Z
 ---------------------------------------------------------------------
      1          8           0       14.770466   -2.105402   -0.302498
      2          8           0      -14.767923    1.938052    0.968883
      3          6           0       11.481459   -1.164522    1.158415
      4          6           0      -12.370924   -0.927910    0.853623
      5          6           0       13.010144   -1.439261    1.175145
      6          6           0      -13.691787   -0.148645    1.014734
      7          6           0       13.439613   -1.905063   -0.227022
      8          6           0      -13.523544    1.338595    0.881512
      9          6           0       11.027796   -0.377022   -0.067470
     10          6           0      -11.406065   -0.240419   -0.132057
     11          6           0       13.134775   -0.786837   -1.277075
     12          6           0      -12.991392    1.679766   -0.459449
     13          6           0       11.776222   -0.185120   -1.133207
     14          6           0      -11.741896    0.874256   -0.835536
     15          6           0       11.234793   -0.465071    2.522681
     16          6           0       10.683800   -2.482142    1.180670
     17          6           0      -11.770132   -0.891185    2.308433
     18          6           0      -12.673466   -2.399074    0.401903
     19          6           0        9.787710    0.280301    0.223168
     20          6           0      -10.171259   -1.054086   -0.363615
     21          6           0       11.362448    0.674611   -2.337761
     22          6           0      -10.900397    1.385627   -2.001582
     23          6           0        9.409688    1.596190   -0.034570
     24          6           0       -8.925586   -0.595766   -0.396248
     25          6           0        8.166295    2.222988    0.111472
     26          6           0       -7.623965   -1.232624   -0.580452
     27          6           0        8.138744    3.696673    0.465191
     28          6           0       -7.728585   -2.787860   -0.708157
     29          6           0        6.942817    1.538844   -0.010901
     30          6           0       -6.428022   -0.593326   -0.547736
     31          6           0        5.585377    2.064118    0.160957
     32          6           0       -5.050528   -1.151691   -0.762172
     33          6           0        4.489325    1.286672   -0.009414
     34          6           0       -4.056977   -0.364387   -0.509715
     35          6           0        3.063859    1.586862    0.199211
     36          6           0       -2.665237   -0.683560   -0.553247
     37          6           0        2.844073    3.009178    0.673465
     38          6           0       -2.352885   -2.061661   -1.081815
     39          6           0        2.132702    0.687614   -0.157799
     40          6           0       -1.647598    0.150919   -0.278225
     41          6           0        0.713718    0.917562   -0.125379
     42          6           0       -0.252316   -0.042877   -0.328141
     43          1           0       13.683285   -0.413676    1.312463
     44          1           0       13.307252   -2.177207    1.980066
     45          1           0      -14.205022   -0.361493    1.748882
     46          1           0      -14.285099   -0.426417    0.160060
     47          1           0       12.798790   -2.784519   -0.512708
     48          1           0      -12.856893    1.796292    1.587602
     49          1           0       13.925193   -0.038479   -1.024735
     50          1           0       13.193813   -1.006003   -2.298736
     51          1           0      -13.974503    1.276658   -1.192203
     52          1           0      -12.564376    2.778663   -0.838796
     53          1           0       11.721476   -1.089437    3.300922
     54          1           0       10.111684   -0.198497    3.008991
     55          1           0       11.765022    0.457779    2.331623
     56          1           0       10.963969   -3.125077    0.325593
     57          1           0       11.064756   -3.362391    1.893875
     58          1           0        9.545877   -2.235606    1.137597
     59          1           0      -11.465360    0.065623    2.620032
     60          1           0      -10.936125   -1.464397    2.448968
     61          1           0      -12.363713   -1.267478    2.983525
     62          1           0      -13.339537   -3.031495    1.088665
     63          1           0      -11.719663   -2.947818    0.421296
     64          1           0      -13.143273   -2.370335   -0.745236
     65          1           0        8.723302   -0.444664    0.500059
     66          1           0      -10.226626   -2.091828   -0.756817
     67          1           0       10.226757    0.989883   -2.109379
     68          1           0       11.955816    1.344024   -2.440657
     69          1           0       11.699308    0.163913   -3.273622
     70          1           0      -11.602440    1.766779   -2.840585
     71          1           0      -10.369954    0.658024   -2.286296
     72          1           0      -10.196447    2.394411   -1.743688
     73          1           0       15.110045   -2.825265    0.477195
     74          1           0      -15.284398    1.734946    1.753505
     75          1           0       10.057892    2.438204   -0.296441
     76          1           0       -8.724664    0.493938   -0.222563
     77          1           0        9.046284    4.155473   -0.005669
     78          1           0        7.175218    4.200682    0.149071
     79          1           0        8.355241    3.799566    1.605031
     80          1           0       -8.175052   -3.047511    0.291113
     81          1           0       -8.605394   -3.124048   -1.553059
     82          1           0       -6.716227   -3.320682   -0.939873
     83          1           0        6.850145    0.418737   -0.306013
     84          1           0       -6.598687    0.457639   -0.214579
     85          1           0        5.414934    3.071735    0.578945
     86          1           0       -4.979743   -2.090245   -1.013705
     87          1           0        4.738202    0.285672   -0.396224
     88          1           0       -4.255362    0.613941   -0.038110
     89          1           0        3.602152    3.336052    1.557953
     90          1           0        1.732499    3.004692    1.199582
     91          1           0        3.044649    3.871372   -0.039266
     92          1           0       -2.644125   -2.652832   -0.147128
     93          1           0       -2.702332   -2.193033   -2.065098
     94          1           0       -1.345010   -2.250968   -1.323186
     95          1           0        2.243935   -0.204792   -0.801901
     96          1           0       -2.039084    1.270714   -0.191019
     97          1           0        0.429503    1.964515    0.015202
     98          1           0        0.095000   -0.988951   -0.662614
 ---------------------------------------------------------------------

 SCF Done:  E(RCAM-B3LYP) =  -1706.90426299     A.U. after   14 cycles

 Excitation energies and oscillator strengths:

 Excited State   1:      Singlet-A      2.7750 eV  446.78 nm  f=3.5226  <S**2>=0.000
     155 ->158        -0.18715
     156 ->157         0.67482
 This state for optimization and/or second-order correction.
 Total Energy, E(TD-HF/TD-DFT) =  -1706.80228246
 Copying the excited state density for this state as the 1-particle RhoCI density.

 The electronic state is 1-A.
 Alpha  occ. eigenvalues --  -19.22638 -19.20315 -10.30501 -10.29551 -10.28510
 Alpha  occ. eigenvalues --  -10.28303 -10.28081 -10.27922 -10.27586 -10.27511
 Alpha  occ. eigenvalues --  -10.27451 -10.27302 -10.27083 -10.26955 -10.26912
 Alpha  occ. eigenvalues --  -10.26763 -10.26760 -10.26749 -10.26673 -10.26657
 Alpha  occ. eigenvalues --  -10.26595 -10.26560 -10.26530 -10.26440 -10.26350
 Alpha  occ. eigenvalues --  -10.26318 -10.26138 -10.26081 -10.26064 -10.26012
 Alpha  occ. eigenvalues --  -10.25902 -10.25778 -10.25762 -10.25620 -10.25453
 Alpha  occ. eigenvalues --  -10.25261 -10.25229 -10.24941 -10.24890 -10.23976
 Alpha  occ. eigenvalues --  -10.22501 -10.21718  -1.10238  -1.10173  -0.93801
 Alpha  occ. eigenvalues --   -0.93117  -0.92729  -0.91562  -0.90328  -0.89831
 Alpha  occ. eigenvalues --   -0.87647  -0.87151  -0.86349  -0.85533  -0.84282
 Alpha  occ. eigenvalues --   -0.83433  -0.82164  -0.80045  -0.79438  -0.78096
 Alpha  occ. eigenvalues --   -0.77033  -0.76904  -0.76401  -0.75572  -0.75067
 Alpha  occ. eigenvalues --   -0.74717  -0.74617  -0.74372  -0.73944  -0.70723
 Alpha  occ. eigenvalues --   -0.69181  -0.68124  -0.66071  -0.64955  -0.64146
 Alpha  occ. eigenvalues --   -0.63795  -0.63353  -0.62136  -0.61167  -0.59769
 Alpha  occ. eigenvalues --   -0.59233  -0.58738  -0.58377  -0.57056  -0.56017
 Alpha  occ. eigenvalues --   -0.55882  -0.55478  -0.54945  -0.54754  -0.53820
 Alpha  occ. eigenvalues --   -0.53380  -0.52552  -0.51779  -0.51544  -0.51099
 Alpha  occ. eigenvalues --   -0.50631  -0.50132  -0.49724  -0.49376  -0.49241
 Alpha  occ. eigenvalues --   -0.49032  -0.48521  -0.47999  -0.47854  -0.47357
 Alpha  occ. eigenvalues --   -0.47195  -0.47043  -0.46825  -0.46729  -0.46513
 Alpha  occ. eigenvalues --   -0.46226  -0.45643  -0.44997  -0.44808  -0.44451
 Alpha  occ. eigenvalues --   -0.44341  -0.44057  -0.43737  -0.43536  -0.43078
 Alpha  occ. eigenvalues --   -0.42808  -0.42560  -0.42350  -0.42282  -0.42067
 Alpha  occ. eigenvalues --   -0.41769  -0.41241  -0.41166  -0.41068  -0.40517
 Alpha  occ. eigenvalues --   -0.40267  -0.40220  -0.39341  -0.39260  -0.39096
 Alpha  occ. eigenvalues --   -0.39042  -0.38474  -0.38253  -0.38073  -0.37583
 Alpha  occ. eigenvalues --   -0.37079  -0.36589  -0.36126  -0.36023  -0.35652
 Alpha  occ. eigenvalues --   -0.35538  -0.35020  -0.33831  -0.32047  -0.31839
 Alpha  occ. eigenvalues --   -0.31388  -0.29490  -0.28539  -0.26644  -0.24197
 Alpha  occ. eigenvalues --   -0.21308
 Alpha virt. eigenvalues --   -0.04487  -0.00687   0.02482   0.05841   0.07407
 Alpha virt. eigenvalues --    0.08572   0.09129   0.10654   0.11751   0.12304
 Alpha virt. eigenvalues --    0.12485   0.13014   0.13106   0.13558   0.13597

 Mulliken charges:
               1
     1  O   -0.553173
     2  O   -0.562441
     3  C   -0.011828
     4  C   -0.019753
     5  C   -0.195561
     6  C   -0.153803
     7  C    0.194519
     8  C    0.183848
     9  C    0.068123
    10  C    0.042828
    11  C   -0.224816
    12  C   -0.191923
    13  C    0.050588
    14  C    0.060937
    15  C   -0.273926
    16  C   -0.294757
    17  C   -0.311683
    18  C   -0.303006
    19  C   -0.116809
    20  C   -0.152386
    21  C   -0.337606
    22  C   -0.328352
    23  C   -0.099930
    24  C   -0.082985
    25  C    0.069106
    26  C    0.110018
    27  C   -0.361525
    28  C   -0.362703
    29  C   -0.122907
    30  C   -0.149642
    31  C   -0.071931
    32  C   -0.051034
    33  C   -0.115626
    34  C   -0.079645
    35  C    0.124099
    36  C    0.081778
    37  C   -0.374019
    38  C   -0.366199
    39  C   -0.119986
    40  C   -0.130177
    41  C   -0.093038
    42  C   -0.085116
    43  H    0.077506
    44  H    0.079776
    45  H    0.074031
    46  H    0.093285
    47  H    0.066102
    48  H    0.080915
    49  H    0.117525
    50  H    0.108202
    51  H    0.078630
    52  H    0.089980
    53  H    0.095770
    54  H    0.077890
    55  H    0.104402
    56  H    0.095638
    57  H    0.076450
    58  H    0.104822
    59  H    0.106957
    60  H    0.100985
    61  H    0.102959
    62  H    0.094873
    63  H    0.107698
    64  H    0.083963
    65  H    0.065327
    66  H    0.092763
    67  H    0.118222
    68  H    0.126783
    69  H    0.089178
    70  H    0.102220
    71  H    0.129233
    72  H    0.079754
    73  H    0.305026
    74  H    0.301838
    75  H    0.080256
    76  H    0.069272
    77  H    0.105470
    78  H    0.117949
    79  H    0.121038
    80  H    0.129224
    81  H    0.084013
    82  H    0.099757
    83  H    0.077867
    84  H    0.076428
    85  H    0.071927
    86  H    0.081040
    87  H    0.071529
    88  H    0.083011
    89  H    0.102162
    90  H    0.095007
    91  H    0.133733
    92  H    0.122713
    93  H    0.128710
    94  H    0.104913
    95  H    0.097065
    96  H    0.065653
    97  H    0.085322
    98  H    0.079681
 Sum of Mulliken charges =  -0.00000

 Dipole moment (field-independent basis, Debye):
    X=              0.7110    Y=             -1.4472    Z=              1.4968  Tot=              2.2001
 Quadrupole moment (field-independent basis, Debye-Ang):
   XX=           -256.0445   YY=           -247.1422   ZZ=           -259.5370
   XY=             10.0384   XZ=             -9.7944   YZ=             -0.2085

 Normal termination of Gaussian 16 at Fri Jul  5 20:31:35 2019.
