 Gaussian 16, Revision A.03,
 Gaussian 16:  ES64L-G16RevA.03 25-Dec-2016

 -------------------------------------
 # td=(NStates=1) CAM-B3LYP/6-31G(d,p)
 -------------------------------------

 --
 TD
 --
 Symbolic Z-matrix:
 Charge =  0 Multiplicity = 1

                         Standard orientation:
 ---------------------------------------------------------------------
 Center     Atomic      Atomic             Coordinates (Angstroms)
 Number     Number       Type             X           Y           Z
 ---------------------------------------------------------------------
      1          8           0       14.713746   -2.207700   -0.504816
      2          8           0      -14.858204    2.055136    0.670727
      3          6           0       11.472398   -1.082840    1.210822
      4          6           0      -12.342160   -0.806662    0.838758
      5          6           0       12.944122   -1.365076    1.065780
      6          6           0      -13.641277   -0.125894    0.723616
      7          6           0       13.350379   -1.910821   -0.330411
      8          6           0      -13.600432    1.382847    0.615224
      9          6           0       10.897907   -0.160235    0.023937
     10          6           0      -11.282296   -0.238829   -0.026920
     11          6           0       13.028442   -0.735426   -1.334970
     12          6           0      -12.797675    1.820945   -0.517831
     13          6           0       11.657291   -0.154274   -1.099066
     14          6           0      -11.517775    0.998123   -0.728897
     15          6           0       11.309259   -0.373919    2.526407
     16          6           0       10.670416   -2.410744    1.377811
     17          6           0      -11.819843   -0.779285    2.356551
     18          6           0      -12.517328   -2.325940    0.560243
     19          6           0        9.634206    0.479881    0.336162
     20          6           0      -10.076872   -1.029349   -0.319030
     21          6           0       11.239826    0.716794   -2.324991
     22          6           0      -10.588506    1.349992   -1.787133
     23          6           0        9.335013    1.739145    0.016346
     24          6           0       -8.768821   -0.640230   -0.136228
     25          6           0        8.013834    2.251928    0.253246
     26          6           0       -7.512629   -1.335132   -0.568423
     27          6           0        8.003639    3.774804    0.557102
     28          6           0       -7.713856   -2.706874   -1.146887
     29          6           0        6.803934    1.573965    0.013929
     30          6           0       -6.381076   -0.611589   -0.364356
     31          6           0        5.502011    1.900176    0.231543
     32          6           0       -5.115672   -1.123720   -0.497234
     33          6           0        4.433140    1.190069   -0.215214
     34          6           0       -3.984282   -0.476832   -0.290179
     35          6           0        3.029577    1.514693   -0.039608
     36          6           0       -2.597711   -1.034759   -0.462447
     37          6           0        2.750844    2.922914    0.417458
     38          6           0       -2.352181   -2.516786   -0.852409
     39          6           0        2.117285    0.618634   -0.273703
     40          6           0       -1.565514   -0.077916   -0.427924
     41          6           0        0.723586    0.797507   -0.140274
     42          6           0       -0.154167   -0.214897   -0.298794
     43          1           0       13.531963   -0.487881    1.350286
     44          1           0       13.348851   -2.130886    1.791532
     45          1           0      -14.229247   -0.148252    1.702042
     46          1           0      -14.288478   -0.350133   -0.138160
     47          1           0       12.769465   -2.665534   -0.452815
     48          1           0      -13.112650    1.837810    1.569346
     49          1           0       13.587214    0.099087   -1.401403
     50          1           0       13.158794   -1.084917   -2.367689
     51          1           0      -13.412270    1.746491   -1.512071
     52          1           0      -12.705764    2.860568   -0.546210
     53          1           0       11.647553   -0.978781    3.282126
     54          1           0       10.305129   -0.171941    2.752850
     55          1           0       11.794950    0.679551    2.693258
     56          1           0       10.808055   -3.193084    0.454770
     57          1           0       11.113353   -2.795957    2.391191
     58          1           0        9.625948   -2.491397    1.504522
     59          1           0      -11.633830    0.148871    2.723154
     60          1           0      -10.762673   -1.351294    2.406497
     61          1           0      -12.601089   -1.375314    2.944957
     62          1           0      -13.280441   -2.859218    1.220242
     63          1           0      -11.560334   -2.762905    0.844119
     64          1           0      -13.004025   -2.239387   -0.473162
     65          1           0        8.920857   -0.105031    0.920804
     66          1           0      -10.195934   -2.102617   -0.620107
     67          1           0       10.251008    1.035706   -2.209818
     68          1           0       11.733917    1.714564   -2.020063
     69          1           0       11.568382    0.267226   -3.354494
     70          1           0      -11.305631    1.738976   -2.587693
     71          1           0       -9.888854    0.500435   -2.158282
     72          1           0       -9.766583    2.234579   -1.455880
     73          1           0       15.044442   -2.905004    0.128914
     74          1           0      -15.096173    1.697441    1.601329
     75          1           0       10.128917    2.523938   -0.390502
     76          1           0       -8.692859    0.520998    0.019330
     77          1           0        8.433639    4.462165   -0.173943
     78          1           0        6.985525    4.153087    0.606869
     79          1           0        8.476399    3.936384    1.397559
     80          1           0       -8.084461   -3.347705   -0.291965
     81          1           0       -8.494243   -2.423530   -2.067610
     82          1           0       -6.823075   -3.025979   -1.608564
     83          1           0        6.657408    0.661113   -0.557110
     84          1           0       -6.561052    0.459211    0.019172
     85          1           0        5.497993    2.987566    0.595370
     86          1           0       -5.076028   -2.163260   -0.693658
     87          1           0        4.547717    0.133183   -0.635696
     88          1           0       -3.975332    0.453222    0.342078
     89          1           0        3.208812    2.956119    1.473425
     90          1           0        1.699254    3.332354    0.456400
     91          1           0        3.313663    3.560573   -0.273696
     92          1           0       -2.806795   -3.110250   -0.122638
     93          1           0       -3.036520   -2.476451   -1.850106
     94          1           0       -1.248300   -2.718750   -0.853784
     95          1           0        2.345107   -0.318246   -0.606514
     96          1           0       -1.995513    0.974231   -0.181557
     97          1           0        0.430075    1.775064   -0.048703
     98          1           0        0.337205   -1.212629   -0.517575
 ---------------------------------------------------------------------

 SCF Done:  E(RCAM-B3LYP) =  -1707.00331098     A.U. after   14 cycles

 Excitation energies and oscillator strengths:

 Excited State   1:      Singlet-A      2.6765 eV  463.24 nm  f=3.7620  <S**2>=0.000
     155 ->158         0.19181
     156 ->157         0.67430
 This state for optimization and/or second-order correction.
 Total Energy, E(TD-HF/TD-DFT) =  -1706.90495277
 Copying the excited state density for this state as the 1-particle RhoCI density.

 The electronic state is 1-A.
 Alpha  occ. eigenvalues --  -19.22048 -19.21270 -10.30355 -10.29298 -10.28239
 Alpha  occ. eigenvalues --  -10.27769 -10.27705 -10.27638 -10.27612 -10.27350
 Alpha  occ. eigenvalues --  -10.27260 -10.27186 -10.26963 -10.26865 -10.26764
 Alpha  occ. eigenvalues --  -10.26740 -10.26673 -10.26553 -10.26546 -10.26538
 Alpha  occ. eigenvalues --  -10.26534 -10.26414 -10.26367 -10.26256 -10.26199
 Alpha  occ. eigenvalues --  -10.26095 -10.26063 -10.25929 -10.25675 -10.25583
 Alpha  occ. eigenvalues --  -10.25562 -10.25547 -10.25388 -10.25349 -10.25325
 Alpha  occ. eigenvalues --  -10.25219 -10.24933 -10.24656 -10.24546 -10.24207
 Alpha  occ. eigenvalues --  -10.24107 -10.23316  -1.09531  -1.08823  -0.93954
 Alpha  occ. eigenvalues --   -0.93116  -0.92718  -0.92105  -0.90694  -0.89469
 Alpha  occ. eigenvalues --   -0.87800  -0.87131  -0.86952  -0.86152  -0.85032
 Alpha  occ. eigenvalues --   -0.83590  -0.82647  -0.80201  -0.79829  -0.78329
 Alpha  occ. eigenvalues --   -0.76839  -0.76568  -0.76366  -0.75853  -0.75229
 Alpha  occ. eigenvalues --   -0.75183  -0.75166  -0.74805  -0.73710  -0.70662
 Alpha  occ. eigenvalues --   -0.69387  -0.67742  -0.66294  -0.64630  -0.63365
 Alpha  occ. eigenvalues --   -0.63252  -0.62452  -0.61922  -0.60624  -0.60133
 Alpha  occ. eigenvalues --   -0.59534  -0.59435  -0.58045  -0.57442  -0.56017
 Alpha  occ. eigenvalues --   -0.55878  -0.55426  -0.54976  -0.54321  -0.53559
 Alpha  occ. eigenvalues --   -0.53322  -0.52897  -0.52186  -0.51747  -0.51138
 Alpha  occ. eigenvalues --   -0.50884  -0.50515  -0.50225  -0.49672  -0.49457
 Alpha  occ. eigenvalues --   -0.49083  -0.48735  -0.48509  -0.48418  -0.48269
 Alpha  occ. eigenvalues --   -0.47915  -0.47864  -0.47446  -0.46602  -0.46348
 Alpha  occ. eigenvalues --   -0.45791  -0.45570  -0.45230  -0.44995  -0.44838
 Alpha  occ. eigenvalues --   -0.44280  -0.44064  -0.43883  -0.43336  -0.43174
 Alpha  occ. eigenvalues --   -0.43103  -0.42849  -0.42727  -0.42264  -0.42028
 Alpha  occ. eigenvalues --   -0.41961  -0.41733  -0.41388  -0.41131  -0.40986
 Alpha  occ. eigenvalues --   -0.40843  -0.40239  -0.40149  -0.40041  -0.39402
 Alpha  occ. eigenvalues --   -0.39224  -0.39027  -0.38941  -0.38740  -0.38204
 Alpha  occ. eigenvalues --   -0.37928  -0.37431  -0.36742  -0.36611  -0.36445
 Alpha  occ. eigenvalues --   -0.35643  -0.34247  -0.33144  -0.32358  -0.31659
 Alpha  occ. eigenvalues --   -0.31575  -0.29032  -0.27652  -0.25932  -0.23694
 Alpha  occ. eigenvalues --   -0.20666
 Alpha virt. eigenvalues --   -0.04389  -0.01054   0.02635   0.05302   0.07021
 Alpha virt. eigenvalues --    0.09734   0.10141   0.11378   0.12027   0.12255
 Alpha virt. eigenvalues --    0.12576   0.12971   0.13192   0.13378   0.13533

 Mulliken charges:
               1
     1  O   -0.573833
     2  O   -0.553655
     3  C   -0.019557
     4  C   -0.022962
     5  C   -0.202570
     6  C   -0.169652
     7  C    0.214480
     8  C    0.142073
     9  C    0.073495
    10  C    0.067066
    11  C   -0.208424
    12  C   -0.221893
    13  C    0.005668
    14  C    0.082088
    15  C   -0.298571
    16  C   -0.294654
    17  C   -0.297831
    18  C   -0.289234
    19  C   -0.105511
    20  C   -0.181488
    21  C   -0.361974
    22  C   -0.352063
    23  C   -0.103370
    24  C   -0.093582
    25  C    0.030657
    26  C    0.081961
    27  C   -0.373384
    28  C   -0.351844
    29  C   -0.095032
    30  C   -0.101555
    31  C   -0.065808
    32  C   -0.082330
    33  C   -0.147628
    34  C   -0.119189
    35  C    0.135977
    36  C    0.059727
    37  C   -0.370614
    38  C   -0.350425
    39  C   -0.126615
    40  C   -0.128127
    41  C   -0.048624
    42  C   -0.095715
    43  H    0.103624
    44  H    0.061077
    45  H    0.062397
    46  H    0.107924
    47  H    0.085997
    48  H    0.060504
    49  H    0.132655
    50  H    0.101531
    51  H    0.096290
    52  H    0.125486
    53  H    0.101270
    54  H    0.103346
    55  H    0.086616
    56  H    0.078287
    57  H    0.084498
    58  H    0.115126
    59  H    0.113687
    60  H    0.087011
    61  H    0.090782
    62  H    0.092668
    63  H    0.110002
    64  H    0.097595
    65  H    0.105342
    66  H    0.095455
    67  H    0.129282
    68  H    0.104859
    69  H    0.102048
    70  H    0.096128
    71  H    0.124419
    72  H    0.080675
    73  H    0.303384
    74  H    0.308742
    75  H    0.091378
    76  H    0.076899
    77  H    0.117193
    78  H    0.102217
    79  H    0.134083
    80  H    0.132291
    81  H    0.110512
    82  H    0.119326
    83  H    0.072920
    84  H    0.083282
    85  H    0.070236
    86  H    0.081157
    87  H    0.085568
    88  H    0.092268
    89  H    0.120556
    90  H    0.106638
    91  H    0.124248
    92  H    0.132759
    93  H    0.116053
    94  H    0.116441
    95  H    0.066461
    96  H    0.069648
    97  H    0.071203
    98  H    0.072477
 Sum of Mulliken charges =  -0.00000

 Dipole moment (field-independent basis, Debye):
    X=              0.5070    Y=             -1.6259    Z=              1.7553  Tot=              2.4457
 Quadrupole moment (field-independent basis, Debye-Ang):
   XX=           -283.1990   YY=           -246.2288   ZZ=           -260.8326
   XY=             13.0047   XZ=              1.0034   YZ=              0.2129

 Normal termination of Gaussian 16 at Wed Jul 10 01:03:18 2019.
