 Gaussian 16, Revision A.03,
 Gaussian 16:  ES64L-G16RevA.03 25-Dec-2016

 -------------------------------------
 # td=(NStates=1) CAM-B3LYP/6-31G(d,p)
 -------------------------------------

 --
 TD
 --
 Symbolic Z-matrix:
 Charge =  0 Multiplicity = 1

                         Standard orientation:
 ---------------------------------------------------------------------
 Center     Atomic      Atomic             Coordinates (Angstroms)
 Number     Number       Type             X           Y           Z
 ---------------------------------------------------------------------
      1          8           0       14.659083   -2.252502   -0.454352
      2          8           0      -14.720315    2.014258    0.644422
      3          6           0       11.344235   -1.290083    1.133332
      4          6           0      -12.406740   -0.944804    0.690465
      5          6           0       12.805963   -1.634468    1.070618
      6          6           0      -13.680573   -0.332145    0.704617
      7          6           0       13.193658   -2.051423   -0.423096
      8          6           0      -13.500715    1.314960    0.782479
      9          6           0       10.830285   -0.390756    0.006082
     10          6           0      -11.332056   -0.287170   -0.186978
     11          6           0       13.004399   -0.832692   -1.291989
     12          6           0      -12.685896    1.708021   -0.499048
     13          6           0       11.660907   -0.162489   -1.066997
     14          6           0      -11.572746    0.915490   -0.836762
     15          6           0       11.147208   -0.569265    2.475351
     16          6           0       10.394891   -2.604638    1.152659
     17          6           0      -11.793547   -0.958734    2.254824
     18          6           0      -12.505835   -2.434303    0.304983
     19          6           0        9.585525    0.328637    0.227197
     20          6           0      -10.037912   -1.003392   -0.333978
     21          6           0       11.277054    0.671765   -2.273192
     22          6           0      -10.529438    1.386268   -1.762296
     23          6           0        9.418042    1.652218    0.012260
     24          6           0       -8.795894   -0.518695   -0.223162
     25          6           0        8.145230    2.343483    0.189605
     26          6           0       -7.618630   -1.329148   -0.408847
     27          6           0        8.207493    3.769295    0.642119
     28          6           0       -7.530314   -2.719525   -0.900978
     29          6           0        6.933201    1.723718   -0.012518
     30          6           0       -6.463621   -0.644610   -0.372293
     31          6           0        5.523197    2.272215    0.114785
     32          6           0       -5.108307   -1.139574   -0.502796
     33          6           0        4.487084    1.368602   -0.134207
     34          6           0       -3.983481   -0.388844   -0.240016
     35          6           0        3.025802    1.727468    0.088386
     36          6           0       -2.560782   -0.714104   -0.471167
     37          6           0        2.721342    3.097771    0.656667
     38          6           0       -2.252854   -2.093239   -0.840045
     39          6           0        2.091519    0.868033   -0.237441
     40          6           0       -1.564685    0.105045   -0.104780
     41          6           0        0.704405    1.046880   -0.146511
     42          6           0       -0.204726   -0.022794   -0.295498
     43          1           0       13.260355   -0.797586    1.427277
     44          1           0       13.004592   -2.378622    1.798479
     45          1           0      -14.392117   -0.558368    1.559320
     46          1           0      -14.252263   -0.650018   -0.106963
     47          1           0       12.716561   -3.053892   -0.762100
     48          1           0      -12.815590    1.450898    1.562303
     49          1           0       13.806285    0.036967   -0.696345
     50          1           0       13.292271   -0.948598   -2.340483
     51          1           0      -13.437604    1.526993   -1.393056
     52          1           0      -12.374512    2.722018   -0.357360
     53          1           0       11.650750   -1.012542    3.352736
     54          1           0       10.104291   -0.539625    2.758240
     55          1           0       11.656179    0.368994    2.334221
     56          1           0       10.458265   -3.285880    0.124018
     57          1           0       10.642177   -3.331054    2.010414
     58          1           0        9.389424   -2.391600    1.497077
     59          1           0      -11.392475    0.036396    2.599829
     60          1           0      -10.771659   -1.503713    2.141429
     61          1           0      -12.608506   -1.450679    3.122539
     62          1           0      -13.374212   -3.027719    0.841462
     63          1           0      -11.697691   -3.103111    0.342832
     64          1           0      -12.747114   -2.652854   -0.828251
     65          1           0        8.682961   -0.227410    0.663857
     66          1           0      -10.363857   -2.146788   -0.628056
     67          1           0       10.421289    1.306125   -2.165505
     68          1           0       12.245404    1.255586   -2.615204
     69          1           0       10.945509   -0.021597   -3.210037
     70          1           0      -10.823669    2.636796   -2.342586
     71          1           0      -10.174922    0.480093   -2.422631
     72          1           0       -9.707494    1.897336   -1.349620
     73          1           0       14.927732   -2.836082   -0.024690
     74          1           0      -15.376568    2.095751    1.361748
     75          1           0       10.322703    2.415684   -0.400012
     76          1           0       -8.677634    0.568770    0.042624
     77          1           0        8.978494    4.400357   -0.041422
     78          1           0        7.161202    4.331254    0.489140
     79          1           0        8.500011    3.991047    1.750737
     80          1           0       -7.913959   -3.355014   -0.184244
     81          1           0       -8.368800   -2.837920   -1.728905
     82          1           0       -6.560237   -3.034439   -1.161077
     83          1           0        7.100533    0.531267   -0.310123
     84          1           0       -6.595411    0.365735    0.061840
     85          1           0        5.422476    3.242547    0.291296
     86          1           0       -5.023517   -2.117001   -0.797034
     87          1           0        4.648592    0.386349   -0.481410
     88          1           0       -4.233239    0.478888    0.238147
     89          1           0        3.193792    2.993759    1.824866
     90          1           0        1.694175    3.613292    0.439204
     91          1           0        3.382235    3.943106    0.170517
     92          1           0       -2.710217   -2.708374    0.036159
     93          1           0       -2.562133   -2.382540   -1.751144
     94          1           0       -1.137215   -2.320445   -0.995045
     95          1           0        2.419908   -0.065205   -0.781611
     96          1           0       -2.123406    1.005963    0.186823
     97          1           0        0.328981    1.975969    0.224593
     98          1           0        0.112587   -0.811158   -0.550382
 ---------------------------------------------------------------------

 SCF Done:  E(RCAM-B3LYP) =  -1706.83564308     A.U. after   14 cycles

 Excitation energies and oscillator strengths:

 Excited State   1:      Singlet-A      2.7179 eV  456.17 nm  f=3.6563  <S**2>=0.000
     155 ->158         0.18164
     156 ->157         0.67628
 This state for optimization and/or second-order correction.
 Total Energy, E(TD-HF/TD-DFT) =  -1706.73576132
 Copying the excited state density for this state as the 1-particle RhoCI density.

 The electronic state is 1-A.
 Alpha  occ. eigenvalues --  -19.21688 -19.18080 -10.32186 -10.31010 -10.28740
 Alpha  occ. eigenvalues --  -10.27933 -10.27841 -10.27583 -10.27492 -10.27366
 Alpha  occ. eigenvalues --  -10.27341 -10.27340 -10.27312 -10.27206 -10.27167
 Alpha  occ. eigenvalues --  -10.27069 -10.27037 -10.26929 -10.26891 -10.26761
 Alpha  occ. eigenvalues --  -10.26688 -10.26687 -10.26634 -10.26391 -10.26281
 Alpha  occ. eigenvalues --  -10.26147 -10.25960 -10.25936 -10.25897 -10.25871
 Alpha  occ. eigenvalues --  -10.25586 -10.25578 -10.25565 -10.25474 -10.25240
 Alpha  occ. eigenvalues --  -10.25071 -10.25029 -10.24854 -10.24684 -10.24240
 Alpha  occ. eigenvalues --  -10.24057 -10.24032  -1.11626  -1.08896  -0.93748
 Alpha  occ. eigenvalues --   -0.93560  -0.92709  -0.91823  -0.90949  -0.89847
 Alpha  occ. eigenvalues --   -0.87385  -0.87043  -0.86563  -0.85534  -0.84720
 Alpha  occ. eigenvalues --   -0.83246  -0.81851  -0.79758  -0.79586  -0.77847
 Alpha  occ. eigenvalues --   -0.76986  -0.75678  -0.75619  -0.75312  -0.75255
 Alpha  occ. eigenvalues --   -0.74713  -0.74499  -0.73720  -0.73170  -0.71068
 Alpha  occ. eigenvalues --   -0.69753  -0.68656  -0.66885  -0.65486  -0.63881
 Alpha  occ. eigenvalues --   -0.63154  -0.63024  -0.62515  -0.61521  -0.60212
 Alpha  occ. eigenvalues --   -0.59680  -0.58760  -0.58550  -0.57284  -0.56234
 Alpha  occ. eigenvalues --   -0.55364  -0.55001  -0.54837  -0.54606  -0.54223
 Alpha  occ. eigenvalues --   -0.53084  -0.52787  -0.51961  -0.51449  -0.51057
 Alpha  occ. eigenvalues --   -0.50938  -0.50401  -0.49770  -0.49483  -0.49102
 Alpha  occ. eigenvalues --   -0.48770  -0.48267  -0.48146  -0.47745  -0.47546
 Alpha  occ. eigenvalues --   -0.47283  -0.46933  -0.46369  -0.46252  -0.45564
 Alpha  occ. eigenvalues --   -0.45335  -0.45124  -0.44869  -0.44762  -0.44478
 Alpha  occ. eigenvalues --   -0.44293  -0.43961  -0.43504  -0.43327  -0.43154
 Alpha  occ. eigenvalues --   -0.42539  -0.42324  -0.42002  -0.41748  -0.41595
 Alpha  occ. eigenvalues --   -0.41492  -0.41411  -0.41078  -0.40986  -0.40558
 Alpha  occ. eigenvalues --   -0.40437  -0.39738  -0.39582  -0.39505  -0.39325
 Alpha  occ. eigenvalues --   -0.38853  -0.38572  -0.38091  -0.37795  -0.37609
 Alpha  occ. eigenvalues --   -0.37281  -0.37233  -0.36825  -0.36485  -0.36104
 Alpha  occ. eigenvalues --   -0.35275  -0.34732  -0.33906  -0.32577  -0.31973
 Alpha  occ. eigenvalues --   -0.30979  -0.28960  -0.27439  -0.25504  -0.23763
 Alpha  occ. eigenvalues --   -0.20837
 Alpha virt. eigenvalues --   -0.04396  -0.00403   0.02310   0.05344   0.07137
 Alpha virt. eigenvalues --    0.09547   0.10758   0.11123   0.11830   0.12329
 Alpha virt. eigenvalues --    0.12359   0.12626   0.12793   0.12867   0.13403

 Mulliken charges:
               1
     1  O   -0.519064
     2  O   -0.573260
     3  C   -0.027676
     4  C    0.033856
     5  C   -0.176878
     6  C   -0.194224
     7  C    0.147816
     8  C    0.174422
     9  C    0.088486
    10  C    0.026481
    11  C   -0.192974
    12  C   -0.226614
    13  C    0.052501
    14  C    0.106459
    15  C   -0.312164
    16  C   -0.308387
    17  C   -0.296231
    18  C   -0.326285
    19  C   -0.133242
    20  C   -0.153856
    21  C   -0.353391
    22  C   -0.348262
    23  C   -0.094446
    24  C   -0.088858
    25  C    0.094061
    26  C    0.139282
    27  C   -0.358987
    28  C   -0.368023
    29  C   -0.124053
    30  C   -0.139961
    31  C   -0.073812
    32  C   -0.080693
    33  C   -0.099779
    34  C   -0.117692
    35  C    0.120926
    36  C    0.101525
    37  C   -0.367422
    38  C   -0.373584
    39  C   -0.121888
    40  C   -0.103962
    41  C   -0.089176
    42  C   -0.015475
    43  H    0.108251
    44  H    0.093877
    45  H    0.075207
    46  H    0.101257
    47  H    0.090020
    48  H    0.095612
    49  H    0.090947
    50  H    0.119770
    51  H    0.114229
    52  H    0.109980
    53  H    0.093591
    54  H    0.103978
    55  H    0.112158
    56  H    0.081111
    57  H    0.083390
    58  H    0.105957
    59  H    0.098288
    60  H    0.098246
    61  H    0.070523
    62  H    0.086256
    63  H    0.117991
    64  H    0.082471
    65  H    0.098131
    66  H    0.073534
    67  H    0.124820
    68  H    0.095993
    69  H    0.091023
    70  H    0.024333
    71  H    0.128414
    72  H    0.136073
    73  H    0.245789
    74  H    0.311918
    75  H    0.085773
    76  H    0.098938
    77  H    0.091937
    78  H    0.090682
    79  H    0.119179
    80  H    0.130295
    81  H    0.101814
    82  H    0.120299
    83  H    0.065103
    84  H    0.066128
    85  H    0.083840
    86  H    0.072470
    87  H    0.090631
    88  H    0.075489
    89  H    0.105995
    90  H    0.115145
    91  H    0.104639
    92  H    0.114772
    93  H    0.127504
    94  H    0.094724
    95  H    0.077794
    96  H    0.067104
    97  H    0.081473
    98  H    0.029638
 Sum of Mulliken charges =  -0.00000

 Dipole moment (field-independent basis, Debye):
    X=             -0.6941    Y=             -0.9367    Z=              2.1385  Tot=              2.4357
 Quadrupole moment (field-independent basis, Debye-Ang):
   XX=           -269.7138   YY=           -244.2194   ZZ=           -262.8680
   XY=             -1.0762   XZ=             -7.9440   YZ=              5.7890

 Normal termination of Gaussian 16 at Sat Jul  6 13:43:01 2019.
