 Gaussian 16, Revision A.03,
 Gaussian 16:  ES64L-G16RevA.03 25-Dec-2016

 -------------------------------------
 # td=(NStates=1) CAM-B3LYP/6-31G(d,p)
 -------------------------------------

 --
 TD
 --
 Symbolic Z-matrix:
 Charge =  0 Multiplicity = 1

                         Standard orientation:
 ---------------------------------------------------------------------
 Center     Atomic      Atomic             Coordinates (Angstroms)
 Number     Number       Type             X           Y           Z
 ---------------------------------------------------------------------
      1          8           0       14.732269   -2.150097   -0.477361
      2          8           0      -14.832015    2.031329    0.709292
      3          6           0       11.552143   -1.103483    1.217067
      4          6           0      -12.455470   -0.915110    0.844806
      5          6           0       13.075288   -1.394546    1.049425
      6          6           0      -13.793986   -0.263454    0.631040
      7          6           0       13.429363   -1.788493   -0.397787
      8          6           0      -13.638234    1.287585    0.712657
      9          6           0       11.072982   -0.333904    0.027554
     10          6           0      -11.425734   -0.223830   -0.120059
     11          6           0       13.099725   -0.803686   -1.387745
     12          6           0      -12.770753    1.747314   -0.506417
     13          6           0       11.727989   -0.200286   -1.184930
     14          6           0      -11.624228    0.935447   -0.735167
     15          6           0       11.458037   -0.294895    2.530679
     16          6           0       10.762968   -2.417182    1.362039
     17          6           0      -11.772102   -0.979443    2.170981
     18          6           0      -12.595067   -2.409968    0.417315
     19          6           0        9.807910    0.301941    0.257252
     20          6           0      -10.103218   -1.100549   -0.313322
     21          6           0       11.335528    0.766437   -2.278631
     22          6           0      -10.676407    1.597913   -1.710663
     23          6           0        9.387556    1.606546    0.085203
     24          6           0       -8.887195   -0.560857   -0.203317
     25          6           0        8.049760    2.199278    0.253662
     26          6           0       -7.698475   -1.280616   -0.384250
     27          6           0        7.998572    3.647719    0.417418
     28          6           0       -7.597738   -2.754819   -0.789889
     29          6           0        6.897120    1.478346    0.154566
     30          6           0       -6.538117   -0.538143   -0.344519
     31          6           0        5.597455    1.940590    0.115833
     32          6           0       -5.173280   -1.115133   -0.608085
     33          6           0        4.460159    1.198958   -0.077354
     34          6           0       -4.090748   -0.425944   -0.341697
     35          6           0        3.081288    1.641966    0.061605
     36          6           0       -2.660081   -0.834256   -0.511295
     37          6           0        2.836662    3.079086    0.704515
     38          6           0       -2.348262   -2.220134   -1.031292
     39          6           0        2.080043    0.709931   -0.278548
     40          6           0       -1.731809    0.079919   -0.211915
     41          6           0        0.612705    0.848471   -0.127280
     42          6           0       -0.206197   -0.160000   -0.438556
     43          1           0       13.783451   -0.574857    1.353799
     44          1           0       13.356964   -2.207347    1.714306
     45          1           0      -14.560894   -0.588770    1.430724
     46          1           0      -14.244550   -0.463947   -0.322564
     47          1           0       12.404036   -2.756623   -0.480139
     48          1           0      -12.951516    1.479304    1.559188
     49          1           0       13.965320   -0.140694   -1.290178
     50          1           0       13.090111   -1.323751   -2.420631
     51          1           0      -13.337243    1.732529   -1.473909
     52          1           0      -12.612284    2.933962   -0.656904
     53          1           0       11.949412   -0.778762    3.190571
     54          1           0       10.441626   -0.329511    2.889263
     55          1           0       11.811252    0.637312    2.396358
     56          1           0       10.644349   -2.936428    0.269088
     57          1           0       11.337909   -3.004138    2.171376
     58          1           0        9.658465   -2.351764    1.746181
     59          1           0      -11.640845    0.175906    2.690156
     60          1           0      -10.716055   -1.491977    2.304302
     61          1           0      -12.248412   -1.227559    3.183807
     62          1           0      -13.561179   -2.833429    0.846698
     63          1           0      -11.786898   -3.055828    0.775082
     64          1           0      -12.893059   -2.467369   -0.589224
     65          1           0        9.137393   -0.230134    0.851607
     66          1           0      -10.502082   -2.146949   -0.616299
     67          1           0       10.145658    1.004950   -2.273789
     68          1           0       12.065735    1.656668   -2.434162
     69          1           0       11.211086    0.059828   -3.109455
     70          1           0      -11.348514    2.106497   -2.581645
     71          1           0       -9.877260    0.899555   -2.129951
     72          1           0      -10.188427    2.399819   -1.219951
     73          1           0       14.769840   -3.244162   -0.213152
     74          1           0      -15.245135    1.810210    1.729384
     75          1           0       10.071990    2.506508   -0.286054
     76          1           0       -8.720788    0.403124    0.032971
     77          1           0        8.247940    4.280990   -0.448386
     78          1           0        6.968969    4.099124    0.851707
     79          1           0        8.844743    3.872513    1.121774
     80          1           0       -7.998148   -3.420115   -0.003430
     81          1           0       -8.426621   -2.593505   -1.707215
     82          1           0       -6.622096   -2.963800   -1.206379
     83          1           0        7.045090    0.395672   -0.074853
     84          1           0       -6.672143    0.471328   -0.188552
     85          1           0        5.324757    3.084959    0.423054
     86          1           0       -5.123071   -2.195245   -0.947775
     87          1           0        4.696550    0.187236   -0.476378
     88          1           0       -4.265206    0.528679    0.066940
     89          1           0        3.485480    2.982349    1.538518
     90          1           0        1.731719    2.982948    0.765988
     91          1           0        3.182550    3.962929   -0.102413
     92          1           0       -2.671640   -3.130530   -0.511549
     93          1           0       -2.978067   -2.217509   -2.012725
     94          1           0       -1.270937   -2.401891   -1.182863
     95          1           0        2.378469   -0.159097   -0.608219
     96          1           0       -2.125693    1.070054    0.114462
     97          1           0        0.222641    1.884005    0.140126
     98          1           0        0.196300   -1.115413   -0.629536
 ---------------------------------------------------------------------

 SCF Done:  E(RCAM-B3LYP) =  -1706.93787053     A.U. after   14 cycles

 Excitation energies and oscillator strengths:

 Excited State   1:      Singlet-A      2.9078 eV  426.38 nm  f=3.2123  <S**2>=0.000
     155 ->158         0.17320
     156 ->157         0.67445
 This state for optimization and/or second-order correction.
 Total Energy, E(TD-HF/TD-DFT) =  -1706.83100994
 Copying the excited state density for this state as the 1-particle RhoCI density.

 The electronic state is 1-A.
 Alpha  occ. eigenvalues --  -19.23603 -19.23045 -10.31563 -10.30608 -10.28068
 Alpha  occ. eigenvalues --  -10.28005 -10.27386 -10.27237 -10.27202 -10.27201
 Alpha  occ. eigenvalues --  -10.27115 -10.27049 -10.26933 -10.26863 -10.26853
 Alpha  occ. eigenvalues --  -10.26771 -10.26733 -10.26717 -10.26651 -10.26500
 Alpha  occ. eigenvalues --  -10.26375 -10.26306 -10.26304 -10.26203 -10.26112
 Alpha  occ. eigenvalues --  -10.25993 -10.25823 -10.25766 -10.25662 -10.25598
 Alpha  occ. eigenvalues --  -10.25563 -10.25541 -10.25503 -10.25318 -10.25314
 Alpha  occ. eigenvalues --  -10.25295 -10.25270 -10.25175 -10.24820 -10.24673
 Alpha  occ. eigenvalues --  -10.24531 -10.21907  -1.10749  -1.08129  -0.93723
 Alpha  occ. eigenvalues --   -0.93584  -0.91655  -0.91315  -0.90452  -0.89364
 Alpha  occ. eigenvalues --   -0.87602  -0.87250  -0.86750  -0.85075  -0.84186
 Alpha  occ. eigenvalues --   -0.82406  -0.81584  -0.79650  -0.79404  -0.77257
 Alpha  occ. eigenvalues --   -0.77218  -0.76242  -0.75789  -0.75631  -0.75496
 Alpha  occ. eigenvalues --   -0.75085  -0.74935  -0.74692  -0.73922  -0.69360
 Alpha  occ. eigenvalues --   -0.68243  -0.66494  -0.65341  -0.64155  -0.63742
 Alpha  occ. eigenvalues --   -0.63358  -0.62345  -0.62118  -0.60294  -0.59219
 Alpha  occ. eigenvalues --   -0.58661  -0.58339  -0.58261  -0.57704  -0.55866
 Alpha  occ. eigenvalues --   -0.55150  -0.54537  -0.54518  -0.54019  -0.53677
 Alpha  occ. eigenvalues --   -0.53299  -0.52597  -0.52009  -0.51540  -0.51033
 Alpha  occ. eigenvalues --   -0.50839  -0.49964  -0.49575  -0.49294  -0.49196
 Alpha  occ. eigenvalues --   -0.48984  -0.48418  -0.48217  -0.48073  -0.47851
 Alpha  occ. eigenvalues --   -0.47396  -0.47164  -0.46893  -0.46345  -0.46223
 Alpha  occ. eigenvalues --   -0.45862  -0.45546  -0.45273  -0.44962  -0.44893
 Alpha  occ. eigenvalues --   -0.44857  -0.44639  -0.44063  -0.44025  -0.43605
 Alpha  occ. eigenvalues --   -0.43183  -0.42619  -0.42575  -0.42522  -0.41900
 Alpha  occ. eigenvalues --   -0.41607  -0.41333  -0.41151  -0.40979  -0.40691
 Alpha  occ. eigenvalues --   -0.40347  -0.39948  -0.39833  -0.39324  -0.39173
 Alpha  occ. eigenvalues --   -0.38988  -0.38614  -0.38227  -0.37896  -0.37620
 Alpha  occ. eigenvalues --   -0.37176  -0.36851  -0.36659  -0.35862  -0.35151
 Alpha  occ. eigenvalues --   -0.34579  -0.33963  -0.33768  -0.31902  -0.31541
 Alpha  occ. eigenvalues --   -0.29999  -0.29350  -0.27926  -0.26313  -0.23575
 Alpha  occ. eigenvalues --   -0.20958
 Alpha virt. eigenvalues --   -0.03442  -0.00073   0.02950   0.06129   0.07057
 Alpha virt. eigenvalues --    0.08393   0.08748   0.09695   0.11130   0.11782
 Alpha virt. eigenvalues --    0.11927   0.12689   0.13074   0.13577   0.13976

 Mulliken charges:
               1
     1  O   -0.550761
     2  O   -0.554008
     3  C   -0.044246
     4  C    0.022319
     5  C   -0.163962
     6  C   -0.199066
     7  C    0.186129
     8  C    0.164936
     9  C    0.094127
    10  C   -0.002583
    11  C   -0.185326
    12  C   -0.255096
    13  C    0.029919
    14  C    0.124106
    15  C   -0.278802
    16  C   -0.289950
    17  C   -0.301670
    18  C   -0.321755
    19  C   -0.140698
    20  C   -0.166108
    21  C   -0.354847
    22  C   -0.360435
    23  C   -0.103689
    24  C   -0.060300
    25  C    0.114507
    26  C    0.108698
    27  C   -0.383022
    28  C   -0.341122
    29  C   -0.119678
    30  C   -0.143085
    31  C   -0.079151
    32  C   -0.096501
    33  C   -0.111164
    34  C   -0.103359
    35  C    0.054013
    36  C    0.132439
    37  C   -0.339621
    38  C   -0.370692
    39  C   -0.106544
    40  C   -0.152701
    41  C   -0.069958
    42  C   -0.101171
    43  H    0.087635
    44  H    0.076883
    45  H    0.071808
    46  H    0.116200
    47  H   -0.025682
    48  H    0.086806
    49  H    0.116137
    50  H    0.101903
    51  H    0.110915
    52  H    0.095291
    53  H    0.106145
    54  H    0.092896
    55  H    0.116931
    56  H    0.099203
    57  H    0.093994
    58  H    0.094921
    59  H    0.050944
    60  H    0.119366
    61  H    0.097822
    62  H    0.090522
    63  H    0.110589
    64  H    0.112457
    65  H    0.088171
    66  H    0.107945
    67  H    0.104841
    68  H    0.119491
    69  H    0.112021
    70  H    0.080629
    71  H    0.113391
    72  H    0.126379
    73  H    0.329506
    74  H    0.303925
    75  H    0.077585
    76  H    0.088535
    77  H    0.125636
    78  H    0.101506
    79  H    0.110142
    80  H    0.123387
    81  H    0.092253
    82  H    0.115960
    83  H    0.077583
    84  H    0.074012
    85  H    0.060211
    86  H    0.078043
    87  H    0.074374
    88  H    0.076745
    89  H    0.141808
    90  H    0.111241
    91  H    0.103685
    92  H    0.122957
    93  H    0.109762
    94  H    0.108351
    95  H    0.067668
    96  H    0.086626
    97  H    0.085885
    98  H    0.095936
 Sum of Mulliken charges =  -0.00000

 Dipole moment (field-independent basis, Debye):
    X=              0.4736    Y=             -1.9868    Z=              1.6690  Tot=              2.6377
 Quadrupole moment (field-independent basis, Debye-Ang):
   XX=           -258.2800   YY=           -245.1856   ZZ=           -261.1756
   XY=              1.4442   XZ=             -9.8628   YZ=              1.2916

 Normal termination of Gaussian 16 at Thu Jul  4 03:34:19 2019.
