 Gaussian 16, Revision A.03,
 Gaussian 16:  ES64L-G16RevA.03 25-Dec-2016

 -------------------------------------
 # td=(NStates=1) CAM-B3LYP/6-31G(d,p)
 -------------------------------------

 --
 TD
 --
 Symbolic Z-matrix:
 Charge =  0 Multiplicity = 1

                         Standard orientation:
 ---------------------------------------------------------------------
 Center     Atomic      Atomic             Coordinates (Angstroms)
 Number     Number       Type             X           Y           Z
 ---------------------------------------------------------------------
      1          8           0       14.669622   -2.292582   -0.232244
      2          8           0      -14.699309    2.041827    0.879757
      3          6           0       11.405074   -1.062838    1.233164
      4          6           0      -12.434544   -0.989817    0.750840
      5          6           0       12.880236   -1.522785    1.179434
      6          6           0      -13.709236   -0.205275    0.726234
      7          6           0       13.218121   -1.986072   -0.262149
      8          6           0      -13.417809    1.244761    0.779648
      9          6           0       11.033054   -0.303461    0.009193
     10          6           0      -11.229746   -0.281748   -0.083669
     11          6           0       13.059139   -0.971148   -1.248347
     12          6           0      -12.740306    1.757476   -0.455296
     13          6           0       11.719808   -0.248698   -1.055016
     14          6           0      -11.453660    0.949730   -0.685013
     15          6           0       11.195656   -0.186399    2.544277
     16          6           0       10.461432   -2.350582    1.408035
     17          6           0      -11.790630   -1.129694    2.267994
     18          6           0      -12.614685   -2.505375    0.197085
     19          6           0        9.670690    0.304699   -0.013313
     20          6           0      -10.083254   -1.152558   -0.281039
     21          6           0       11.254075    0.441853   -2.312855
     22          6           0      -10.685073    1.598579   -1.776184
     23          6           0        9.401264    1.699745   -0.113438
     24          6           0       -8.797351   -0.512779   -0.279658
     25          6           0        8.029225    2.270011    0.030759
     26          6           0       -7.525403   -1.298214   -0.355451
     27          6           0        8.118506    3.700711    0.496185
     28          6           0       -7.658829   -2.785643   -0.712378
     29          6           0        6.890002    1.666176   -0.163620
     30          6           0       -6.368980   -0.550936   -0.347809
     31          6           0        5.542402    2.070095    0.107741
     32          6           0       -5.137825   -1.111265   -0.708613
     33          6           0        4.530362    1.251742   -0.234485
     34          6           0       -3.979125   -0.373897   -0.470739
     35          6           0        3.099689    1.684491    0.085090
     36          6           0       -2.582196   -0.719751   -0.627468
     37          6           0        2.804503    3.030055    0.681786
     38          6           0       -2.316105   -2.167596   -1.112433
     39          6           0        2.128336    0.813974   -0.213155
     40          6           0       -1.713110    0.131190   -0.178157
     41          6           0        0.625246    0.955916   -0.061507
     42          6           0       -0.241289   -0.045528   -0.354337
     43          1           0       13.457629   -0.652145    1.346664
     44          1           0       13.274897   -2.316593    1.898072
     45          1           0      -14.517305   -0.270210    1.627574
     46          1           0      -14.466084   -0.334654   -0.194318
     47          1           0       12.633955   -2.848849   -0.613465
     48          1           0      -12.911695    1.456983    1.737693
     49          1           0       13.997479   -0.200521   -1.190809
     50          1           0       13.021169   -1.496696   -2.374036
     51          1           0      -13.377970    1.689059   -1.467492
     52          1           0      -12.416795    2.871497   -0.295919
     53          1           0       11.434366   -0.929458    3.435325
     54          1           0       10.159105    0.141326    2.678406
     55          1           0       11.792347    0.682704    2.468700
     56          1           0       10.528236   -3.079942    0.568009
     57          1           0       10.743294   -3.141468    2.272899
     58          1           0        9.352864   -2.119152    1.499888
     59          1           0      -11.823490    0.047365    2.624318
     60          1           0      -10.767229   -1.287336    2.085325
     61          1           0      -12.333120   -1.698190    2.931438
     62          1           0      -13.567289   -2.826325    0.676282
     63          1           0      -11.851249   -3.156387    0.612178
     64          1           0      -12.955223   -2.466184   -0.924212
     65          1           0        8.875504   -0.282864    0.488890
     66          1           0       -9.977562   -2.098992   -0.593373
     67          1           0       10.124097    0.662114   -2.626426
     68          1           0       11.704578    1.446485   -2.505429
     69          1           0       11.436052   -0.134420   -3.161047
     70          1           0      -11.365233    2.182204   -2.321204
     71          1           0       -9.874120    0.918905   -2.275388
     72          1           0      -10.183926    2.391294   -1.054547
     73          1           0       14.678813   -2.895104    0.517126
     74          1           0      -15.013676    1.538266    1.691709
     75          1           0       10.121486    2.439976   -0.370351
     76          1           0       -8.773979    0.680113   -0.371313
     77          1           0        8.936623    4.235213   -0.170696
     78          1           0        6.975681    4.298380    0.382963
     79          1           0        8.310257    3.709455    1.612018
     80          1           0       -8.409380   -3.219669   -0.128555
     81          1           0       -8.050554   -2.737786   -1.910182
     82          1           0       -6.675143   -3.195025   -0.598925
     83          1           0        6.986895    0.719545   -0.461583
     84          1           0       -6.431240    0.467856   -0.193851
     85          1           0        5.316606    2.981055    0.320713
     86          1           0       -5.151686   -2.180605   -1.000047
     87          1           0        4.910884    0.264737   -0.719524
     88          1           0       -4.159468    0.672581   -0.116928
     89          1           0        3.869396    3.051873    1.413730
     90          1           0        1.736254    3.122146    1.277061
     91          1           0        2.869016    3.946866   -0.233798
     92          1           0       -2.667506   -2.829775   -0.277708
     93          1           0       -3.045002   -2.279502   -1.997037
     94          1           0       -1.249690   -2.404150   -1.343647
     95          1           0        2.724379   -0.063633   -0.700895
     96          1           0       -1.752088    1.121869    0.439173
     97          1           0        0.332059    1.770999    0.786530
     98          1           0        0.175309   -1.014068   -0.728102
 ---------------------------------------------------------------------

 SCF Done:  E(RCAM-B3LYP) =  -1706.90290983     A.U. after   14 cycles

 Excitation energies and oscillator strengths:

 Excited State   1:      Singlet-A      2.9209 eV  424.47 nm  f=3.3411  <S**2>=0.000
     155 ->158         0.19725
     156 ->157         0.66614
 This state for optimization and/or second-order correction.
 Total Energy, E(TD-HF/TD-DFT) =  -1706.79556778
 Copying the excited state density for this state as the 1-particle RhoCI density.

 The electronic state is 1-A.
 Alpha  occ. eigenvalues --  -19.20664 -19.20539 -10.30205 -10.30099 -10.30094
 Alpha  occ. eigenvalues --  -10.29025 -10.28665 -10.28398 -10.28070 -10.27691
 Alpha  occ. eigenvalues --  -10.27590 -10.27564 -10.27516 -10.27444 -10.27407
 Alpha  occ. eigenvalues --  -10.27371 -10.27291 -10.27287 -10.27282 -10.27197
 Alpha  occ. eigenvalues --  -10.27190 -10.27104 -10.27066 -10.26964 -10.26948
 Alpha  occ. eigenvalues --  -10.26902 -10.26677 -10.26664 -10.26656 -10.26241
 Alpha  occ. eigenvalues --  -10.26222 -10.26171 -10.26077 -10.26034 -10.25829
 Alpha  occ. eigenvalues --  -10.25446 -10.25438 -10.25383 -10.25139 -10.24926
 Alpha  occ. eigenvalues --  -10.24444 -10.23753  -1.08232  -1.06503  -0.94650
 Alpha  occ. eigenvalues --   -0.92719  -0.92256  -0.91925  -0.90493  -0.89651
 Alpha  occ. eigenvalues --   -0.86839  -0.86612  -0.86487  -0.85730  -0.84859
 Alpha  occ. eigenvalues --   -0.83411  -0.82155  -0.79678  -0.79142  -0.77209
 Alpha  occ. eigenvalues --   -0.76556  -0.76107  -0.75731  -0.75448  -0.75281
 Alpha  occ. eigenvalues --   -0.75209  -0.75115  -0.74599  -0.73833  -0.70009
 Alpha  occ. eigenvalues --   -0.68517  -0.66514  -0.65102  -0.64867  -0.64200
 Alpha  occ. eigenvalues --   -0.63660  -0.62493  -0.61890  -0.61008  -0.60260
 Alpha  occ. eigenvalues --   -0.59074  -0.58467  -0.58394  -0.56156  -0.55380
 Alpha  occ. eigenvalues --   -0.54998  -0.54523  -0.54390  -0.53900  -0.53127
 Alpha  occ. eigenvalues --   -0.52644  -0.51797  -0.51541  -0.50592  -0.50356
 Alpha  occ. eigenvalues --   -0.50236  -0.49663  -0.49619  -0.49323  -0.48880
 Alpha  occ. eigenvalues --   -0.48645  -0.48546  -0.48205  -0.48122  -0.47921
 Alpha  occ. eigenvalues --   -0.47841  -0.47476  -0.47169  -0.46673  -0.46389
 Alpha  occ. eigenvalues --   -0.46174  -0.45710  -0.45406  -0.45273  -0.44787
 Alpha  occ. eigenvalues --   -0.44502  -0.44372  -0.43988  -0.43877  -0.43615
 Alpha  occ. eigenvalues --   -0.43136  -0.42486  -0.42215  -0.42175  -0.41755
 Alpha  occ. eigenvalues --   -0.41672  -0.41133  -0.41021  -0.40700  -0.40555
 Alpha  occ. eigenvalues --   -0.40251  -0.40202  -0.39802  -0.39573  -0.39505
 Alpha  occ. eigenvalues --   -0.39282  -0.39001  -0.38391  -0.38269  -0.37969
 Alpha  occ. eigenvalues --   -0.37494  -0.37210  -0.36963  -0.36713  -0.36474
 Alpha  occ. eigenvalues --   -0.34830  -0.34321  -0.33409  -0.32543  -0.32175
 Alpha  occ. eigenvalues --   -0.31827  -0.30412  -0.28571  -0.26544  -0.23786
 Alpha  occ. eigenvalues --   -0.21378
 Alpha virt. eigenvalues --   -0.03822  -0.00738   0.02390   0.05572   0.07574
 Alpha virt. eigenvalues --    0.08995   0.09311   0.10196   0.10348   0.11154
 Alpha virt. eigenvalues --    0.11414   0.12256   0.12541   0.12867   0.13147

 Mulliken charges:
               1
     1  O   -0.561049
     2  O   -0.568996
     3  C   -0.035983
     4  C    0.001812
     5  C   -0.193021
     6  C   -0.176279
     7  C    0.154178
     8  C    0.131794
     9  C    0.103042
    10  C    0.042818
    11  C   -0.205456
    12  C   -0.208567
    13  C    0.051902
    14  C    0.038269
    15  C   -0.292292
    16  C   -0.312358
    17  C   -0.304930
    18  C   -0.315377
    19  C   -0.142530
    20  C   -0.141464
    21  C   -0.368757
    22  C   -0.342390
    23  C   -0.082761
    24  C   -0.114394
    25  C    0.078546
    26  C    0.054556
    27  C   -0.353741
    28  C   -0.348410
    29  C   -0.107412
    30  C   -0.081402
    31  C   -0.046635
    32  C   -0.098502
    33  C   -0.111992
    34  C   -0.122496
    35  C    0.101941
    36  C    0.106009
    37  C   -0.332415
    38  C   -0.358511
    39  C   -0.123307
    40  C   -0.121648
    41  C   -0.119684
    42  C   -0.070544
    43  H    0.116720
    44  H    0.079552
    45  H    0.052376
    46  H    0.097342
    47  H    0.094253
    48  H    0.100900
    49  H    0.111215
    50  H    0.087329
    51  H    0.113229
    52  H    0.103122
    53  H    0.087442
    54  H    0.108066
    55  H    0.109188
    56  H    0.100916
    57  H    0.083120
    58  H    0.102330
    59  H    0.065433
    60  H    0.126412
    61  H    0.111309
    62  H    0.100273
    63  H    0.111959
    64  H    0.103603
    65  H    0.092900
    66  H    0.097854
    67  H    0.102018
    68  H    0.111724
    69  H    0.110651
    70  H    0.123019
    71  H    0.119480
    72  H    0.102974
    73  H    0.297150
    74  H    0.293377
    75  H    0.089604
    76  H    0.084601
    77  H    0.102505
    78  H    0.071687
    79  H    0.127905
    80  H    0.132476
    81  H    0.103512
    82  H    0.112838
    83  H    0.055539
    84  H    0.084455
    85  H    0.072649
    86  H    0.082795
    87  H    0.095472
    88  H    0.083179
    89  H    0.086797
    90  H    0.104148
    91  H    0.096872
    92  H    0.131433
    93  H    0.117058
    94  H    0.113432
    95  H    0.071016
    96  H    0.091892
    97  H    0.078862
    98  H    0.090471
 Sum of Mulliken charges =  -0.00000

 Dipole moment (field-independent basis, Debye):
    X=              0.2710    Y=             -2.4444    Z=              1.2426  Tot=              2.7555
 Quadrupole moment (field-independent basis, Debye-Ang):
   XX=           -317.4198   YY=           -251.7611   ZZ=           -260.6735
   XY=             20.6595   XZ=              8.1562   YZ=             -0.8717

 Normal termination of Gaussian 16 at Mon Jul  1 07:24:47 2019.
