 Gaussian 16, Revision A.03,
 Gaussian 16:  ES64L-G16RevA.03 25-Dec-2016

 -------------------------------------
 # td=(NStates=1) CAM-B3LYP/6-31G(d,p)
 -------------------------------------

 --
 TD
 --
 Symbolic Z-matrix:
 Charge =  0 Multiplicity = 1

                         Standard orientation:
 ---------------------------------------------------------------------
 Center     Atomic      Atomic             Coordinates (Angstroms)
 Number     Number       Type             X           Y           Z
 ---------------------------------------------------------------------
      1          8           0       14.747029   -2.206790   -0.262865
      2          8           0      -14.837552    1.994595    0.532196
      3          6           0       11.432456   -1.000844    1.137025
      4          6           0      -12.349728   -0.779492    0.768070
      5          6           0       12.983394   -1.324178    1.065665
      6          6           0      -13.743656   -0.124646    0.614100
      7          6           0       13.439983   -1.783295   -0.256354
      8          6           0      -13.558449    1.325971    0.674427
      9          6           0       11.033567   -0.258692   -0.100375
     10          6           0      -11.378122   -0.246835   -0.287343
     11          6           0       13.079321   -0.811160   -1.333319
     12          6           0      -12.848279    1.740198   -0.573283
     13          6           0       11.750885   -0.145084   -1.249322
     14          6           0      -11.640521    0.905804   -0.818283
     15          6           0       11.220166   -0.187737    2.348622
     16          6           0       10.767301   -2.429960    1.221138
     17          6           0      -11.714489   -0.782989    2.119941
     18          6           0      -12.635418   -2.373058    0.473056
     19          6           0        9.731402    0.292637    0.096617
     20          6           0      -10.038347   -1.086822   -0.477831
     21          6           0       11.332944    0.386452   -2.427698
     22          6           0      -10.666351    1.390879   -1.944034
     23          6           0        9.383344    1.618749   -0.116977
     24          6           0       -8.840345   -0.593937   -0.154205
     25          6           0        8.029852    2.231832    0.056370
     26          6           0       -7.538706   -1.324532   -0.345163
     27          6           0        8.055296    3.730327    0.421370
     28          6           0       -7.746257   -2.622692   -1.039746
     29          6           0        6.942912    1.489703   -0.038719
     30          6           0       -6.495230   -0.647682   -0.033679
     31          6           0        5.537263    1.886845    0.120124
     32          6           0       -5.088160   -1.147434   -0.170003
     33          6           0        4.401456    1.182241   -0.169922
     34          6           0       -3.961930   -0.429411   -0.087521
     35          6           0        2.996606    1.636191    0.049002
     36          6           0       -2.687923   -0.848621   -0.305699
     37          6           0        2.799448    3.015942    0.729310
     38          6           0       -2.271976   -2.296735   -0.845338
     39          6           0        2.004193    0.736180   -0.091355
     40          6           0       -1.631832    0.065834   -0.048578
     41          6           0        0.653016    0.893165    0.024934
     42          6           0       -0.238654   -0.104340   -0.101193
     43          1           0       13.533957   -0.376468    1.342636
     44          1           0       13.346127   -2.056055    1.808603
     45          1           0      -14.262069   -0.507255    1.663499
     46          1           0      -14.230055   -0.602494   -0.218140
     47          1           0       12.729179   -2.650500   -0.445546
     48          1           0      -13.000774    1.619241    1.559838
     49          1           0       13.752037   -0.007911   -1.131696
     50          1           0       13.250177   -1.105896   -2.371863
     51          1           0      -13.543766    1.831728   -1.369752
     52          1           0      -12.546266    2.735279   -0.360052
     53          1           0       11.648421   -0.538631    3.309898
     54          1           0       10.068438   -0.120303    2.730066
     55          1           0       11.448781    0.804817    2.413192
     56          1           0       10.747461   -2.947045    0.306495
     57          1           0       11.159970   -3.214364    1.956384
     58          1           0        9.665402   -2.253295    1.404896
     59          1           0      -11.534571    0.107442    2.467680
     60          1           0      -10.820278   -1.350978    2.109424
     61          1           0      -12.408503   -1.229356    2.683703
     62          1           0      -13.569435   -2.690376    1.111492
     63          1           0      -12.022297   -3.088798    0.730405
     64          1           0      -12.935339   -2.514364   -0.648779
     65          1           0        8.943006   -0.440884    0.182983
     66          1           0      -10.188590   -2.117132   -0.657164
     67          1           0       10.293485    0.708267   -2.718316
     68          1           0       11.916563    1.204591   -2.890875
     69          1           0       11.482566   -0.214755   -3.437120
     70          1           0      -11.182454    1.828644   -2.683633
     71          1           0      -10.178138    0.560982   -2.220228
     72          1           0      -10.012056    2.126768   -1.625398
     73          1           0       15.075153   -2.555404    0.948593
     74          1           0      -15.304797    1.521909    1.195939
     75          1           0       10.306834    2.247967   -0.365788
     76          1           0       -8.715596    0.411281    0.077949
     77          1           0        8.518876    4.315006   -0.309478
     78          1           0        7.128748    4.007624    0.581231
     79          1           0        8.732805    3.913192    1.477947
     80          1           0       -8.209218   -3.260103   -0.401941
     81          1           0       -8.420786   -2.414746   -1.947970
     82          1           0       -6.696382   -3.012517   -1.362434
     83          1           0        7.135940    0.386929   -0.327055
     84          1           0       -6.626482    0.303522    0.340652
     85          1           0        5.405127    2.994572    0.575560
     86          1           0       -5.087106   -2.106709   -0.622892
     87          1           0        4.514755    0.146519   -0.692681
     88          1           0       -4.064212    0.506397    0.304134
     89          1           0        3.432009    2.821096    1.716198
     90          1           0        1.651805    3.053365    1.022345
     91          1           0        3.097353    3.971758    0.131757
     92          1           0       -2.544928   -2.894436    0.067423
     93          1           0       -2.884921   -2.378089   -1.719560
     94          1           0       -1.124088   -2.395559   -1.004482
     95          1           0        2.383502   -0.307501   -0.340260
     96          1           0       -1.919053    1.074440    0.098554
     97          1           0        0.227361    1.912520    0.290817
     98          1           0        0.157918   -1.138997   -0.314834
 ---------------------------------------------------------------------

 SCF Done:  E(RCAM-B3LYP) =  -1706.96440740     A.U. after   14 cycles

 Excitation energies and oscillator strengths:

 Excited State   1:      Singlet-A      2.7282 eV  454.45 nm  f=3.5934  <S**2>=0.000
     155 ->158        -0.14325
     156 ->157         0.68976
 This state for optimization and/or second-order correction.
 Total Energy, E(TD-HF/TD-DFT) =  -1706.86414730
 Copying the excited state density for this state as the 1-particle RhoCI density.

 The electronic state is 1-A.
 Alpha  occ. eigenvalues --  -19.23078 -19.20483 -10.29522 -10.29473 -10.28293
 Alpha  occ. eigenvalues --  -10.28006 -10.27807 -10.27774 -10.27531 -10.27419
 Alpha  occ. eigenvalues --  -10.27415 -10.27179 -10.26970 -10.26636 -10.26468
 Alpha  occ. eigenvalues --  -10.26392 -10.26359 -10.26282 -10.26248 -10.26050
 Alpha  occ. eigenvalues --  -10.26042 -10.25969 -10.25908 -10.25877 -10.25850
 Alpha  occ. eigenvalues --  -10.25681 -10.25534 -10.25484 -10.25460 -10.25453
 Alpha  occ. eigenvalues --  -10.25323 -10.25290 -10.25165 -10.25083 -10.24975
 Alpha  occ. eigenvalues --  -10.24939 -10.24921 -10.24532 -10.24493 -10.23718
 Alpha  occ. eigenvalues --  -10.21542 -10.21482  -1.09606  -1.07628  -0.94751
 Alpha  occ. eigenvalues --   -0.93909  -0.92650  -0.91878  -0.90776  -0.90078
 Alpha  occ. eigenvalues --   -0.88665  -0.87344  -0.86931  -0.85453  -0.85045
 Alpha  occ. eigenvalues --   -0.83234  -0.81817  -0.80583  -0.80012  -0.78285
 Alpha  occ. eigenvalues --   -0.77610  -0.77476  -0.76840  -0.76754  -0.76272
 Alpha  occ. eigenvalues --   -0.76020  -0.75735  -0.74992  -0.74264  -0.71119
 Alpha  occ. eigenvalues --   -0.68573  -0.67258  -0.66005  -0.65574  -0.64817
 Alpha  occ. eigenvalues --   -0.64035  -0.62825  -0.61649  -0.61261  -0.59768
 Alpha  occ. eigenvalues --   -0.59178  -0.58221  -0.57760  -0.57555  -0.55941
 Alpha  occ. eigenvalues --   -0.55741  -0.55405  -0.55076  -0.54760  -0.54213
 Alpha  occ. eigenvalues --   -0.53379  -0.52688  -0.52390  -0.52078  -0.51105
 Alpha  occ. eigenvalues --   -0.50947  -0.50484  -0.50130  -0.49843  -0.49631
 Alpha  occ. eigenvalues --   -0.49590  -0.49095  -0.48847  -0.48572  -0.48473
 Alpha  occ. eigenvalues --   -0.48064  -0.48034  -0.47471  -0.47274  -0.47058
 Alpha  occ. eigenvalues --   -0.46247  -0.45828  -0.45529  -0.45399  -0.45089
 Alpha  occ. eigenvalues --   -0.44775  -0.44606  -0.44264  -0.43858  -0.43551
 Alpha  occ. eigenvalues --   -0.43366  -0.43160  -0.42811  -0.42761  -0.42392
 Alpha  occ. eigenvalues --   -0.42231  -0.41837  -0.41487  -0.40990  -0.40893
 Alpha  occ. eigenvalues --   -0.40817  -0.40628  -0.40394  -0.39606  -0.39397
 Alpha  occ. eigenvalues --   -0.39064  -0.38901  -0.38420  -0.38340  -0.37981
 Alpha  occ. eigenvalues --   -0.37923  -0.37766  -0.37342  -0.36353  -0.35987
 Alpha  occ. eigenvalues --   -0.34426  -0.34274  -0.33473  -0.32603  -0.31751
 Alpha  occ. eigenvalues --   -0.30837  -0.29889  -0.28360  -0.27197  -0.24858
 Alpha  occ. eigenvalues --   -0.20748
 Alpha virt. eigenvalues --   -0.04617   0.00431   0.03175   0.03635   0.06053
 Alpha virt. eigenvalues --    0.07965   0.09955   0.11035   0.11794   0.11917
 Alpha virt. eigenvalues --    0.13095   0.13374   0.13450   0.14145   0.14470

 Mulliken charges:
               1
     1  O   -0.557389
     2  O   -0.557825
     3  C    0.002794
     4  C   -0.045683
     5  C   -0.211171
     6  C   -0.183796
     7  C    0.241219
     8  C    0.147660
     9  C    0.010488
    10  C    0.074162
    11  C   -0.237590
    12  C   -0.210380
    13  C    0.172582
    14  C    0.005317
    15  C   -0.311610
    16  C   -0.311746
    17  C   -0.272995
    18  C   -0.321703
    19  C   -0.111441
    20  C   -0.177319
    21  C   -0.436851
    22  C   -0.349209
    23  C   -0.118366
    24  C   -0.057904
    25  C    0.086532
    26  C    0.130715
    27  C   -0.333880
    28  C   -0.366018
    29  C   -0.111623
    30  C   -0.124383
    31  C   -0.109021
    32  C   -0.121172
    33  C   -0.114028
    34  C   -0.070249
    35  C    0.092996
    36  C    0.073980
    37  C   -0.356474
    38  C   -0.350826
    39  C   -0.110398
    40  C   -0.136681
    41  C   -0.077300
    42  C   -0.071241
    43  H    0.082999
    44  H    0.068534
    45  H    0.048591
    46  H    0.119541
    47  H    0.051252
    48  H    0.094324
    49  H    0.118437
    50  H    0.109421
    51  H    0.131630
    52  H    0.112426
    53  H    0.095258
    54  H    0.078717
    55  H    0.123574
    56  H    0.122231
    57  H    0.100686
    58  H    0.092521
    59  H    0.100103
    60  H    0.111989
    61  H    0.099934
    62  H    0.075844
    63  H    0.109408
    64  H    0.086296
    65  H    0.094678
    66  H    0.091331
    67  H    0.128399
    68  H    0.118941
    69  H    0.096899
    70  H    0.104586
    71  H    0.120203
    72  H    0.108384
    73  H    0.281770
    74  H    0.294661
    75  H    0.081921
    76  H    0.083760
    77  H    0.129455
    78  H    0.114986
    79  H    0.084749
    80  H    0.138043
    81  H    0.124387
    82  H    0.093886
    83  H    0.077179
    84  H    0.074643
    85  H    0.075536
    86  H    0.067138
    87  H    0.080699
    88  H    0.078286
    89  H    0.122235
    90  H    0.095968
    91  H    0.117840
    92  H    0.127414
    93  H    0.131737
    94  H    0.106991
    95  H    0.077615
    96  H    0.073482
    97  H    0.082781
    98  H    0.073526
 Sum of Mulliken charges =  -0.00000

 Dipole moment (field-independent basis, Debye):
    X=              0.5547    Y=             -0.8375    Z=              1.7518  Tot=              2.0194
 Quadrupole moment (field-independent basis, Debye-Ang):
   XX=           -287.6599   YY=           -251.4888   ZZ=           -257.0023
   XY=             25.5482   XZ=              4.3524   YZ=             -1.1182

 Normal termination of Gaussian 16 at Wed Jul 10 19:54:59 2019.
