 Gaussian 16, Revision A.03,
 Gaussian 16:  ES64L-G16RevA.03 25-Dec-2016

 -------------------------------------
 # td=(NStates=1) CAM-B3LYP/6-31G(d,p)
 -------------------------------------

 --
 TD
 --
 Symbolic Z-matrix:
 Charge =  0 Multiplicity = 1

                         Standard orientation:
 ---------------------------------------------------------------------
 Center     Atomic      Atomic             Coordinates (Angstroms)
 Number     Number       Type             X           Y           Z
 ---------------------------------------------------------------------
      1          8           0       14.599043   -2.216089   -0.208754
      2          8           0      -14.827410    1.849837    0.932751
      3          6           0       11.314003   -1.186717    1.182494
      4          6           0      -12.382597   -0.979981    0.737218
      5          6           0       12.744391   -1.422696    1.074269
      6          6           0      -13.739280   -0.267429    0.655923
      7          6           0       13.197747   -2.032555   -0.275880
      8          6           0      -13.604234    1.208093    0.857267
      9          6           0       10.947641   -0.307813   -0.082778
     10          6           0      -11.298795   -0.254087   -0.200080
     11          6           0       13.005340   -0.944494   -1.296128
     12          6           0      -12.857555    1.834593   -0.368311
     13          6           0       11.713091   -0.321249   -1.107461
     14          6           0      -11.506762    1.000903   -0.736262
     15          6           0       11.155795   -0.496210    2.537208
     16          6           0       10.565986   -2.472430    1.198567
     17          6           0      -11.818279   -1.047418    2.144899
     18          6           0      -12.483956   -2.439419    0.193308
     19          6           0        9.604975    0.431157    0.113598
     20          6           0      -10.000787   -1.033849   -0.451113
     21          6           0       11.453002    0.603285   -2.376366
     22          6           0      -10.677723    1.589872   -1.768895
     23          6           0        9.403453    1.718465   -0.177469
     24          6           0       -8.742496   -0.496646   -0.290977
     25          6           0        8.019925    2.323468    0.041711
     26          6           0       -7.573508   -1.249923   -0.475964
     27          6           0        8.111994    3.836170    0.374444
     28          6           0       -7.695301   -2.697091   -0.963766
     29          6           0        6.900188    1.546775    0.020846
     30          6           0       -6.434624   -0.574739   -0.349784
     31          6           0        5.621325    2.083790    0.173553
     32          6           0       -5.065911   -1.197755   -0.572593
     33          6           0        4.517141    1.274834   -0.102349
     34          6           0       -4.010450   -0.327390   -0.330785
     35          6           0        3.118624    1.680649    0.102200
     36          6           0       -2.545953   -0.706910   -0.421751
     37          6           0        2.877910    3.046082    0.742751
     38          6           0       -2.327537   -2.133071   -0.893671
     39          6           0        2.140484    0.819115   -0.181222
     40          6           0       -1.566637    0.184222   -0.063409
     41          6           0        0.697266    0.934214    0.080289
     42          6           0       -0.237748   -0.057788   -0.268292
     43          1           0       13.393105   -0.524143    1.541142
     44          1           0       12.825925   -2.215224    1.921220
     45          1           0      -14.292433   -0.700766    1.596530
     46          1           0      -14.318841   -0.247216   -0.255285
     47          1           0       12.664116   -2.996431   -0.722248
     48          1           0      -12.964663    1.281607    1.649465
     49          1           0       13.755139   -0.224024   -1.175248
     50          1           0       13.143605   -1.164602   -2.212616
     51          1           0      -13.416153    1.957627   -1.373941
     52          1           0      -12.388955    2.854712   -0.441722
     53          1           0       11.136119   -1.162239    3.422927
     54          1           0       10.070408   -0.007643    2.570164
     55          1           0       11.961985    0.339225    2.819587
     56          1           0       10.879788   -3.087415    0.365291
     57          1           0       10.801336   -3.101344    2.085719
     58          1           0        9.409655   -2.232659    1.225577
     59          1           0      -11.829308   -0.066724    2.452885
     60          1           0      -10.751780   -1.395385    2.198953
     61          1           0      -12.611526   -1.599107    2.667288
     62          1           0      -13.177378   -3.136017    0.668603
     63          1           0      -11.489793   -2.833221    0.113784
     64          1           0      -12.717868   -2.494592   -0.789566
     65          1           0        8.973264   -0.446744    0.628539
     66          1           0      -10.069640   -2.066044   -0.602037
     67          1           0       10.385922    0.786174   -2.507502
     68          1           0       12.112391    1.565205   -2.393966
     69          1           0       11.809084    0.218343   -3.389261
     70          1           0      -11.355159    1.702444   -2.644146
     71          1           0       -9.712774    1.064602   -2.180358
     72          1           0      -10.391753    2.612542   -1.326763
     73          1           0       14.598217   -3.012173    0.395849
     74          1           0      -15.380844    1.530839    1.647205
     75          1           0       10.200742    2.233869   -0.615187
     76          1           0       -8.625047    0.581514   -0.119046
     77          1           0        8.831491    4.500583   -0.240871
     78          1           0        7.090567    4.098782    0.336931
     79          1           0        8.470536    4.125217    1.317793
     80          1           0       -8.145718   -3.522245   -0.272214
     81          1           0       -8.276563   -2.765793   -1.956505
     82          1           0       -6.623118   -3.121495   -1.073324
     83          1           0        7.230753    0.441118   -0.208406
     84          1           0       -6.165824    0.522801   -0.278550
     85          1           0        5.207122    3.075571    0.554106
     86          1           0       -4.886511   -2.388320   -0.710145
     87          1           0        4.774516    0.161068   -0.419895
     88          1           0       -4.298537    0.627361    0.174192
     89          1           0        3.263227    2.917645    1.702727
     90          1           0        1.790369    2.990881    0.747513
     91          1           0        3.332313    3.823089    0.221625
     92          1           0       -2.781249   -3.026533   -0.308567
     93          1           0       -2.986294   -2.068537   -1.797872
     94          1           0       -1.312510   -2.311436   -1.149983
     95          1           0        2.482820   -0.129892   -0.514215
     96          1           0       -1.663751    1.290729    0.264602
     97          1           0        0.416688    1.990039    0.497083
     98          1           0        0.208817   -1.123777   -0.751265
 ---------------------------------------------------------------------

 SCF Done:  E(RCAM-B3LYP) =  -1706.97743824     A.U. after   14 cycles

 Excitation energies and oscillator strengths:

 Excited State   1:      Singlet-A      2.7263 eV  454.77 nm  f=3.6533  <S**2>=0.000
     155 ->158        -0.16764
     156 ->157         0.68132
 This state for optimization and/or second-order correction.
 Total Energy, E(TD-HF/TD-DFT) =  -1706.87724849
 Copying the excited state density for this state as the 1-particle RhoCI density.

 The electronic state is 1-A.
 Alpha  occ. eigenvalues --  -19.21394 -19.21293 -10.31107 -10.30003 -10.28266
 Alpha  occ. eigenvalues --  -10.28041 -10.27962 -10.27907 -10.27705 -10.27464
 Alpha  occ. eigenvalues --  -10.27426 -10.27131 -10.27128 -10.26881 -10.26875
 Alpha  occ. eigenvalues --  -10.26843 -10.26786 -10.26757 -10.26686 -10.26680
 Alpha  occ. eigenvalues --  -10.26475 -10.26459 -10.26407 -10.26334 -10.26115
 Alpha  occ. eigenvalues --  -10.25869 -10.25807 -10.25802 -10.25795 -10.25745
 Alpha  occ. eigenvalues --  -10.25681 -10.25513 -10.25463 -10.25362 -10.25290
 Alpha  occ. eigenvalues --  -10.25258 -10.25163 -10.25058 -10.24715 -10.23845
 Alpha  occ. eigenvalues --  -10.22809 -10.22306  -1.10699  -1.09727  -0.94605
 Alpha  occ. eigenvalues --   -0.92499  -0.91937  -0.91369  -0.90679  -0.89677
 Alpha  occ. eigenvalues --   -0.88362  -0.86773  -0.86316  -0.85266  -0.84085
 Alpha  occ. eigenvalues --   -0.82646  -0.81747  -0.79559  -0.79144  -0.78642
 Alpha  occ. eigenvalues --   -0.77064  -0.76647  -0.76186  -0.75764  -0.75713
 Alpha  occ. eigenvalues --   -0.74797  -0.74677  -0.74394  -0.73594  -0.69969
 Alpha  occ. eigenvalues --   -0.68264  -0.67421  -0.66040  -0.65344  -0.63361
 Alpha  occ. eigenvalues --   -0.62526  -0.61959  -0.60724  -0.60366  -0.60093
 Alpha  occ. eigenvalues --   -0.59625  -0.59034  -0.58336  -0.57113  -0.56381
 Alpha  occ. eigenvalues --   -0.55969  -0.55493  -0.54951  -0.53994  -0.53316
 Alpha  occ. eigenvalues --   -0.52594  -0.52418  -0.52150  -0.51126  -0.50700
 Alpha  occ. eigenvalues --   -0.50403  -0.50135  -0.50074  -0.49351  -0.49188
 Alpha  occ. eigenvalues --   -0.48783  -0.48703  -0.48158  -0.47764  -0.47581
 Alpha  occ. eigenvalues --   -0.47419  -0.47213  -0.46689  -0.46334  -0.46184
 Alpha  occ. eigenvalues --   -0.46055  -0.45736  -0.45328  -0.45172  -0.45020
 Alpha  occ. eigenvalues --   -0.44763  -0.44275  -0.43947  -0.43650  -0.43399
 Alpha  occ. eigenvalues --   -0.43209  -0.42593  -0.42474  -0.42172  -0.41981
 Alpha  occ. eigenvalues --   -0.41834  -0.41003  -0.40798  -0.40699  -0.40651
 Alpha  occ. eigenvalues --   -0.40164  -0.39973  -0.39931  -0.39665  -0.39523
 Alpha  occ. eigenvalues --   -0.38934  -0.38758  -0.38411  -0.37883  -0.37737
 Alpha  occ. eigenvalues --   -0.37641  -0.37512  -0.37075  -0.36780  -0.35514
 Alpha  occ. eigenvalues --   -0.34872  -0.34224  -0.32947  -0.32343  -0.31983
 Alpha  occ. eigenvalues --   -0.31897  -0.29586  -0.28596  -0.26233  -0.23697
 Alpha  occ. eigenvalues --   -0.20604
 Alpha virt. eigenvalues --   -0.04200   0.00086   0.03101   0.06490   0.08471
 Alpha virt. eigenvalues --    0.09945   0.10798   0.10989   0.11574   0.12125
 Alpha virt. eigenvalues --    0.12461   0.12569   0.12806   0.13196   0.13476

 Mulliken charges:
               1
     1  O   -0.548778
     2  O   -0.555923
     3  C   -0.005226
     4  C   -0.022824
     5  C   -0.185791
     6  C   -0.183252
     7  C    0.127839
     8  C    0.195892
     9  C    0.042570
    10  C    0.031331
    11  C   -0.168535
    12  C   -0.218868
    13  C    0.030175
    14  C    0.032329
    15  C   -0.302674
    16  C   -0.288338
    17  C   -0.286987
    18  C   -0.310241
    19  C   -0.084161
    20  C   -0.159356
    21  C   -0.376632
    22  C   -0.357583
    23  C   -0.119429
    24  C   -0.082446
    25  C    0.058038
    26  C    0.127730
    27  C   -0.365149
    28  C   -0.367922
    29  C   -0.102869
    30  C   -0.142094
    31  C   -0.100669
    32  C   -0.090007
    33  C   -0.111830
    34  C   -0.134818
    35  C    0.070822
    36  C    0.071467
    37  C   -0.359784
    38  C   -0.361688
    39  C   -0.110649
    40  C   -0.105755
    41  C   -0.125888
    42  C   -0.066469
    43  H    0.103057
    44  H    0.055348
    45  H    0.060700
    46  H    0.112790
    47  H    0.079104
    48  H    0.085352
    49  H    0.129935
    50  H    0.104273
    51  H    0.102351
    52  H    0.101797
    53  H    0.105244
    54  H    0.087750
    55  H    0.089339
    56  H    0.106951
    57  H    0.100325
    58  H    0.086900
    59  H    0.106730
    60  H    0.115956
    61  H    0.093850
    62  H    0.092908
    63  H    0.095010
    64  H    0.110480
    65  H    0.083970
    66  H    0.085285
    67  H    0.121790
    68  H    0.100811
    69  H    0.093111
    70  H    0.113096
    71  H    0.118251
    72  H    0.098589
    73  H    0.302680
    74  H    0.302755
    75  H    0.107477
    76  H    0.086600
    77  H    0.102310
    78  H    0.110612
    79  H    0.131712
    80  H    0.110731
    81  H    0.124783
    82  H    0.094900
    83  H    0.098298
    84  H    0.098117
    85  H    0.095021
    86  H    0.090273
    87  H    0.071251
    88  H    0.090660
    89  H    0.139786
    90  H    0.096311
    91  H    0.131201
    92  H    0.117844
    93  H    0.126130
    94  H    0.107636
    95  H    0.074081
    96  H    0.093022
    97  H    0.085594
    98  H    0.083604
 Sum of Mulliken charges =  -0.00000

 Dipole moment (field-independent basis, Debye):
    X=             -0.1063    Y=             -1.6736    Z=              1.4310  Tot=              2.2045
 Quadrupole moment (field-independent basis, Debye-Ang):
   XX=           -275.6878   YY=           -244.3531   ZZ=           -260.5159
   XY=              8.2587   XZ=             -2.0976   YZ=              2.1162

 Normal termination of Gaussian 16 at Thu Jun 27 04:14:14 2019.
