 Gaussian 16, Revision A.03,
 Gaussian 16:  ES64L-G16RevA.03 25-Dec-2016

 -------------------------------------
 # td=(NStates=1) CAM-B3LYP/6-31G(d,p)
 -------------------------------------

 --
 TD
 --
 Symbolic Z-matrix:
 Charge =  0 Multiplicity = 1

                         Standard orientation:
 ---------------------------------------------------------------------
 Center     Atomic      Atomic             Coordinates (Angstroms)
 Number     Number       Type             X           Y           Z
 ---------------------------------------------------------------------
      1          8           0       14.830267   -2.046793   -0.511026
      2          8           0      -14.910945    1.774265    0.697917
      3          6           0       11.382519   -1.274831    1.139230
      4          6           0      -12.367259   -1.028001    0.599936
      5          6           0       12.988764   -1.380738    1.034774
      6          6           0      -13.805896   -0.352900    0.581640
      7          6           0       13.404696   -1.852782   -0.369188
      8          6           0      -13.633123    1.170560    0.639979
      9          6           0       10.995738   -0.402952   -0.107073
     10          6           0      -11.401319   -0.240415   -0.264307
     11          6           0       13.020898   -0.871689   -1.471821
     12          6           0      -12.778377    1.701619   -0.478288
     13          6           0       11.514205   -0.271089   -1.274833
     14          6           0      -11.613270    0.946280   -0.811070
     15          6           0       11.187314   -0.432965    2.476224
     16          6           0       10.681069   -2.649185    1.190600
     17          6           0      -11.897138   -1.125933    2.045277
     18          6           0      -12.526037   -2.459799    0.034114
     19          6           0        9.607710    0.297653    0.110764
     20          6           0      -10.018571   -0.862728   -0.430296
     21          6           0       11.086316    0.491754   -2.476709
     22          6           0      -10.720457    1.599085   -1.753165
     23          6           0        9.362570    1.596204   -0.152185
     24          6           0       -8.846019   -0.390439   -0.299539
     25          6           0        8.117277    2.222330    0.087137
     26          6           0       -7.619316   -1.082490   -0.646948
     27          6           0        8.169170    3.684892    0.388263
     28          6           0       -7.603274   -2.627221   -0.883176
     29          6           0        6.930531    1.633502    0.077576
     30          6           0       -6.454776   -0.476948   -0.360902
     31          6           0        5.583780    2.079517    0.339141
     32          6           0       -5.096800   -1.088340   -0.262396
     33          6           0        4.513534    1.269583    0.121671
     34          6           0       -4.036759   -0.207989   -0.155802
     35          6           0        3.180188    1.622802    0.263407
     36          6           0       -2.634098   -0.768240   -0.209050
     37          6           0        2.989730    3.111387    0.693174
     38          6           0       -2.330817   -2.195908   -0.501499
     39          6           0        2.120615    0.726315    0.178758
     40          6           0       -1.600454    0.186002   -0.032910
     41          6           0        0.763574    0.957406    0.252148
     42          6           0       -0.207182    0.073048   -0.121678
     43          1           0       13.506607   -0.513659    1.266764
     44          1           0       13.300238   -1.954444    1.910636
     45          1           0      -14.475456   -0.888279    1.410570
     46          1           0      -14.189505   -0.577083   -0.455146
     47          1           0       13.029450   -2.723219   -0.669524
     48          1           0      -13.065790    1.620529    1.585756
     49          1           0       13.855395   -0.099996   -1.672708
     50          1           0       13.136638   -1.309980   -2.367391
     51          1           0      -13.520522    1.964974   -1.264931
     52          1           0      -12.297576    2.705009   -0.119542
     53          1           0       11.640692   -1.053502    3.308581
     54          1           0       10.037078   -0.363011    2.509855
     55          1           0       11.663621    0.530267    2.378781
     56          1           0       10.933378   -2.988841    0.027683
     57          1           0       11.027801   -3.218080    2.048696
     58          1           0        9.560427   -2.622663    1.220268
     59          1           0      -11.807307   -0.136411    2.516273
     60          1           0      -10.947767   -1.526517    2.065219
     61          1           0      -12.401947   -1.783564    2.748251
     62          1           0      -13.264399   -3.044260    0.643600
     63          1           0      -11.379374   -2.979184    0.024689
     64          1           0      -12.826731   -2.642324   -0.969976
     65          1           0        8.748054   -0.203912    0.763737
     66          1           0      -10.474609   -1.815039   -0.773608
     67          1           0       10.283232    0.824533   -2.344237
     68          1           0       11.756794    1.339860   -2.743273
     69          1           0       11.215546   -0.274258   -3.254428
     70          1           0      -11.370028    1.802986   -2.753552
     71          1           0       -9.965089    0.815341   -1.996450
     72          1           0      -10.112279    2.558331   -1.365897
     73          1           0       15.038300   -2.795706    0.020589
     74          1           0      -15.407889    1.489928    1.533149
     75          1           0       10.134338    2.288540   -0.463862
     76          1           0       -8.779421    0.607085   -0.030406
     77          1           0        8.310065    4.213734   -0.683293
     78          1           0        7.252283    4.161741    0.776662
     79          1           0        8.996709    3.749100    1.422242
     80          1           0       -8.299487   -3.211249   -0.139353
     81          1           0       -7.998960   -2.889091   -1.756982
     82          1           0       -6.609831   -2.972236   -0.882167
     83          1           0        6.809459    0.646975   -0.372502
     84          1           0       -6.456116    0.609440   -0.133750
     85          1           0        5.484738    3.018892    0.436755
     86          1           0       -5.307989   -2.157114   -0.353785
     87          1           0        4.596969    0.269985   -0.388435
     88          1           0       -4.174923    0.873018    0.088505
     89          1           0        3.831269    3.527040    1.418847
     90          1           0        1.984546    3.456875    0.939445
     91          1           0        3.278435    3.616532   -0.379677
     92          1           0       -2.876770   -2.823627    0.315998
     93          1           0       -2.911028   -2.214706   -1.356520
     94          1           0       -1.312630   -2.468472   -0.674877
     95          1           0        2.595929   -0.226423   -0.192348
     96          1           0       -1.881312    1.104261    0.416422
     97          1           0        0.301258    1.799376    0.671654
     98          1           0       -0.004619   -0.895416   -0.552003
 ---------------------------------------------------------------------

 SCF Done:  E(RCAM-B3LYP) =  -1706.91971208     A.U. after   14 cycles

 Excitation energies and oscillator strengths:

 Excited State   1:      Singlet-A      2.5251 eV  491.01 nm  f=3.6032  <S**2>=0.000
     155 ->158        -0.14698
     156 ->157         0.69045
 This state for optimization and/or second-order correction.
 Total Energy, E(TD-HF/TD-DFT) =  -1706.82691682
 Copying the excited state density for this state as the 1-particle RhoCI density.

 The electronic state is 1-A.
 Alpha  occ. eigenvalues --  -19.20759 -19.19970 -10.30861 -10.29055 -10.28561
 Alpha  occ. eigenvalues --  -10.28458 -10.28429 -10.28258 -10.27852 -10.27366
 Alpha  occ. eigenvalues --  -10.27124 -10.27104 -10.27063 -10.27016 -10.26946
 Alpha  occ. eigenvalues --  -10.26584 -10.26490 -10.26402 -10.26350 -10.26177
 Alpha  occ. eigenvalues --  -10.26113 -10.25960 -10.25929 -10.25889 -10.25834
 Alpha  occ. eigenvalues --  -10.25828 -10.25663 -10.25414 -10.25411 -10.25328
 Alpha  occ. eigenvalues --  -10.25283 -10.25282 -10.25178 -10.25139 -10.24990
 Alpha  occ. eigenvalues --  -10.24783 -10.24670 -10.24613 -10.24512 -10.24377
 Alpha  occ. eigenvalues --  -10.23534 -10.23255  -1.08643  -1.08275  -0.94361
 Alpha  occ. eigenvalues --   -0.92921  -0.92191  -0.91653  -0.90865  -0.90082
 Alpha  occ. eigenvalues --   -0.87888  -0.87731  -0.86912  -0.85782  -0.84252
 Alpha  occ. eigenvalues --   -0.83005  -0.82133  -0.80403  -0.80127  -0.78458
 Alpha  occ. eigenvalues --   -0.77186  -0.77134  -0.76519  -0.76101  -0.75540
 Alpha  occ. eigenvalues --   -0.75047  -0.74983  -0.74753  -0.73662  -0.70975
 Alpha  occ. eigenvalues --   -0.68713  -0.67559  -0.66333  -0.65199  -0.64151
 Alpha  occ. eigenvalues --   -0.63874  -0.63359  -0.62347  -0.60890  -0.60600
 Alpha  occ. eigenvalues --   -0.59848  -0.58678  -0.57640  -0.57204  -0.55848
 Alpha  occ. eigenvalues --   -0.55381  -0.55080  -0.54668  -0.54494  -0.54159
 Alpha  occ. eigenvalues --   -0.53651  -0.53133  -0.52421  -0.52231  -0.50711
 Alpha  occ. eigenvalues --   -0.50435  -0.50317  -0.49844  -0.49383  -0.49307
 Alpha  occ. eigenvalues --   -0.49112  -0.48831  -0.48179  -0.48111  -0.48023
 Alpha  occ. eigenvalues --   -0.47747  -0.47554  -0.47296  -0.47155  -0.46781
 Alpha  occ. eigenvalues --   -0.46468  -0.46273  -0.46144  -0.45836  -0.45279
 Alpha  occ. eigenvalues --   -0.44955  -0.44656  -0.44491  -0.44357  -0.43048
 Alpha  occ. eigenvalues --   -0.42672  -0.42522  -0.42282  -0.42014  -0.41727
 Alpha  occ. eigenvalues --   -0.41381  -0.41258  -0.41136  -0.40996  -0.40712
 Alpha  occ. eigenvalues --   -0.40138  -0.40075  -0.39980  -0.39568  -0.39312
 Alpha  occ. eigenvalues --   -0.38970  -0.38757  -0.38646  -0.38379  -0.37877
 Alpha  occ. eigenvalues --   -0.37790  -0.36567  -0.36219  -0.35928  -0.35413
 Alpha  occ. eigenvalues --   -0.34834  -0.33916  -0.33740  -0.32202  -0.31241
 Alpha  occ. eigenvalues --   -0.30886  -0.29975  -0.28702  -0.26842  -0.24551
 Alpha  occ. eigenvalues --   -0.20168
 Alpha virt. eigenvalues --   -0.04968   0.00067   0.03290   0.06060   0.08298
 Alpha virt. eigenvalues --    0.10163   0.11184   0.11316   0.11471   0.12058
 Alpha virt. eigenvalues --    0.12195   0.13017   0.13144   0.13655   0.13844

 Mulliken charges:
               1
     1  O   -0.572179
     2  O   -0.579190
     3  C   -0.038707
     4  C   -0.012457
     5  C   -0.186875
     6  C   -0.186968
     7  C    0.163703
     8  C    0.196762
     9  C    0.059093
    10  C    0.012131
    11  C   -0.224512
    12  C   -0.236280
    13  C    0.028171
    14  C    0.106588
    15  C   -0.291205
    16  C   -0.285560
    17  C   -0.299151
    18  C   -0.312285
    19  C   -0.160290
    20  C   -0.105979
    21  C   -0.295213
    22  C   -0.359911
    23  C   -0.072692
    24  C   -0.095272
    25  C    0.084804
    26  C    0.085485
    27  C   -0.352528
    28  C   -0.361340
    29  C   -0.132463
    30  C   -0.127830
    31  C   -0.048956
    32  C   -0.073290
    33  C   -0.122318
    34  C   -0.121275
    35  C    0.120631
    36  C    0.071761
    37  C   -0.365366
    38  C   -0.357044
    39  C   -0.124210
    40  C   -0.133318
    41  C   -0.084192
    42  C   -0.057775
    43  H    0.113900
    44  H    0.071668
    45  H    0.075106
    46  H    0.100741
    47  H    0.090153
    48  H    0.054777
    49  H    0.103590
    50  H    0.106114
    51  H    0.113737
    52  H    0.100406
    53  H    0.091172
    54  H    0.093526
    55  H    0.116988
    56  H    0.087703
    57  H    0.112200
    58  H    0.110151
    59  H    0.101911
    60  H    0.113350
    61  H    0.098258
    62  H    0.099576
    63  H    0.070211
    64  H    0.116804
    65  H    0.090594
    66  H    0.083868
    67  H    0.103775
    68  H    0.111571
    69  H    0.110611
    70  H    0.092654
    71  H    0.121523
    72  H    0.096261
    73  H    0.296844
    74  H    0.311851
    75  H    0.090095
    76  H    0.086716
    77  H    0.111765
    78  H    0.117650
    79  H    0.079026
    80  H    0.106291
    81  H    0.133242
    82  H    0.102531
    83  H    0.067246
    84  H    0.070655
    85  H    0.064184
    86  H    0.092748
    87  H    0.078231
    88  H    0.110923
    89  H    0.111424
    90  H    0.110026
    91  H    0.098017
    92  H    0.118400
    93  H    0.138003
    94  H    0.123454
    95  H    0.072961
    96  H    0.061634
    97  H    0.082892
    98  H    0.057796
 Sum of Mulliken charges =  -0.00000

 Dipole moment (field-independent basis, Debye):
    X=             -0.7366    Y=             -2.0228    Z=              1.3076  Tot=              2.5187
 Quadrupole moment (field-independent basis, Debye-Ang):
   XX=           -279.7085   YY=           -246.3764   ZZ=           -258.8932
   XY=             10.2802   XZ=             -6.5822   YZ=              0.6904

 Normal termination of Gaussian 16 at Tue Jul  2 06:52:47 2019.
