 Gaussian 16, Revision A.03,
 Gaussian 16:  ES64L-G16RevA.03 25-Dec-2016

 -------------------------------------
 # td=(NStates=1) CAM-B3LYP/6-31G(d,p)
 -------------------------------------

 --
 TD
 --
 Symbolic Z-matrix:
 Charge =  0 Multiplicity = 1

                         Standard orientation:
 ---------------------------------------------------------------------
 Center     Atomic      Atomic             Coordinates (Angstroms)
 Number     Number       Type             X           Y           Z
 ---------------------------------------------------------------------
      1          8           0       14.730812   -2.189291   -0.655343
      2          8           0      -14.900143    1.954711    0.412431
      3          6           0       11.589716   -1.017284    1.213566
      4          6           0      -12.292227   -0.892021    0.771675
      5          6           0       13.141956   -1.362060    0.956647
      6          6           0      -13.711742   -0.235822    0.631702
      7          6           0       13.338753   -1.911842   -0.363669
      8          6           0      -13.671761    1.274361    0.543251
      9          6           0       10.949736   -0.334225   -0.072772
     10          6           0      -11.358158   -0.310642   -0.227836
     11          6           0       12.966640   -0.967393   -1.444389
     12          6           0      -12.858463    1.641661   -0.742443
     13          6           0       11.652169   -0.348074   -1.284778
     14          6           0      -11.626192    0.840480   -0.920742
     15          6           0       11.385358   -0.139960    2.395733
     16          6           0       10.812447   -2.295246    1.425245
     17          6           0      -11.689965   -0.582587    2.126042
     18          6           0      -12.404927   -2.485438    0.682983
     19          6           0        9.702983    0.412874    0.184407
     20          6           0      -10.096498   -1.128467   -0.596859
     21          6           0       11.053447    0.408612   -2.460905
     22          6           0      -10.767910    1.512375   -1.879580
     23          6           0        9.357732    1.685677   -0.098025
     24          6           0       -8.864311   -0.610430   -0.304349
     25          6           0        8.022313    2.312001    0.104047
     26          6           0       -7.551542   -1.360696   -0.419544
     27          6           0        8.049532    3.704993    0.310220
     28          6           0       -7.602000   -2.707773   -0.844246
     29          6           0        6.909966    1.574610   -0.026110
     30          6           0       -6.394679   -0.629321   -0.172697
     31          6           0        5.479748    2.000969    0.277936
     32          6           0       -5.104238   -1.091034   -0.222874
     33          6           0        4.374866    1.183043    0.070344
     34          6           0       -4.036524   -0.299171   -0.007865
     35          6           0        3.046872    1.552174    0.184903
     36          6           0       -2.630502   -0.753398   -0.197653
     37          6           0        2.815388    3.032867    0.650859
     38          6           0       -2.256033   -2.185419   -0.633712
     39          6           0        2.013533    0.664746   -0.165897
     40          6           0       -1.671476    0.087632    0.135744
     41          6           0        0.625067    0.871005    0.125583
     42          6           0       -0.271964   -0.053683   -0.203988
     43          1           0       13.696384   -0.424088    1.272815
     44          1           0       13.534683   -2.093075    1.567459
     45          1           0      -14.494361   -0.596306    1.366294
     46          1           0      -14.039165   -0.616748   -0.365102
     47          1           0       12.696211   -2.742008   -0.459863
     48          1           0      -13.043431    1.629069    1.474087
     49          1           0       13.795715   -0.030511   -1.372305
     50          1           0       12.832291   -1.422726   -2.425647
     51          1           0      -13.513166    1.297000   -1.594763
     52          1           0      -12.633623    2.584139   -0.809272
     53          1           0       11.894763   -0.633115    3.229584
     54          1           0       10.400824   -0.023281    2.778883
     55          1           0       11.769602    1.033032    2.278971
     56          1           0       11.139830   -2.934763    0.530550
     57          1           0       11.235820   -2.574683    2.376038
     58          1           0        9.643219   -2.036585    1.468567
     59          1           0      -11.512364    0.489987    2.253233
     60          1           0      -10.684549   -1.262596    2.302947
     61          1           0      -12.478287   -0.962631    2.836632
     62          1           0      -13.186734   -3.047988    1.281865
     63          1           0      -11.600813   -2.895537    1.031763
     64          1           0      -12.735023   -2.583121   -0.301541
     65          1           0        8.907077   -0.204204    0.764279
     66          1           0      -10.244606   -2.206118   -0.813677
     67          1           0        9.899450    0.540934   -2.488938
     68          1           0       11.473319    1.470037   -2.441204
     69          1           0       11.203357   -0.324753   -3.366429
     70          1           0      -11.321161    1.934028   -2.606435
     71          1           0      -10.166032    0.906770   -2.356760
     72          1           0      -10.241770    2.194155   -1.293841
     73          1           0       15.214299   -2.828971    0.114057
     74          1           0      -15.217071    1.923363    1.223187
     75          1           0       10.072183    2.258622   -0.663367
     76          1           0       -8.764616    0.543598    0.119316
     77          1           0        8.766022    4.283077   -0.416888
     78          1           0        7.111114    4.063437    0.302899
     79          1           0        8.452826    3.957478    1.318412
     80          1           0       -8.011949   -3.413205   -0.065652
     81          1           0       -8.204403   -2.872445   -1.824799
     82          1           0       -6.601834   -2.998734   -1.189055
     83          1           0        6.899567    0.361908   -0.110180
     84          1           0       -6.679609    0.364148    0.155583
     85          1           0        5.292474    2.917747    0.671205
     86          1           0       -4.963559   -2.059090   -0.803894
     87          1           0        4.683834    0.136903   -0.168059
     88          1           0       -4.020889    0.683638    0.266392
     89          1           0        3.151276    3.204117    1.706713
     90          1           0        1.704813    3.118119    0.728332
     91          1           0        3.357991    3.662648   -0.141066
     92          1           0       -2.438510   -3.007754    0.316237
     93          1           0       -2.722781   -2.535543   -1.489247
     94          1           0       -1.313399   -2.490537   -0.972243
     95          1           0        2.313554   -0.163876   -0.768861
     96          1           0       -2.026852    0.920594    0.394755
     97          1           0        0.304343    2.011163    0.578244
     98          1           0        0.205702   -0.976658   -0.456634
 ---------------------------------------------------------------------

 SCF Done:  E(RCAM-B3LYP) =  -1706.95939435     A.U. after   13 cycles

 Excitation energies and oscillator strengths:

 Excited State   1:      Singlet-A      2.7664 eV  448.17 nm  f=3.6637  <S**2>=0.000
     155 ->158         0.17370
     156 ->157         0.67972
 This state for optimization and/or second-order correction.
 Total Energy, E(TD-HF/TD-DFT) =  -1706.85772928
 Copying the excited state density for this state as the 1-particle RhoCI density.

 The electronic state is 1-A.
 Alpha  occ. eigenvalues --  -19.22062 -19.20993 -10.31012 -10.29687 -10.27471
 Alpha  occ. eigenvalues --  -10.27464 -10.27282 -10.27272 -10.27130 -10.27102
 Alpha  occ. eigenvalues --  -10.26966 -10.26942 -10.26710 -10.26622 -10.26434
 Alpha  occ. eigenvalues --  -10.26431 -10.26381 -10.26379 -10.26346 -10.26137
 Alpha  occ. eigenvalues --  -10.25992 -10.25989 -10.25952 -10.25941 -10.25831
 Alpha  occ. eigenvalues --  -10.25822 -10.25761 -10.25760 -10.25698 -10.25625
 Alpha  occ. eigenvalues --  -10.25388 -10.25387 -10.25188 -10.25184 -10.25062
 Alpha  occ. eigenvalues --  -10.25053 -10.24965 -10.24914 -10.23894 -10.23606
 Alpha  occ. eigenvalues --  -10.23527 -10.21375  -1.12401  -1.06734  -0.93484
 Alpha  occ. eigenvalues --   -0.93311  -0.92469  -0.91635  -0.91002  -0.90106
 Alpha  occ. eigenvalues --   -0.87872  -0.87400  -0.87268  -0.85388  -0.84904
 Alpha  occ. eigenvalues --   -0.83420  -0.81636  -0.80824  -0.80381  -0.78118
 Alpha  occ. eigenvalues --   -0.76869  -0.76678  -0.76163  -0.76087  -0.75695
 Alpha  occ. eigenvalues --   -0.75438  -0.75116  -0.74642  -0.73857  -0.70225
 Alpha  occ. eigenvalues --   -0.68540  -0.67327  -0.66234  -0.64480  -0.63941
 Alpha  occ. eigenvalues --   -0.62498  -0.62177  -0.61909  -0.61092  -0.59780
 Alpha  occ. eigenvalues --   -0.59013  -0.58655  -0.58448  -0.57895  -0.56333
 Alpha  occ. eigenvalues --   -0.55267  -0.54909  -0.54828  -0.54439  -0.53946
 Alpha  occ. eigenvalues --   -0.53197  -0.53114  -0.52274  -0.51739  -0.51560
 Alpha  occ. eigenvalues --   -0.51246  -0.50763  -0.50491  -0.49791  -0.49047
 Alpha  occ. eigenvalues --   -0.48938  -0.48838  -0.48700  -0.48256  -0.47994
 Alpha  occ. eigenvalues --   -0.47873  -0.47585  -0.47086  -0.46845  -0.46530
 Alpha  occ. eigenvalues --   -0.46197  -0.45789  -0.45228  -0.45063  -0.44840
 Alpha  occ. eigenvalues --   -0.44360  -0.44207  -0.44100  -0.43662  -0.43597
 Alpha  occ. eigenvalues --   -0.43203  -0.43061  -0.42571  -0.42484  -0.41959
 Alpha  occ. eigenvalues --   -0.41741  -0.41565  -0.41368  -0.40981  -0.40689
 Alpha  occ. eigenvalues --   -0.40477  -0.40083  -0.39790  -0.39583  -0.39443
 Alpha  occ. eigenvalues --   -0.39159  -0.38607  -0.38553  -0.38366  -0.38274
 Alpha  occ. eigenvalues --   -0.37844  -0.36823  -0.35941  -0.35804  -0.35419
 Alpha  occ. eigenvalues --   -0.35087  -0.34506  -0.33475  -0.32821  -0.32519
 Alpha  occ. eigenvalues --   -0.31694  -0.29258  -0.27055  -0.25961  -0.23863
 Alpha  occ. eigenvalues --   -0.20729
 Alpha virt. eigenvalues --   -0.04144  -0.00276   0.03163   0.06312   0.08134
 Alpha virt. eigenvalues --    0.09250   0.09565   0.11241   0.11563   0.11895
 Alpha virt. eigenvalues --    0.12243   0.12797   0.12960   0.13269   0.13646

 Mulliken charges:
               1
     1  O   -0.581273
     2  O   -0.517701
     3  C   -0.027958
     4  C   -0.035893
     5  C   -0.180203
     6  C   -0.185964
     7  C    0.194038
     8  C    0.140244
     9  C    0.050900
    10  C    0.039974
    11  C   -0.185347
    12  C   -0.199050
    13  C    0.025965
    14  C    0.033820
    15  C   -0.299782
    16  C   -0.266857
    17  C   -0.274913
    18  C   -0.305950
    19  C   -0.111676
    20  C   -0.168598
    21  C   -0.352091
    22  C   -0.341059
    23  C   -0.102613
    24  C   -0.078978
    25  C    0.102232
    26  C    0.117217
    27  C   -0.366973
    28  C   -0.388218
    29  C   -0.119844
    30  C   -0.093476
    31  C   -0.105454
    32  C   -0.101737
    33  C   -0.100054
    34  C   -0.095627
    35  C    0.082970
    36  C    0.108498
    37  C   -0.358831
    38  C   -0.366590
    39  C   -0.135283
    40  C   -0.092494
    41  C   -0.056260
    42  C   -0.096393
    43  H    0.101193
    44  H    0.080067
    45  H    0.076647
    46  H    0.094024
    47  H    0.088155
    48  H    0.057592
    49  H    0.100785
    50  H    0.105747
    51  H    0.117349
    52  H    0.106981
    53  H    0.090757
    54  H    0.114822
    55  H    0.080139
    56  H    0.093283
    57  H    0.097836
    58  H    0.090816
    59  H    0.100824
    60  H    0.082803
    61  H    0.087341
    62  H    0.089071
    63  H    0.112149
    64  H    0.111925
    65  H    0.072626
    66  H    0.098751
    67  H    0.121692
    68  H    0.117989
    69  H    0.086642
    70  H    0.108900
    71  H    0.119188
    72  H    0.123458
    73  H    0.295909
    74  H    0.290679
    75  H    0.080498
    76  H    0.073104
    77  H    0.104566
    78  H    0.116489
    79  H    0.121750
    80  H    0.124153
    81  H    0.110722
    82  H    0.105967
    83  H    0.073760
    84  H    0.074017
    85  H    0.079922
    86  H    0.093127
    87  H    0.071961
    88  H    0.081815
    89  H    0.120757
    90  H    0.096152
    91  H    0.126661
    92  H    0.086498
    93  H    0.116435
    94  H    0.116405
    95  H    0.091734
    96  H    0.052105
    97  H    0.069903
    98  H    0.092636
 Sum of Mulliken charges =  -0.00000

 Dipole moment (field-independent basis, Debye):
    X=              0.2091    Y=             -0.9895    Z=              2.0034  Tot=              2.2442
 Quadrupole moment (field-independent basis, Debye-Ang):
   XX=           -273.1789   YY=           -244.5189   ZZ=           -260.7455
   XY=              6.0151   XZ=              6.9964   YZ=              3.7335

 Normal termination of Gaussian 16 at Tue Jul  9 19:17:43 2019.
