 Gaussian 16, Revision A.03,
 Gaussian 16:  ES64L-G16RevA.03 25-Dec-2016

 -------------------------------------
 # td=(NStates=1) CAM-B3LYP/6-31G(d,p)
 -------------------------------------

 --
 TD
 --
 Symbolic Z-matrix:
 Charge =  0 Multiplicity = 1

                         Standard orientation:
 ---------------------------------------------------------------------
 Center     Atomic      Atomic             Coordinates (Angstroms)
 Number     Number       Type             X           Y           Z
 ---------------------------------------------------------------------
      1          8           0       14.645935   -2.216401   -0.438045
      2          8           0      -14.740398    1.977139    0.853940
      3          6           0       11.493874   -1.108908    1.232091
      4          6           0      -12.221658   -0.913061    0.943371
      5          6           0       13.023243   -1.373937    1.206352
      6          6           0      -13.713669   -0.224726    0.844792
      7          6           0       13.262182   -2.000253   -0.185617
      8          6           0      -13.541833    1.224324    0.760448
      9          6           0       10.925120   -0.341905   -0.057105
     10          6           0      -11.384134   -0.353609   -0.263975
     11          6           0       12.995599   -0.929603   -1.310315
     12          6           0      -12.908893    1.642715   -0.616282
     13          6           0       11.699938   -0.326548   -1.169757
     14          6           0      -11.616048    0.772664   -0.808023
     15          6           0       11.292154   -0.206006    2.526123
     16          6           0       10.627643   -2.313619    1.587335
     17          6           0      -11.625605   -0.757111    2.283682
     18          6           0      -12.654419   -2.490765    0.654782
     19          6           0        9.588254    0.328019    0.104634
     20          6           0      -10.070919   -1.045519   -0.319066
     21          6           0       11.132206    0.249803   -2.401508
     22          6           0      -10.734105    1.393498   -1.942935
     23          6           0        9.344932    1.585235   -0.101295
     24          6           0       -8.768502   -0.531038   -0.253771
     25          6           0        8.095010    2.333152    0.155264
     26          6           0       -7.593714   -1.215670   -0.544115
     27          6           0        8.115319    3.782353    0.558772
     28          6           0       -7.751088   -2.588499   -0.985533
     29          6           0        6.922191    1.600716   -0.126362
     30          6           0       -6.448122   -0.566091   -0.293892
     31          6           0        5.529695    1.965575    0.112517
     32          6           0       -5.062412   -1.028166   -0.532764
     33          6           0        4.463943    1.182793   -0.021287
     34          6           0       -4.032782   -0.334054   -0.462156
     35          6           0        3.158662    1.699396    0.011002
     36          6           0       -2.574824   -0.732894   -0.541746
     37          6           0        2.942137    3.082184    0.492342
     38          6           0       -2.329381   -2.091140   -1.034607
     39          6           0        2.127822    0.748905   -0.201604
     40          6           0       -1.672582    0.237627   -0.301494
     41          6           0        0.688160    0.939082   -0.009756
     42          6           0       -0.233389    0.055873   -0.321717
     43          1           0       13.609383   -0.565767    1.191454
     44          1           0       13.239456   -2.151134    1.932488
     45          1           0      -14.480788   -0.318829    1.600937
     46          1           0      -14.082292   -0.524749   -0.174131
     47          1           0       12.817596   -3.020401   -0.253615
     48          1           0      -12.846983    1.540901    1.430392
     49          1           0       13.839191   -0.210844   -1.492470
     50          1           0       13.055122   -1.655429   -2.219840
     51          1           0      -13.576961    1.354391   -1.508986
     52          1           0      -12.481915    2.579875   -0.449346
     53          1           0       11.547219   -0.812569    3.251574
     54          1           0       10.223474    0.297483    2.497047
     55          1           0       11.791203    0.803284    2.417575
     56          1           0       10.703828   -2.829523    0.709580
     57          1           0       10.961961   -2.863251    2.444247
     58          1           0        9.587847   -2.039181    1.845548
     59          1           0      -11.428608    0.152169    2.805431
     60          1           0      -10.618921   -1.481437    2.405377
     61          1           0      -12.186883   -1.183674    3.155805
     62          1           0      -13.395183   -2.844396    1.379958
     63          1           0      -11.696601   -2.938398    0.766986
     64          1           0      -13.016959   -2.734221   -0.327628
     65          1           0        8.790998   -0.347884    0.508622
     66          1           0      -10.021223   -2.242945   -0.536638
     67          1           0       10.147374    0.789809   -2.365460
     68          1           0       11.816467    0.991647   -3.022199
     69          1           0       11.115216   -0.565485   -3.338503
     70          1           0      -11.473603    1.786476   -2.628075
     71          1           0      -10.249741    0.531449   -2.584081
     72          1           0       -9.952009    2.060693   -1.686620
     73          1           0       14.793941   -2.728995    0.553785
     74          1           0      -14.819822    1.689515    1.829739
     75          1           0       10.146668    2.158872   -0.401518
     76          1           0       -8.691219    0.450216   -0.063779
     77          1           0        8.638531    4.539485   -0.158592
     78          1           0        7.159719    3.993859    0.658615
     79          1           0        8.391206    3.893802    1.551058
     80          1           0       -8.391653   -3.200645   -0.284573
     81          1           0       -8.407346   -2.697178   -1.743878
     82          1           0       -6.899063   -3.198778   -1.223667
     83          1           0        6.927622    0.517723   -0.539063
     84          1           0       -6.352810    0.474887    0.040154
     85          1           0        5.073483    3.076318    0.006103
     86          1           0       -4.937210   -2.288305   -0.644891
     87          1           0        4.607520   -0.044608    0.046880
     88          1           0       -4.290660    0.669275   -0.147695
     89          1           0        3.469513    3.162590    1.424902
     90          1           0        1.932506    3.356331    0.575624
     91          1           0        3.539173    3.906226   -0.038142
     92          1           0       -2.552244   -2.723753    0.014221
     93          1           0       -3.190574   -2.477051   -1.756177
     94          1           0       -1.302559   -2.186389   -1.354922
     95          1           0        2.481379   -0.280039   -0.619960
     96          1           0       -1.910034    1.254512   -0.261126
     97          1           0        0.373270    1.896553    0.092996
     98          1           0        0.288666   -0.963141   -0.639639
 ---------------------------------------------------------------------

 SCF Done:  E(RCAM-B3LYP) =  -1706.90533387     A.U. after   14 cycles

 Excitation energies and oscillator strengths:

 Excited State   1:      Singlet-A      3.0352 eV  408.48 nm  f=3.4449  <S**2>=0.000
     155 ->158         0.17498
     156 ->157         0.67395
 This state for optimization and/or second-order correction.
 Total Energy, E(TD-HF/TD-DFT) =  -1706.79379129
 Copying the excited state density for this state as the 1-particle RhoCI density.

 The electronic state is 1-A.
 Alpha  occ. eigenvalues --  -19.21702 -19.21556 -10.30281 -10.29187 -10.28444
 Alpha  occ. eigenvalues --  -10.28117 -10.28068 -10.27795 -10.27504 -10.27469
 Alpha  occ. eigenvalues --  -10.27435 -10.27353 -10.27352 -10.26832 -10.26742
 Alpha  occ. eigenvalues --  -10.26615 -10.26575 -10.26522 -10.26446 -10.26278
 Alpha  occ. eigenvalues --  -10.26256 -10.26186 -10.26171 -10.26019 -10.26012
 Alpha  occ. eigenvalues --  -10.25965 -10.25835 -10.25766 -10.25737 -10.25511
 Alpha  occ. eigenvalues --  -10.25255 -10.25190 -10.25175 -10.25014 -10.24932
 Alpha  occ. eigenvalues --  -10.24898 -10.24840 -10.24674 -10.24587 -10.24575
 Alpha  occ. eigenvalues --  -10.23778 -10.23708  -1.09712  -1.07770  -0.93543
 Alpha  occ. eigenvalues --   -0.93098  -0.92689  -0.92204  -0.91411  -0.90084
 Alpha  occ. eigenvalues --   -0.88357  -0.87435  -0.86125  -0.85485  -0.84642
 Alpha  occ. eigenvalues --   -0.83835  -0.82264  -0.80559  -0.79746  -0.78782
 Alpha  occ. eigenvalues --   -0.78088  -0.76957  -0.76430  -0.76268  -0.75993
 Alpha  occ. eigenvalues --   -0.75431  -0.75210  -0.75031  -0.73893  -0.69953
 Alpha  occ. eigenvalues --   -0.68504  -0.66634  -0.65252  -0.65058  -0.64553
 Alpha  occ. eigenvalues --   -0.63158  -0.62539  -0.61766  -0.61013  -0.59557
 Alpha  occ. eigenvalues --   -0.58896  -0.58683  -0.58380  -0.58039  -0.56861
 Alpha  occ. eigenvalues --   -0.55569  -0.55123  -0.54820  -0.54443  -0.53628
 Alpha  occ. eigenvalues --   -0.53449  -0.52792  -0.52291  -0.51234  -0.50919
 Alpha  occ. eigenvalues --   -0.50527  -0.50444  -0.49753  -0.49480  -0.49275
 Alpha  occ. eigenvalues --   -0.49056  -0.48949  -0.48669  -0.48231  -0.47949
 Alpha  occ. eigenvalues --   -0.47814  -0.47237  -0.47078  -0.46740  -0.46503
 Alpha  occ. eigenvalues --   -0.46285  -0.46107  -0.45942  -0.45657  -0.45616
 Alpha  occ. eigenvalues --   -0.45390  -0.45300  -0.44725  -0.44425  -0.44018
 Alpha  occ. eigenvalues --   -0.43836  -0.43447  -0.43324  -0.43253  -0.42916
 Alpha  occ. eigenvalues --   -0.42783  -0.42149  -0.41818  -0.41441  -0.40732
 Alpha  occ. eigenvalues --   -0.40611  -0.40093  -0.39592  -0.39247  -0.38968
 Alpha  occ. eigenvalues --   -0.38902  -0.38383  -0.38291  -0.37473  -0.37378
 Alpha  occ. eigenvalues --   -0.37088  -0.36726  -0.36381  -0.35276  -0.34945
 Alpha  occ. eigenvalues --   -0.34905  -0.34080  -0.33679  -0.32287  -0.31425
 Alpha  occ. eigenvalues --   -0.31173  -0.30490  -0.28590  -0.26772  -0.24668
 Alpha  occ. eigenvalues --   -0.21636
 Alpha virt. eigenvalues --   -0.03587  -0.00350   0.02742   0.06079   0.07862
 Alpha virt. eigenvalues --    0.08824   0.09228   0.11053   0.11109   0.11438
 Alpha virt. eigenvalues --    0.12473   0.12855   0.13010   0.13365   0.13520

 Mulliken charges:
               1
     1  O   -0.553415
     2  O   -0.542465
     3  C   -0.052787
     4  C   -0.011670
     5  C   -0.166165
     6  C   -0.167452
     7  C    0.129033
     8  C    0.128008
     9  C    0.032870
    10  C    0.091090
    11  C   -0.241483
    12  C   -0.206126
    13  C    0.113695
    14  C   -0.007987
    15  C   -0.283598
    16  C   -0.301736
    17  C   -0.310413
    18  C   -0.311572
    19  C   -0.115560
    20  C   -0.158018
    21  C   -0.368520
    22  C   -0.356104
    23  C   -0.078410
    24  C   -0.075238
    25  C    0.048947
    26  C    0.187490
    27  C   -0.357781
    28  C   -0.406707
    29  C   -0.128236
    30  C   -0.174209
    31  C   -0.101928
    32  C   -0.063750
    33  C   -0.090713
    34  C   -0.096802
    35  C    0.117306
    36  C    0.124303
    37  C   -0.396741
    38  C   -0.356680
    39  C   -0.145609
    40  C   -0.132504
    41  C   -0.071849
    42  C   -0.081427
    43  H    0.119674
    44  H    0.079243
    45  H    0.069603
    46  H    0.099100
    47  H    0.090660
    48  H    0.082907
    49  H    0.132256
    50  H    0.111502
    51  H    0.119294
    52  H    0.121094
    53  H    0.099818
    54  H    0.086043
    55  H    0.086965
    56  H    0.110164
    57  H    0.099737
    58  H    0.109417
    59  H    0.116485
    60  H    0.083358
    61  H    0.099960
    62  H    0.105410
    63  H    0.101089
    64  H    0.110297
    65  H    0.090439
    66  H    0.056442
    67  H    0.120215
    68  H    0.086769
    69  H    0.079085
    70  H    0.110350
    71  H    0.102858
    72  H    0.125047
    73  H    0.281905
    74  H    0.296864
    75  H    0.084366
    76  H    0.069213
    77  H    0.114008
    78  H    0.126319
    79  H    0.130896
    80  H    0.118265
    81  H    0.139422
    82  H    0.111579
    83  H    0.093845
    84  H    0.082410
    85  H    0.061082
    86  H    0.048430
    87  H    0.070829
    88  H    0.071241
    89  H    0.141619
    90  H    0.116841
    91  H    0.120509
    92  H    0.101849
    93  H    0.124364
    94  H    0.122800
    95  H    0.079287
    96  H    0.091128
    97  H    0.071261
    98  H    0.065301
 Sum of Mulliken charges =  -0.00000

 Dipole moment (field-independent basis, Debye):
    X=             -0.5796    Y=             -0.5575    Z=              2.2936  Tot=              2.4305
 Quadrupole moment (field-independent basis, Debye-Ang):
   XX=           -307.3303   YY=           -246.0927   ZZ=           -258.3690
   XY=             17.6864   XZ=              4.6319   YZ=              0.4666

 Normal termination of Gaussian 16 at Mon Jul  1 07:09:39 2019.
