 Gaussian 16, Revision A.03,
 Gaussian 16:  ES64L-G16RevA.03 25-Dec-2016

 -------------------------------------
 # td=(NStates=1) CAM-B3LYP/6-31G(d,p)
 -------------------------------------

 --
 TD
 --
 Symbolic Z-matrix:
 Charge =  0 Multiplicity = 1

                         Standard orientation:
 ---------------------------------------------------------------------
 Center     Atomic      Atomic             Coordinates (Angstroms)
 Number     Number       Type             X           Y           Z
 ---------------------------------------------------------------------
      1          8           0       14.740400   -2.153011   -0.457291
      2          8           0      -14.896928    1.926931    0.658375
      3          6           0       11.445743   -1.128656    1.181753
      4          6           0      -12.379157   -0.887967    0.731569
      5          6           0       12.899905   -1.421735    1.017590
      6          6           0      -13.720307   -0.328867    0.610725
      7          6           0       13.258184   -1.873353   -0.325597
      8          6           0      -13.600491    1.221197    0.595423
      9          6           0       10.949966   -0.368909   -0.057996
     10          6           0      -11.315294   -0.196218   -0.086896
     11          6           0       12.963440   -0.835368   -1.453360
     12          6           0      -12.664295    1.689934   -0.624248
     13          6           0       11.614767   -0.232530   -1.173186
     14          6           0      -11.412775    0.947321   -0.823523
     15          6           0       11.229211   -0.378317    2.454744
     16          6           0       10.657483   -2.397336    1.334598
     17          6           0      -11.743345   -0.875035    2.077530
     18          6           0      -12.603235   -2.400155    0.390195
     19          6           0        9.616582    0.352189    0.077958
     20          6           0      -10.036832   -0.995526   -0.282233
     21          6           0       11.043730    0.511273   -2.299923
     22          6           0      -10.521698    1.530963   -1.821164
     23          6           0        9.364287    1.630980   -0.041706
     24          6           0       -8.781766   -0.547338   -0.201769
     25          6           0        7.967267    2.226938    0.168397
     26          6           0       -7.557013   -1.356672   -0.386115
     27          6           0        8.064162    3.729757    0.481738
     28          6           0       -7.658734   -2.640170   -0.963921
     29          6           0        6.842357    1.479351   -0.047675
     30          6           0       -6.443499   -0.558696   -0.279439
     31          6           0        5.528019    2.049772    0.184260
     32          6           0       -5.063815   -1.085291   -0.398759
     33          6           0        4.391678    1.226765    0.049256
     34          6           0       -3.916300   -0.375196   -0.203118
     35          6           0        3.099823    1.736386    0.104890
     36          6           0       -2.593853   -0.863536   -0.287736
     37          6           0        2.879099    3.077929    0.596608
     38          6           0       -2.317553   -2.210785   -0.884382
     39          6           0        2.067618    0.829274   -0.119410
     40          6           0       -1.514922    0.002863   -0.000355
     41          6           0        0.671598    0.943037    0.020903
     42          6           0       -0.158655   -0.078077   -0.273683
     43          1           0       13.545834   -0.591844    1.236552
     44          1           0       13.050062   -2.105630    1.894121
     45          1           0      -14.474174   -0.553068    1.459964
     46          1           0      -14.204352   -0.754835   -0.456169
     47          1           0       12.707024   -2.782798   -0.550874
     48          1           0      -13.051383    1.597838    1.674298
     49          1           0       13.684409   -0.176650   -1.680200
     50          1           0       12.856713   -1.277765   -2.312717
     51          1           0      -13.252803    1.811049   -1.603202
     52          1           0      -12.434600    2.785438   -0.422641
     53          1           0       11.709878   -0.872044    3.261280
     54          1           0       10.157673   -0.486453    2.892793
     55          1           0       11.587459    0.510465    2.161102
     56          1           0       10.864598   -2.894351    0.456191
     57          1           0       10.993928   -3.075284    2.040594
     58          1           0        9.515939   -2.246496    1.530152
     59          1           0      -11.593365    0.031927    2.522733
     60          1           0      -10.729334   -1.526049    2.109189
     61          1           0      -12.428411   -1.302784    2.876749
     62          1           0      -13.558964   -2.866772    0.988948
     63          1           0      -11.680756   -2.826449    0.596321
     64          1           0      -12.797796   -2.313370   -0.592566
     65          1           0        8.786492   -0.061623    0.638001
     66          1           0      -10.085546   -1.976642   -0.462331
     67          1           0        9.830796    0.567501   -2.393310
     68          1           0       11.638209    1.350693   -2.306800
     69          1           0       11.469647    0.076441   -3.402130
     70          1           0      -10.977504    2.031060   -2.595773
     71          1           0       -9.808113    0.681656   -2.227915
     72          1           0       -9.935334    2.384841   -1.642402
     73          1           0       14.945015   -2.775433    0.282516
     74          1           0      -15.383716    1.604038    1.406777
     75          1           0       10.105860    2.435077   -0.546625
     76          1           0       -8.587097    0.518776    0.269019
     77          1           0        8.528486    4.047794   -0.387033
     78          1           0        7.017272    4.149394    0.875050
     79          1           0        8.637995    3.949065    1.372106
     80          1           0       -8.044938   -3.284500   -0.078270
     81          1           0       -8.128020   -2.872435   -2.062943
     82          1           0       -6.763350   -3.007663   -1.122097
     83          1           0        6.823303    0.472061   -0.326982
     84          1           0       -6.276508    0.354475    0.187387
     85          1           0        5.518823    3.229781    0.545899
     86          1           0       -4.958252   -2.101510   -0.845438
     87          1           0        4.750526    0.331146   -0.685959
     88          1           0       -4.044371    0.658024    0.284816
     89          1           0        2.950546    3.187754    1.777475
     90          1           0        1.694027    3.490681    0.584952
     91          1           0        3.621933    3.784225    0.218144
     92          1           0       -2.978523   -3.059618   -0.394034
     93          1           0       -2.569593   -2.378565   -2.064841
     94          1           0       -1.267307   -2.613290   -0.408945
     95          1           0        2.329319   -0.112558   -0.485629
     96          1           0       -1.885976    0.903505    0.439302
     97          1           0        0.156477    1.803090    0.461328
     98          1           0        0.365799   -0.943863   -0.846255
 ---------------------------------------------------------------------

 SCF Done:  E(RCAM-B3LYP) =  -1706.89666793     A.U. after   15 cycles

 Excitation energies and oscillator strengths:

 Excited State   1:      Singlet-A      2.4156 eV  513.27 nm  f=3.5982  <S**2>=0.000
     155 ->158        -0.13692
     156 ->157         0.69340
 This state for optimization and/or second-order correction.
 Total Energy, E(TD-HF/TD-DFT) =  -1706.80789772
 Copying the excited state density for this state as the 1-particle RhoCI density.

 The electronic state is 1-A.
 Alpha  occ. eigenvalues --  -19.20895 -19.20422 -10.32577 -10.30870 -10.28145
 Alpha  occ. eigenvalues --  -10.28120 -10.27896 -10.27412 -10.27319 -10.27281
 Alpha  occ. eigenvalues --  -10.27061 -10.27056 -10.27018 -10.26913 -10.26634
 Alpha  occ. eigenvalues --  -10.26563 -10.26485 -10.26445 -10.26426 -10.26425
 Alpha  occ. eigenvalues --  -10.26400 -10.26123 -10.26088 -10.26071 -10.26049
 Alpha  occ. eigenvalues --  -10.26000 -10.25984 -10.25925 -10.25924 -10.25848
 Alpha  occ. eigenvalues --  -10.25797 -10.25642 -10.25555 -10.25326 -10.24982
 Alpha  occ. eigenvalues --  -10.24350 -10.24347 -10.24237 -10.24231 -10.23828
 Alpha  occ. eigenvalues --  -10.23722 -10.23425  -1.07356  -1.06396  -0.95335
 Alpha  occ. eigenvalues --   -0.94464  -0.92435  -0.91875  -0.90961  -0.90214
 Alpha  occ. eigenvalues --   -0.89297  -0.88202  -0.87655  -0.85717  -0.84518
 Alpha  occ. eigenvalues --   -0.83051  -0.82069  -0.80865  -0.80185  -0.78333
 Alpha  occ. eigenvalues --   -0.77728  -0.77610  -0.77340  -0.76472  -0.76252
 Alpha  occ. eigenvalues --   -0.75751  -0.75603  -0.74509  -0.73375  -0.70247
 Alpha  occ. eigenvalues --   -0.68192  -0.67350  -0.66018  -0.64750  -0.64412
 Alpha  occ. eigenvalues --   -0.63904  -0.62102  -0.61496  -0.60316  -0.60013
 Alpha  occ. eigenvalues --   -0.59167  -0.58554  -0.57750  -0.56451  -0.56428
 Alpha  occ. eigenvalues --   -0.55673  -0.55296  -0.55047  -0.54399  -0.53767
 Alpha  occ. eigenvalues --   -0.53541  -0.53094  -0.52580  -0.51630  -0.51523
 Alpha  occ. eigenvalues --   -0.51319  -0.50964  -0.50690  -0.50437  -0.49969
 Alpha  occ. eigenvalues --   -0.49698  -0.49093  -0.48767  -0.48317  -0.47916
 Alpha  occ. eigenvalues --   -0.47619  -0.47563  -0.47168  -0.46779  -0.46629
 Alpha  occ. eigenvalues --   -0.45911  -0.45268  -0.44868  -0.44684  -0.44487
 Alpha  occ. eigenvalues --   -0.44387  -0.43884  -0.43852  -0.43744  -0.43228
 Alpha  occ. eigenvalues --   -0.42980  -0.42572  -0.42262  -0.42217  -0.41972
 Alpha  occ. eigenvalues --   -0.41663  -0.41512  -0.40856  -0.40744  -0.40435
 Alpha  occ. eigenvalues --   -0.40176  -0.40083  -0.39942  -0.39274  -0.39101
 Alpha  occ. eigenvalues --   -0.38903  -0.38682  -0.38195  -0.38155  -0.37886
 Alpha  occ. eigenvalues --   -0.37884  -0.37634  -0.36963  -0.36189  -0.35885
 Alpha  occ. eigenvalues --   -0.35227  -0.34458  -0.33983  -0.32500  -0.32171
 Alpha  occ. eigenvalues --   -0.31092  -0.29842  -0.28309  -0.26725  -0.24155
 Alpha  occ. eigenvalues --   -0.19712
 Alpha virt. eigenvalues --   -0.05185   0.00078   0.03317   0.06089   0.07578
 Alpha virt. eigenvalues --    0.09710   0.10550   0.10983   0.11119   0.11830
 Alpha virt. eigenvalues --    0.11976   0.12372   0.12795   0.13116   0.13159

 Mulliken charges:
               1
     1  O   -0.581576
     2  O   -0.575350
     3  C   -0.039446
     4  C   -0.022446
     5  C   -0.187067
     6  C   -0.175695
     7  C    0.139947
     8  C    0.174862
     9  C    0.064894
    10  C    0.049125
    11  C   -0.189296
    12  C   -0.248955
    13  C    0.040403
    14  C    0.119112
    15  C   -0.275098
    16  C   -0.294324
    17  C   -0.282429
    18  C   -0.272659
    19  C   -0.153223
    20  C   -0.165304
    21  C   -0.358157
    22  C   -0.372179
    23  C   -0.070477
    24  C   -0.069883
    25  C    0.028223
    26  C    0.097210
    27  C   -0.348978
    28  C   -0.360542
    29  C   -0.092301
    30  C   -0.098985
    31  C   -0.079948
    32  C   -0.111929
    33  C   -0.149459
    34  C   -0.119893
    35  C    0.152176
    36  C    0.128433
    37  C   -0.377287
    38  C   -0.373303
    39  C   -0.133913
    40  C   -0.136602
    41  C   -0.057122
    42  C   -0.068534
    43  H    0.109297
    44  H    0.081531
    45  H    0.075641
    46  H    0.079943
    47  H    0.093074
    48  H    0.048601
    49  H    0.127397
    50  H    0.125197
    51  H    0.108103
    52  H    0.104879
    53  H    0.097479
    54  H    0.086306
    55  H    0.111067
    56  H    0.099858
    57  H    0.101984
    58  H    0.095198
    59  H    0.111823
    60  H    0.095310
    61  H    0.073586
    62  H    0.089056
    63  H    0.100399
    64  H    0.113228
    65  H    0.087055
    66  H    0.077934
    67  H    0.124419
    68  H    0.132827
    69  H    0.057502
    70  H    0.113389
    71  H    0.113294
    72  H    0.121506
    73  H    0.300097
    74  H    0.304437
    75  H    0.072208
    76  H    0.074974
    77  H    0.138568
    78  H    0.092109
    79  H    0.130997
    80  H    0.114223
    81  H    0.114834
    82  H    0.122048
    83  H    0.089058
    84  H    0.084414
    85  H    0.071014
    86  H    0.072365
    87  H    0.085118
    88  H    0.070952
    89  H    0.112431
    90  H    0.091025
    91  H    0.122832
    92  H    0.099241
    93  H    0.113600
    94  H    0.099209
    95  H    0.072627
    96  H    0.076724
    97  H    0.078361
    98  H    0.087627
 Sum of Mulliken charges =  -0.00000

 Dipole moment (field-independent basis, Debye):
    X=              1.6158    Y=             -1.1690    Z=              1.6206  Tot=              2.5697
 Quadrupole moment (field-independent basis, Debye-Ang):
   XX=           -286.1562   YY=           -247.1609   ZZ=           -257.8635
   XY=             18.8977   XZ=              3.4733   YZ=              0.6245

 Normal termination of Gaussian 16 at Thu Jun 27 18:41:14 2019.
