 Gaussian 16, Revision A.03,
 Gaussian 16:  ES64L-G16RevA.03 25-Dec-2016

 -------------------------------------
 # td=(NStates=1) CAM-B3LYP/6-31G(d,p)
 -------------------------------------

 --
 TD
 --
 Symbolic Z-matrix:
 Charge =  0 Multiplicity = 1

                         Standard orientation:
 ---------------------------------------------------------------------
 Center     Atomic      Atomic             Coordinates (Angstroms)
 Number     Number       Type             X           Y           Z
 ---------------------------------------------------------------------
      1          8           0       14.671709   -2.213691   -0.412742
      2          8           0      -14.702510    1.966175    0.529427
      3          6           0       11.315994   -1.161847    1.102527
      4          6           0      -12.233314   -0.938594    0.837530
      5          6           0       12.812489   -1.610326    1.006669
      6          6           0      -13.581913   -0.263153    0.796438
      7          6           0       13.217967   -2.049207   -0.349917
      8          6           0      -13.486094    1.337018    0.603573
      9          6           0       10.906392   -0.314565   -0.097629
     10          6           0      -11.247930   -0.360486   -0.176258
     11          6           0       12.981236   -0.893508   -1.349513
     12          6           0      -12.728536    1.601323   -0.737486
     13          6           0       11.663408   -0.148188   -1.181467
     14          6           0      -11.596955    0.633901   -0.999092
     15          6           0       11.150780   -0.521833    2.437999
     16          6           0       10.395451   -2.479824    1.073906
     17          6           0      -11.523551   -0.686800    2.294916
     18          6           0      -12.478019   -2.360861    0.571315
     19          6           0        9.531720    0.262300    0.072426
     20          6           0      -10.015009   -1.118295   -0.379191
     21          6           0       11.302323    0.661751   -2.404596
     22          6           0      -10.752638    1.191169   -2.186237
     23          6           0        9.238846    1.632993   -0.165600
     24          6           0       -8.775560   -0.494649   -0.164337
     25          6           0        8.012968    2.249191    0.135864
     26          6           0       -7.526098   -1.315151   -0.424128
     27          6           0        8.073925    3.761937    0.705334
     28          6           0       -7.650444   -2.741219   -0.956314
     29          6           0        6.877030    1.621311   -0.039105
     30          6           0       -6.353794   -0.668417   -0.299609
     31          6           0        5.537465    2.152559    0.251541
     32          6           0       -5.045971   -1.099777   -0.375306
     33          6           0        4.495984    1.375980    0.011901
     34          6           0       -3.964827   -0.243709   -0.185453
     35          6           0        3.094089    1.693758    0.169015
     36          6           0       -2.598093   -0.695446   -0.396614
     37          6           0        2.643814    3.016264    0.924128
     38          6           0       -2.118965   -2.120325   -0.658716
     39          6           0        2.037439    0.838944   -0.128345
     40          6           0       -1.639169    0.227461   -0.217716
     41          6           0        0.661453    0.996883    0.002812
     42          6           0       -0.238199    0.096674   -0.265617
     43          1           0       13.499940   -0.507650    1.386006
     44          1           0       12.964874   -2.338522    1.697909
     45          1           0      -14.088925   -0.609961    1.701397
     46          1           0      -13.969165   -0.695909   -0.027515
     47          1           0       12.721484   -2.981907   -0.465133
     48          1           0      -12.827581    1.771321    1.613974
     49          1           0       13.689181   -0.207797   -1.158291
     50          1           0       13.131549   -1.178598   -2.360268
     51          1           0      -13.578305    1.410995   -1.411052
     52          1           0      -12.632719    2.673302   -0.809612
     53          1           0       11.374724   -1.191557    3.369257
     54          1           0       10.132568   -0.411949    2.824791
     55          1           0       11.421746    0.526663    2.214590
     56          1           0       10.551670   -2.897585    0.206317
     57          1           0       10.408607   -3.139733    2.087892
     58          1           0        9.325849   -2.315303    1.138806
     59          1           0      -11.626680    0.377919    2.698196
     60          1           0      -10.490202   -1.004505    2.401563
     61          1           0      -12.120331   -1.371796    3.084545
     62          1           0      -13.169739   -2.993213    1.317540
     63          1           0      -11.467850   -2.877155    0.839101
     64          1           0      -12.863423   -2.485712   -0.433044
     65          1           0        8.823281   -0.292866    0.687899
     66          1           0      -10.100266   -2.047425   -0.472291
     67          1           0       10.254226    0.942414   -2.399885
     68          1           0       12.091953    1.606178   -2.496256
     69          1           0       11.596235    0.133448   -3.374617
     70          1           0      -11.502656    1.620471   -2.988123
     71          1           0      -10.062621    0.522623   -2.516086
     72          1           0      -10.211413    2.007736   -1.730080
     73          1           0       14.920796   -2.842167    0.320783
     74          1           0      -15.410014    1.767601    1.166023
     75          1           0       10.113147    2.160081   -0.527971
     76          1           0       -8.902373    0.575098    0.016316
     77          1           0        9.055032    4.188267    0.195608
     78          1           0        7.154415    4.365817    0.185751
     79          1           0        7.968076    3.984138    1.952635
     80          1           0       -7.923958   -3.062947   -0.055470
     81          1           0       -8.365782   -2.860557   -1.683897
     82          1           0       -6.641899   -3.198722   -1.245316
     83          1           0        7.019112    0.546415   -0.628217
     84          1           0       -6.330129    0.404824   -0.166202
     85          1           0        5.631764    3.198548    0.624627
     86          1           0       -4.628239   -2.192192   -0.409825
     87          1           0        4.578666    0.449636   -0.398099
     88          1           0       -4.242965    0.839250   -0.057259
     89          1           0        3.021727    3.091216    1.949110
     90          1           0        1.640708    3.006471    1.025308
     91          1           0        3.080133    4.107395    0.337205
     92          1           0       -2.371700   -3.027051    0.066075
     93          1           0       -2.663760   -2.601027   -1.510603
     94          1           0       -1.126180   -2.012526   -0.849505
     95          1           0        2.288934   -0.011166   -0.670804
     96          1           0       -1.969131    1.361606    0.121206
     97          1           0        0.385922    2.117728    0.011953
     98          1           0        0.313939   -0.810959   -0.488328
 ---------------------------------------------------------------------

 SCF Done:  E(RCAM-B3LYP) =  -1706.91723083     A.U. after   14 cycles

 Excitation energies and oscillator strengths:

 Excited State   1:      Singlet-A      2.7210 eV  455.65 nm  f=3.7671  <S**2>=0.000
     155 ->158         0.18335
     156 ->157         0.67697
 This state for optimization and/or second-order correction.
 Total Energy, E(TD-HF/TD-DFT) =  -1706.81723510
 Copying the excited state density for this state as the 1-particle RhoCI density.

 The electronic state is 1-A.
 Alpha  occ. eigenvalues --  -19.21313 -19.20908 -10.32203 -10.30153 -10.29804
 Alpha  occ. eigenvalues --  -10.27849 -10.27830 -10.27736 -10.27686 -10.27137
 Alpha  occ. eigenvalues --  -10.27019 -10.26980 -10.26770 -10.26734 -10.26694
 Alpha  occ. eigenvalues --  -10.26691 -10.26690 -10.26632 -10.26478 -10.26373
 Alpha  occ. eigenvalues --  -10.26339 -10.26256 -10.26197 -10.26196 -10.26014
 Alpha  occ. eigenvalues --  -10.26011 -10.25936 -10.25791 -10.25646 -10.25617
 Alpha  occ. eigenvalues --  -10.25540 -10.25487 -10.25086 -10.25059 -10.24928
 Alpha  occ. eigenvalues --  -10.24880 -10.24859 -10.24674 -10.24628 -10.24507
 Alpha  occ. eigenvalues --  -10.24043 -10.23795  -1.10218  -1.07526  -0.93680
 Alpha  occ. eigenvalues --   -0.93584  -0.92693  -0.91610  -0.90974  -0.89852
 Alpha  occ. eigenvalues --   -0.87776  -0.87001  -0.86786  -0.85608  -0.84512
 Alpha  occ. eigenvalues --   -0.83370  -0.82197  -0.79383  -0.79273  -0.77511
 Alpha  occ. eigenvalues --   -0.77398  -0.76668  -0.75878  -0.75749  -0.75609
 Alpha  occ. eigenvalues --   -0.75215  -0.74844  -0.74658  -0.73763  -0.70962
 Alpha  occ. eigenvalues --   -0.69269  -0.67779  -0.66465  -0.65694  -0.64441
 Alpha  occ. eigenvalues --   -0.63524  -0.62759  -0.61842  -0.61072  -0.60319
 Alpha  occ. eigenvalues --   -0.59346  -0.58228  -0.57797  -0.57018  -0.56381
 Alpha  occ. eigenvalues --   -0.55409  -0.55095  -0.54744  -0.54550  -0.53958
 Alpha  occ. eigenvalues --   -0.52936  -0.52542  -0.52327  -0.51738  -0.51520
 Alpha  occ. eigenvalues --   -0.51274  -0.51061  -0.50162  -0.49695  -0.49599
 Alpha  occ. eigenvalues --   -0.48795  -0.48197  -0.48023  -0.47883  -0.47859
 Alpha  occ. eigenvalues --   -0.47335  -0.46945  -0.46414  -0.45910  -0.45710
 Alpha  occ. eigenvalues --   -0.45594  -0.45313  -0.44973  -0.44965  -0.44820
 Alpha  occ. eigenvalues --   -0.44440  -0.43922  -0.43897  -0.43475  -0.43298
 Alpha  occ. eigenvalues --   -0.43252  -0.42894  -0.42755  -0.42379  -0.42063
 Alpha  occ. eigenvalues --   -0.41898  -0.41613  -0.41439  -0.41101  -0.41041
 Alpha  occ. eigenvalues --   -0.40455  -0.39860  -0.39821  -0.39755  -0.39480
 Alpha  occ. eigenvalues --   -0.38743  -0.38480  -0.38265  -0.38095  -0.37959
 Alpha  occ. eigenvalues --   -0.37785  -0.37170  -0.36502  -0.35822  -0.35595
 Alpha  occ. eigenvalues --   -0.34780  -0.34105  -0.33622  -0.32280  -0.32089
 Alpha  occ. eigenvalues --   -0.30921  -0.30173  -0.28208  -0.26578  -0.23929
 Alpha  occ. eigenvalues --   -0.20819
 Alpha virt. eigenvalues --   -0.04427  -0.00525   0.02703   0.05926   0.08175
 Alpha virt. eigenvalues --    0.09411   0.10533   0.11268   0.12088   0.12471
 Alpha virt. eigenvalues --    0.12692   0.12784   0.12939   0.13170   0.13734

 Mulliken charges:
               1
     1  O   -0.568103
     2  O   -0.557715
     3  C   -0.016648
     4  C   -0.008789
     5  C   -0.157093
     6  C   -0.185712
     7  C    0.159426
     8  C    0.200493
     9  C    0.047350
    10  C    0.048846
    11  C   -0.205127
    12  C   -0.236473
    13  C    0.048812
    14  C    0.039394
    15  C   -0.303787
    16  C   -0.312482
    17  C   -0.314675
    18  C   -0.305397
    19  C   -0.121965
    20  C   -0.110735
    21  C   -0.362490
    22  C   -0.342638
    23  C   -0.135135
    24  C   -0.092721
    25  C    0.093720
    26  C    0.044879
    27  C   -0.345822
    28  C   -0.350042
    29  C   -0.113173
    30  C   -0.116817
    31  C   -0.076244
    32  C   -0.072741
    33  C   -0.089197
    34  C   -0.123186
    35  C    0.086656
    36  C    0.119028
    37  C   -0.344266
    38  C   -0.365659
    39  C   -0.143437
    40  C   -0.132879
    41  C   -0.076785
    42  C   -0.082332
    43  H    0.047541
    44  H    0.087271
    45  H    0.084387
    46  H    0.096120
    47  H    0.092404
    48  H    0.020729
    49  H    0.140115
    50  H    0.109382
    51  H    0.118496
    52  H    0.122747
    53  H    0.097363
    54  H    0.095524
    55  H    0.112359
    56  H    0.113975
    57  H    0.073757
    58  H    0.106577
    59  H    0.103985
    60  H    0.112866
    61  H    0.064858
    62  H    0.087532
    63  H    0.091724
    64  H    0.113693
    65  H    0.098877
    66  H    0.069180
    67  H    0.128119
    68  H    0.089569
    69  H    0.105941
    70  H    0.095520
    71  H    0.120034
    72  H    0.120988
    73  H    0.299563
    74  H    0.315009
    75  H    0.097848
    76  H    0.100183
    77  H    0.106268
    78  H    0.098426
    79  H    0.107033
    80  H    0.145874
    81  H    0.132913
    82  H    0.108462
    83  H    0.074989
    84  H    0.077718
    85  H    0.097318
    86  H    0.070228
    87  H    0.078693
    88  H    0.085212
    89  H    0.119831
    90  H    0.116730
    91  H    0.064049
    92  H    0.110049
    93  H    0.113120
    94  H    0.123333
    95  H    0.073683
    96  H    0.072675
    97  H    0.086457
    98  H    0.084364
 Sum of Mulliken charges =  -0.00000

 Dipole moment (field-independent basis, Debye):
    X=             -1.4723    Y=             -2.0339    Z=              1.3382  Tot=              2.8452
 Quadrupole moment (field-independent basis, Debye-Ang):
   XX=           -263.4318   YY=           -246.5642   ZZ=           -261.0029
   XY=              6.7051   XZ=              2.4635   YZ=              0.2338

 Normal termination of Gaussian 16 at Mon Jul  1 14:52:55 2019.
