 Gaussian 16, Revision A.03,
 Gaussian 16:  ES64L-G16RevA.03 25-Dec-2016

 -------------------------------------
 # td=(NStates=1) CAM-B3LYP/6-31G(d,p)
 -------------------------------------

 --
 TD
 --
 Symbolic Z-matrix:
 Charge =  0 Multiplicity = 1

                         Standard orientation:
 ---------------------------------------------------------------------
 Center     Atomic      Atomic             Coordinates (Angstroms)
 Number     Number       Type             X           Y           Z
 ---------------------------------------------------------------------
      1          8           0       14.687568   -2.153279   -0.478477
      2          8           0      -14.720871    1.967589    0.778396
      3          6           0       11.460010   -1.110784    1.208776
      4          6           0      -12.208454   -0.871485    0.851334
      5          6           0       12.988004   -1.406516    1.053858
      6          6           0      -13.636848   -0.130369    0.805289
      7          6           0       13.373883   -1.922563   -0.256229
      8          6           0      -13.489236    1.315874    0.741808
      9          6           0       10.884727   -0.304113    0.061328
     10          6           0      -11.346542   -0.302139   -0.330793
     11          6           0       12.964202   -0.954133   -1.403297
     12          6           0      -12.841610    1.628769   -0.588743
     13          6           0       11.675127   -0.283535   -1.140613
     14          6           0      -11.608020    0.837317   -0.955243
     15          6           0       11.241366   -0.306778    2.473731
     16          6           0       10.629386   -2.342920    1.381891
     17          6           0      -11.572853   -0.596401    2.255328
     18          6           0      -12.626773   -2.496636    0.778360
     19          6           0        9.601259    0.306845    0.212013
     20          6           0      -10.096507   -1.050130   -0.341480
     21          6           0       11.237423    0.574767   -2.292014
     22          6           0      -10.760259    1.308581   -2.140971
     23          6           0        9.370697    1.613840   -0.151667
     24          6           0       -8.892660   -0.599339   -0.308123
     25          6           0        8.032224    2.225665    0.163087
     26          6           0       -7.596137   -1.300408   -0.485806
     27          6           0        8.088404    3.691658    0.498495
     28          6           0       -7.747414   -2.851450   -0.794775
     29          6           0        6.847888    1.544394    0.032463
     30          6           0       -6.465762   -0.646982   -0.426197
     31          6           0        5.472845    2.022936    0.196446
     32          6           0       -5.042532   -1.225735   -0.488500
     33          6           0        4.481752    1.262949    0.006819
     34          6           0       -4.047202   -0.366126   -0.381338
     35          6           0        2.992076    1.689646    0.124479
     36          6           0       -2.695337   -0.704873   -0.541023
     37          6           0        2.801782    3.024904    0.524786
     38          6           0       -2.258049   -2.139933   -0.935485
     39          6           0        2.128500    0.779914   -0.093682
     40          6           0       -1.605836    0.183573   -0.254762
     41          6           0        0.696234    0.996412   -0.019386
     42          6           0       -0.183184    0.095883   -0.338552
     43          1           0       13.505457   -0.476186    1.354729
     44          1           0       13.207559   -2.291258    1.563045
     45          1           0      -14.143747   -0.547336    1.689869
     46          1           0      -14.199156   -0.495002    0.089878
     47          1           0       12.739046   -2.807024   -0.643064
     48          1           0      -12.772496    1.609140    1.723515
     49          1           0       13.913361   -0.461411   -1.470269
     50          1           0       12.859874   -1.279166   -2.397873
     51          1           0      -13.466374    1.443238   -1.374872
     52          1           0      -12.783669    2.673397   -0.936464
     53          1           0       11.905192   -1.099039    3.200249
     54          1           0       10.185606   -0.177228    2.678708
     55          1           0       11.663860    0.585695    2.614938
     56          1           0       10.587702   -2.891233    0.365231
     57          1           0       11.138798   -2.903947    2.073091
     58          1           0        9.664983   -2.229592    1.632511
     59          1           0      -11.292277    0.428574    2.241732
     60          1           0      -10.719935   -1.388204    2.230896
     61          1           0      -12.036241   -1.047371    3.036114
     62          1           0      -13.232324   -2.710970    1.664454
     63          1           0      -11.629322   -3.032072    0.916066
     64          1           0      -13.011419   -2.715582   -0.096610
     65          1           0        8.785104   -0.249293    0.709787
     66          1           0      -10.147049   -2.035038   -0.304539
     67          1           0       10.130974    0.703581   -2.278695
     68          1           0       11.600355    1.660150   -2.397602
     69          1           0       11.474120    0.095568   -3.335969
     70          1           0      -11.374794    1.432205   -3.129682
     71          1           0       -9.899849    0.654286   -2.383820
     72          1           0      -10.514609    2.246977   -1.774074
     73          1           0       15.143488   -3.042794   -0.060606
     74          1           0      -14.808596    1.879175    1.899759
     75          1           0       10.317543    2.130243   -0.396879
     76          1           0       -8.815697    0.505686   -0.385949
     77          1           0        8.547437    4.232373   -0.319626
     78          1           0        7.132050    4.243632    0.877561
     79          1           0        8.743241    3.881618    1.415083
     80          1           0       -8.492546   -3.533114   -0.180953
     81          1           0       -8.215946   -3.078044   -1.725863
     82          1           0       -6.719724   -3.189749   -0.724267
     83          1           0        6.870979    0.494589   -0.245442
     84          1           0       -6.393783    0.362999   -0.024696
     85          1           0        5.099763    3.063665    0.380956
     86          1           0       -4.883634   -2.212220   -0.882393
     87          1           0        4.592138    0.354698   -0.321034
     88          1           0       -4.242693    0.873802   -0.016052
     89          1           0        2.933365    3.173523    1.687290
     90          1           0        1.819150    3.210466    0.719741
     91          1           0        3.366417    3.673527    0.083892
     92          1           0       -2.708587   -2.709816   -0.196038
     93          1           0       -2.705721   -2.327576   -1.908717
     94          1           0       -1.011670   -2.233172   -0.989049
     95          1           0        2.425257   -0.275252   -0.312718
     96          1           0       -2.091454    1.129281    0.058824
     97          1           0        0.428778    1.998970    0.215766
     98          1           0        0.318677   -0.960317   -0.518903
 ---------------------------------------------------------------------

 SCF Done:  E(RCAM-B3LYP) =  -1706.89299265     A.U. after   14 cycles

 Excitation energies and oscillator strengths:

 Excited State   1:      Singlet-A      3.2201 eV  385.03 nm  f=3.5323  <S**2>=0.000
     155 ->158         0.20101
     156 ->157         0.66296
 This state for optimization and/or second-order correction.
 Total Energy, E(TD-HF/TD-DFT) =  -1706.77465622
 Copying the excited state density for this state as the 1-particle RhoCI density.

 The electronic state is 1-A.
 Alpha  occ. eigenvalues --  -19.22791 -19.22344 -10.31357 -10.29969 -10.27844
 Alpha  occ. eigenvalues --  -10.27835 -10.27823 -10.27539 -10.27241 -10.26764
 Alpha  occ. eigenvalues --  -10.26659 -10.26620 -10.26611 -10.26595 -10.26576
 Alpha  occ. eigenvalues --  -10.26455 -10.26276 -10.26232 -10.26228 -10.26055
 Alpha  occ. eigenvalues --  -10.26040 -10.25991 -10.25874 -10.25713 -10.25390
 Alpha  occ. eigenvalues --  -10.25386 -10.25033 -10.25005 -10.24995 -10.24957
 Alpha  occ. eigenvalues --  -10.24804 -10.24570 -10.24497 -10.24454 -10.24440
 Alpha  occ. eigenvalues --  -10.24096 -10.23924 -10.23522 -10.23333 -10.23289
 Alpha  occ. eigenvalues --  -10.23041 -10.22639  -1.10212  -1.09284  -0.93740
 Alpha  occ. eigenvalues --   -0.93385  -0.93118  -0.91495  -0.90232  -0.89568
 Alpha  occ. eigenvalues --   -0.88097  -0.86965  -0.86224  -0.86082  -0.85237
 Alpha  occ. eigenvalues --   -0.83885  -0.82171  -0.80374  -0.80296  -0.79114
 Alpha  occ. eigenvalues --   -0.76704  -0.76552  -0.76252  -0.76138  -0.76065
 Alpha  occ. eigenvalues --   -0.75917  -0.75646  -0.75020  -0.74293  -0.70282
 Alpha  occ. eigenvalues --   -0.68244  -0.66805  -0.65586  -0.65010  -0.63993
 Alpha  occ. eigenvalues --   -0.63393  -0.62639  -0.61912  -0.61439  -0.60212
 Alpha  occ. eigenvalues --   -0.59980  -0.59139  -0.58964  -0.57616  -0.56367
 Alpha  occ. eigenvalues --   -0.56041  -0.55649  -0.55484  -0.53991  -0.53679
 Alpha  occ. eigenvalues --   -0.53503  -0.53106  -0.52300  -0.51842  -0.51579
 Alpha  occ. eigenvalues --   -0.51466  -0.50832  -0.50615  -0.50175  -0.50069
 Alpha  occ. eigenvalues --   -0.49582  -0.49481  -0.48960  -0.48032  -0.47966
 Alpha  occ. eigenvalues --   -0.47386  -0.47292  -0.47014  -0.46683  -0.46258
 Alpha  occ. eigenvalues --   -0.46173  -0.45999  -0.45624  -0.44982  -0.44772
 Alpha  occ. eigenvalues --   -0.44568  -0.44464  -0.44364  -0.44062  -0.43856
 Alpha  occ. eigenvalues --   -0.43393  -0.43230  -0.43035  -0.42976  -0.41962
 Alpha  occ. eigenvalues --   -0.41583  -0.41267  -0.41117  -0.40700  -0.40679
 Alpha  occ. eigenvalues --   -0.40496  -0.40363  -0.39887  -0.39536  -0.39493
 Alpha  occ. eigenvalues --   -0.38839  -0.38588  -0.37995  -0.37907  -0.37458
 Alpha  occ. eigenvalues --   -0.37277  -0.36929  -0.36319  -0.35793  -0.35700
 Alpha  occ. eigenvalues --   -0.34509  -0.34081  -0.32686  -0.32450  -0.31982
 Alpha  occ. eigenvalues --   -0.31270  -0.30107  -0.27678  -0.26166  -0.23891
 Alpha  occ. eigenvalues --   -0.21815
 Alpha virt. eigenvalues --   -0.02989   0.00294   0.03414   0.06035   0.07867
 Alpha virt. eigenvalues --    0.08421   0.09378   0.09978   0.11011   0.11193
 Alpha virt. eigenvalues --    0.11992   0.12463   0.13133   0.13611   0.14048

 Mulliken charges:
               1
     1  O   -0.573417
     2  O   -0.543952
     3  C   -0.054959
     4  C   -0.060922
     5  C   -0.162665
     6  C   -0.145710
     7  C    0.179138
     8  C    0.164758
     9  C    0.066540
    10  C    0.048257
    11  C   -0.231853
    12  C   -0.234484
    13  C    0.054971
    14  C    0.046574
    15  C   -0.270345
    16  C   -0.281095
    17  C   -0.285278
    18  C   -0.317509
    19  C   -0.117803
    20  C   -0.100045
    21  C   -0.377397
    22  C   -0.353069
    23  C   -0.120463
    24  C   -0.087939
    25  C    0.078778
    26  C    0.109706
    27  C   -0.374112
    28  C   -0.371240
    29  C   -0.137612
    30  C   -0.138841
    31  C   -0.055969
    32  C   -0.117498
    33  C   -0.072403
    34  C   -0.073553
    35  C    0.141027
    36  C    0.077356
    37  C   -0.378165
    38  C   -0.356995
    39  C   -0.144854
    40  C   -0.133951
    41  C   -0.064510
    42  C   -0.081534
    43  H    0.109445
    44  H    0.087585
    45  H    0.064074
    46  H    0.102641
    47  H    0.065488
    48  H    0.038771
    49  H    0.124535
    50  H    0.106628
    51  H    0.133327
    52  H    0.099723
    53  H    0.051506
    54  H    0.103807
    55  H    0.111366
    56  H    0.088047
    57  H    0.101281
    58  H    0.110930
    59  H    0.115814
    60  H    0.087033
    61  H    0.108222
    62  H    0.106236
    63  H    0.087343
    64  H    0.121759
    65  H    0.096885
    66  H    0.053690
    67  H    0.121344
    68  H    0.105167
    69  H    0.077883
    70  H    0.095967
    71  H    0.128044
    72  H    0.126043
    73  H    0.312860
    74  H    0.310385
    75  H    0.111390
    76  H    0.063051
    77  H    0.125572
    78  H    0.104750
    79  H    0.108683
    80  H    0.104466
    81  H    0.130516
    82  H    0.106602
    83  H    0.082485
    84  H    0.089318
    85  H    0.064451
    86  H    0.099154
    87  H    0.051635
    88  H    0.066835
    89  H    0.107425
    90  H    0.112816
    91  H    0.134329
    92  H    0.131303
    93  H    0.121237
    94  H    0.090288
    95  H    0.078424
    96  H    0.064095
    97  H    0.081621
    98  H    0.068760
 Sum of Mulliken charges =  -0.00000

 Dipole moment (field-independent basis, Debye):
    X=              0.8304    Y=             -1.3106    Z=              1.8676  Tot=              2.4280
 Quadrupole moment (field-independent basis, Debye-Ang):
   XX=           -259.4300   YY=           -241.3046   ZZ=           -259.8480
   XY=             -0.9859   XZ=             -0.9286   YZ=              3.0503

 Normal termination of Gaussian 16 at Fri Jul  5 11:23:10 2019.
