 Gaussian 16, Revision A.03,
 Gaussian 16:  ES64L-G16RevA.03 25-Dec-2016

 -------------------------------------
 # td=(NStates=1) CAM-B3LYP/6-31G(d,p)
 -------------------------------------

 --
 TD
 --
 Symbolic Z-matrix:
 Charge =  0 Multiplicity = 1

                         Standard orientation:
 ---------------------------------------------------------------------
 Center     Atomic      Atomic             Coordinates (Angstroms)
 Number     Number       Type             X           Y           Z
 ---------------------------------------------------------------------
      1          8           0       14.648820   -2.420365   -0.334107
      2          8           0      -14.723583    2.013252    0.455663
      3          6           0       11.460626   -0.934461    1.180884
      4          6           0      -12.380409   -0.958985    0.782349
      5          6           0       12.946832   -1.203443    1.038729
      6          6           0      -13.682692   -0.181189    0.747161
      7          6           0       13.280700   -2.050916   -0.197644
      8          6           0      -13.517248    1.349993    0.601494
      9          6           0       10.933056   -0.245123   -0.050935
     10          6           0      -11.278719   -0.360484   -0.218238
     11          6           0       12.924292   -1.151037   -1.396477
     12          6           0      -12.730469    1.704073   -0.650809
     13          6           0       11.602460   -0.342715   -1.191745
     14          6           0      -11.516533    0.854285   -0.814408
     15          6           0       11.372126   -0.200822    2.482951
     16          6           0       10.767878   -2.301207    1.503649
     17          6           0      -11.735462   -0.742080    2.291044
     18          6           0      -12.574941   -2.487079    0.648861
     19          6           0        9.667640    0.314358    0.117224
     20          6           0      -10.009230   -1.189271   -0.453415
     21          6           0       10.947091    0.169145   -2.514159
     22          6           0      -10.577725    1.416772   -1.740397
     23          6           0        9.363683    1.642377   -0.098563
     24          6           0       -8.848702   -0.678336   -0.364092
     25          6           0        8.050877    2.193394    0.083446
     26          6           0       -7.590609   -1.426140   -0.495062
     27          6           0        8.156324    3.756898    0.401657
     28          6           0       -7.646370   -2.873782   -0.856067
     29          6           0        6.866703    1.619473   -0.210852
     30          6           0       -6.423965   -0.681733   -0.188268
     31          6           0        5.583424    2.193725    0.042029
     32          6           0       -5.071989   -1.212837   -0.440136
     33          6           0        4.398357    1.387384    0.063235
     34          6           0       -4.082263   -0.268666   -0.112059
     35          6           0        3.093075    1.857215    0.124479
     36          6           0       -2.587268   -0.708929   -0.376249
     37          6           0        2.747561    3.294749    0.531569
     38          6           0       -2.335654   -2.152097   -0.774734
     39          6           0        2.111248    0.911358   -0.104609
     40          6           0       -1.673433    0.172442   -0.165156
     41          6           0        0.659883    0.969085    0.016541
     42          6           0       -0.213742   -0.073050   -0.211996
     43          1           0       13.625495   -0.383187    0.921039
     44          1           0       13.359064   -1.933374    1.941990
     45          1           0      -14.199202   -0.448395    1.581401
     46          1           0      -14.363855   -0.591955   -0.200157
     47          1           0       12.718898   -2.806776   -0.374824
     48          1           0      -13.045196    1.906579    1.598925
     49          1           0       13.683846   -0.315748   -1.558412
     50          1           0       12.871574   -1.839593   -2.398785
     51          1           0      -13.383593    1.546894   -1.650162
     52          1           0      -12.435172    2.819578   -0.643469
     53          1           0       11.781540   -0.845042    3.319150
     54          1           0       10.323055    0.188933    2.729054
     55          1           0       11.856037    0.739369    2.505197
     56          1           0       10.713606   -2.869759    0.427422
     57          1           0       11.077178   -2.909976    2.366704
     58          1           0        9.710803   -2.158739    1.677266
     59          1           0      -11.464899    0.423256    2.461579
     60          1           0      -10.651188   -1.477768    2.386654
     61          1           0      -12.588815   -0.830512    3.144057
     62          1           0      -13.608672   -2.760247    1.398621
     63          1           0      -11.763356   -3.080320    1.203059
     64          1           0      -12.665509   -2.956913   -0.462452
     65          1           0        8.830443   -0.199460    0.846926
     66          1           0      -10.185810   -2.437766   -0.761042
     67          1           0        9.981245    0.441145   -2.437150
     68          1           0       11.396573    1.093942   -2.859413
     69          1           0       11.168019   -0.626168   -3.282430
     70          1           0      -11.009259    2.028151   -2.584643
     71          1           0      -10.099088    0.637476   -2.392173
     72          1           0      -10.028131    2.330262   -1.054744
     73          1           0       14.662482   -3.175403    0.429007
     74          1           0      -15.307990    1.498732    1.245021
     75          1           0       10.063672    2.375124   -0.463647
     76          1           0       -8.627001    0.455194   -0.154304
     77          1           0        8.750819    4.237770   -0.257797
     78          1           0        7.189151    4.244178    0.362555
     79          1           0        8.518867    4.007186    1.327303
     80          1           0       -8.519887   -3.248084   -0.297077
     81          1           0       -7.633867   -2.989939   -2.139547
     82          1           0       -6.647454   -3.447247   -0.493511
     83          1           0        7.016594    0.464004   -0.452964
     84          1           0       -6.269049    0.374799    0.034147
     85          1           0        5.585967    3.238514    0.160980
     86          1           0       -4.719790   -2.166821   -1.016092
     87          1           0        4.500799    0.305659   -0.169802
     88          1           0       -4.075937    0.731682    0.221584
     89          1           0        2.996114    3.355638    1.541598
     90          1           0        1.644594    3.572174    0.515355
     91          1           0        3.235466    3.940844   -0.194515
     92          1           0       -2.719356   -2.723373   -0.025931
     93          1           0       -2.844121   -2.503781   -1.832849
     94          1           0       -1.244306   -2.328827   -0.989210
     95          1           0        2.358466   -0.129333   -0.535641
     96          1           0       -1.974238    1.447107    0.157653
     97          1           0        0.083196    1.907693    0.382476
     98          1           0        0.230798   -1.164523   -0.363809
 ---------------------------------------------------------------------

 SCF Done:  E(RCAM-B3LYP) =  -1706.86356580     A.U. after   14 cycles

 Excitation energies and oscillator strengths:

 Excited State   1:      Singlet-A      2.7400 eV  452.49 nm  f=3.3738  <S**2>=0.000
     155 ->158        -0.16998
     156 ->157         0.67824
 This state for optimization and/or second-order correction.
 Total Energy, E(TD-HF/TD-DFT) =  -1706.76287179
 Copying the excited state density for this state as the 1-particle RhoCI density.

 The electronic state is 1-A.
 Alpha  occ. eigenvalues --  -19.22282 -19.22160 -10.31608 -10.28857 -10.28802
 Alpha  occ. eigenvalues --  -10.28556 -10.28475 -10.28426 -10.27740 -10.27708
 Alpha  occ. eigenvalues --  -10.27619 -10.27408 -10.27399 -10.27288 -10.27280
 Alpha  occ. eigenvalues --  -10.27277 -10.27164 -10.27106 -10.27074 -10.27038
 Alpha  occ. eigenvalues --  -10.27012 -10.26871 -10.26793 -10.26740 -10.26728
 Alpha  occ. eigenvalues --  -10.26658 -10.26607 -10.26602 -10.26570 -10.26440
 Alpha  occ. eigenvalues --  -10.26276 -10.26219 -10.26111 -10.25971 -10.25832
 Alpha  occ. eigenvalues --  -10.25808 -10.25742 -10.25660 -10.25454 -10.24343
 Alpha  occ. eigenvalues --  -10.24312 -10.23966  -1.09238  -1.08328  -0.94596
 Alpha  occ. eigenvalues --   -0.92471  -0.91522  -0.90945  -0.90125  -0.89691
 Alpha  occ. eigenvalues --   -0.87009  -0.86841  -0.86171  -0.85302  -0.84189
 Alpha  occ. eigenvalues --   -0.82324  -0.81517  -0.79863  -0.79051  -0.77746
 Alpha  occ. eigenvalues --   -0.77200  -0.76612  -0.75644  -0.75328  -0.75097
 Alpha  occ. eigenvalues --   -0.74559  -0.74274  -0.73414  -0.72041  -0.70643
 Alpha  occ. eigenvalues --   -0.68348  -0.66667  -0.65292  -0.64755  -0.64226
 Alpha  occ. eigenvalues --   -0.62336  -0.61840  -0.61046  -0.59864  -0.59299
 Alpha  occ. eigenvalues --   -0.58639  -0.57969  -0.56340  -0.56027  -0.55264
 Alpha  occ. eigenvalues --   -0.55181  -0.55070  -0.54552  -0.53580  -0.53370
 Alpha  occ. eigenvalues --   -0.52487  -0.51876  -0.51286  -0.51134  -0.50819
 Alpha  occ. eigenvalues --   -0.50292  -0.49567  -0.49512  -0.49383  -0.49001
 Alpha  occ. eigenvalues --   -0.48567  -0.48454  -0.48089  -0.47881  -0.47661
 Alpha  occ. eigenvalues --   -0.47248  -0.47097  -0.46868  -0.46443  -0.45850
 Alpha  occ. eigenvalues --   -0.45693  -0.45324  -0.45077  -0.44691  -0.44553
 Alpha  occ. eigenvalues --   -0.44392  -0.44082  -0.43596  -0.43219  -0.42697
 Alpha  occ. eigenvalues --   -0.42628  -0.42335  -0.41892  -0.41558  -0.41428
 Alpha  occ. eigenvalues --   -0.41391  -0.41144  -0.41066  -0.40722  -0.40487
 Alpha  occ. eigenvalues --   -0.40302  -0.39920  -0.39754  -0.39577  -0.39308
 Alpha  occ. eigenvalues --   -0.39034  -0.38716  -0.38065  -0.37902  -0.37428
 Alpha  occ. eigenvalues --   -0.37174  -0.37099  -0.36661  -0.36074  -0.35859
 Alpha  occ. eigenvalues --   -0.35482  -0.34632  -0.33979  -0.32483  -0.32156
 Alpha  occ. eigenvalues --   -0.31410  -0.29904  -0.27821  -0.26594  -0.23517
 Alpha  occ. eigenvalues --   -0.20630
 Alpha virt. eigenvalues --   -0.04053  -0.00376   0.02645   0.05978   0.07488
 Alpha virt. eigenvalues --    0.09236   0.09393   0.09460   0.10011   0.10342
 Alpha virt. eigenvalues --    0.10868   0.11198   0.12020   0.12409   0.12518

 Mulliken charges:
               1
     1  O   -0.555883
     2  O   -0.547853
     3  C   -0.021714
     4  C    0.014698
     5  C   -0.165968
     6  C   -0.196525
     7  C    0.178573
     8  C    0.199035
     9  C    0.104786
    10  C    0.042722
    11  C   -0.232900
    12  C   -0.213592
    13  C    0.026700
    14  C    0.079665
    15  C   -0.290014
    16  C   -0.300131
    17  C   -0.282955
    18  C   -0.283357
    19  C   -0.159871
    20  C   -0.182239
    21  C   -0.352346
    22  C   -0.362124
    23  C   -0.091042
    24  C   -0.019705
    25  C    0.064911
    26  C    0.086495
    27  C   -0.382889
    28  C   -0.346418
    29  C   -0.106394
    30  C   -0.132831
    31  C   -0.098347
    32  C   -0.100146
    33  C   -0.120565
    34  C   -0.107340
    35  C    0.118107
    36  C    0.111014
    37  C   -0.365308
    38  C   -0.369206
    39  C   -0.152376
    40  C   -0.130246
    41  C   -0.078324
    42  C   -0.097850
    43  H    0.112247
    44  H    0.040272
    45  H    0.090591
    46  H    0.084379
    47  H    0.090318
    48  H    0.051927
    49  H    0.117016
    50  H    0.088224
    51  H    0.111205
    52  H    0.104951
    53  H    0.095163
    54  H    0.084529
    55  H    0.103745
    56  H    0.076173
    57  H    0.111020
    58  H    0.106996
    59  H    0.092463
    60  H    0.083512
    61  H    0.079330
    62  H    0.056514
    63  H    0.105709
    64  H    0.095424
    65  H    0.097885
    66  H    0.076158
    67  H    0.128703
    68  H    0.112205
    69  H    0.100849
    70  H    0.099017
    71  H    0.124999
    72  H    0.087279
    73  H    0.302148
    74  H    0.297270
    75  H    0.094767
    76  H    0.094343
    77  H    0.123431
    78  H    0.099780
    79  H    0.128042
    80  H    0.124386
    81  H    0.096268
    82  H    0.099701
    83  H    0.073698
    84  H    0.098387
    85  H    0.088638
    86  H    0.103222
    87  H    0.089765
    88  H    0.091477
    89  H    0.138437
    90  H    0.107982
    91  H    0.125468
    92  H    0.143566
    93  H    0.096172
    94  H    0.106593
    95  H    0.074664
    96  H    0.050844
    97  H    0.073271
    98  H    0.088635
 Sum of Mulliken charges =  -0.00000

 Dipole moment (field-independent basis, Debye):
    X=             -0.1122    Y=             -1.1670    Z=              1.4226  Tot=              1.8435
 Quadrupole moment (field-independent basis, Debye-Ang):
   XX=           -289.7364   YY=           -245.3633   ZZ=           -262.0259
   XY=             14.3430   XZ=              3.0759   YZ=              1.3483

 Normal termination of Gaussian 16 at Tue Jul  9 23:42:10 2019.
