 Gaussian 16, Revision A.03,
 Gaussian 16:  ES64L-G16RevA.03 25-Dec-2016

 -------------------------------------
 # td=(NStates=1) CAM-B3LYP/6-31G(d,p)
 -------------------------------------

 --
 TD
 --
 Symbolic Z-matrix:
 Charge =  0 Multiplicity = 1

                         Standard orientation:
 ---------------------------------------------------------------------
 Center     Atomic      Atomic             Coordinates (Angstroms)
 Number     Number       Type             X           Y           Z
 ---------------------------------------------------------------------
      1          8           0       14.727985   -2.152318   -0.533120
      2          8           0      -14.795467    2.037472    0.449437
      3          6           0       11.428852   -1.054766    1.226041
      4          6           0      -12.333775   -0.897035    0.783197
      5          6           0       12.911538   -1.368738    0.970717
      6          6           0      -13.684306   -0.208432    0.638095
      7          6           0       13.273531   -1.920205   -0.393467
      8          6           0      -13.580094    1.307020    0.509795
      9          6           0       10.940619   -0.270926   -0.002745
     10          6           0      -11.199532   -0.276781   -0.208778
     11          6           0       12.912398   -0.916469   -1.535892
     12          6           0      -12.774067    1.771359   -0.718705
     13          6           0       11.539223   -0.281420   -1.243788
     14          6           0      -11.535190    0.847647   -0.874292
     15          6           0       11.210012   -0.273023    2.557031
     16          6           0       10.770271   -2.393286    1.314000
     17          6           0      -11.870375   -0.804032    2.235745
     18          6           0      -12.594152   -2.381756    0.427998
     19          6           0        9.656994    0.378646    0.222165
     20          6           0      -10.033526   -1.008370   -0.442010
     21          6           0       11.225478    0.494619   -2.508531
     22          6           0      -10.542713    1.450207   -1.851737
     23          6           0        9.364458    1.648868    0.019615
     24          6           0       -8.777085   -0.524617   -0.206532
     25          6           0        8.023842    2.273064    0.063636
     26          6           0       -7.526353   -1.323783   -0.469806
     27          6           0        8.010650    3.734202    0.478901
     28          6           0       -7.570856   -2.806970   -0.801873
     29          6           0        6.846293    1.580268   -0.139968
     30          6           0       -6.384231   -0.643071   -0.218226
     31          6           0        5.531956    2.083667    0.068950
     32          6           0       -4.935157   -1.170730   -0.366895
     33          6           0        4.395985    1.205041    0.063635
     34          6           0       -3.925447   -0.396468   -0.087056
     35          6           0        3.049750    1.655849    0.141720
     36          6           0       -2.563325   -0.848473   -0.262928
     37          6           0        2.733557    3.108637    0.578733
     38          6           0       -2.316564   -2.255962   -0.683588
     39          6           0        2.015786    0.729775   -0.006349
     40          6           0       -1.650339    0.134285    0.015249
     41          6           0        0.695568    0.913982    0.019218
     42          6           0       -0.183692   -0.160563   -0.138004
     43          1           0       13.525561   -0.337772    0.959592
     44          1           0       13.356301   -1.956136    1.873724
     45          1           0      -14.319778   -0.637328    1.618334
     46          1           0      -14.203245   -0.384692   -0.394031
     47          1           0       12.730723   -2.833861   -0.670562
     48          1           0      -13.100900    1.855330    1.467845
     49          1           0       13.514820    0.118745   -1.580838
     50          1           0       13.128423   -1.440590   -2.559065
     51          1           0      -13.549675    1.548291   -1.518975
     52          1           0      -12.639877    2.798478   -0.606631
     53          1           0       11.727309   -0.716018    3.481116
     54          1           0       10.108182   -0.359732    2.759743
     55          1           0       11.552475    0.750833    2.753372
     56          1           0       11.017207   -3.169100    0.442662
     57          1           0       10.783627   -2.838805    2.354693
     58          1           0        9.669370   -2.056018    1.149305
     59          1           0      -11.996005    0.333974    2.463971
     60          1           0      -10.747805   -1.054667    2.201947
     61          1           0      -12.365015   -1.568028    3.023897
     62          1           0      -13.252223   -2.698544    1.204859
     63          1           0      -11.721190   -3.216856    0.444802
     64          1           0      -13.198565   -2.462813   -0.467474
     65          1           0        8.801694   -0.203214    0.729444
     66          1           0      -10.137728   -2.117150   -0.885542
     67          1           0       10.155449    0.948538   -2.411941
     68          1           0       11.863107    1.018091   -2.632269
     69          1           0       11.174157   -0.234593   -3.350405
     70          1           0      -11.098296    1.636696   -2.781432
     71          1           0       -9.530749    0.889530   -1.958422
     72          1           0       -9.984124    2.411941   -1.716121
     73          1           0       14.959224   -2.788542    0.081832
     74          1           0      -15.422508    1.555399    1.067747
     75          1           0       10.251482    2.215792   -0.442588
     76          1           0       -8.654847    0.453825   -0.081800
     77          1           0        8.652762    4.350763   -0.197611
     78          1           0        7.104674    4.173276    0.667050
     79          1           0        8.469540    3.671908    1.614724
     80          1           0       -8.334414   -3.486676   -0.322400
     81          1           0       -7.727031   -2.929413   -1.891407
     82          1           0       -6.579901   -3.330627   -0.610118
     83          1           0        6.983081    0.659242   -0.287866
     84          1           0       -6.248898    0.344712    0.201349
     85          1           0        5.173983    3.162349    0.560260
     86          1           0       -4.834069   -2.223676   -0.515313
     87          1           0        4.533411    0.120170   -0.146395
     88          1           0       -4.057172    0.686632    0.086745
     89          1           0        2.893635    3.119621    1.781158
     90          1           0        1.680623    3.366352    0.664104
     91          1           0        3.247828    3.688142    0.086416
     92          1           0       -2.734149   -3.214733   -0.210032
     93          1           0       -2.718789   -2.480017   -1.560909
     94          1           0       -1.194625   -2.413442   -0.778033
     95          1           0        2.468637   -0.287798   -0.154603
     96          1           0       -2.180998    1.011231    0.607633
     97          1           0        0.137213    1.907756    0.402770
     98          1           0        0.072033   -1.225562   -0.388479
 ---------------------------------------------------------------------

 SCF Done:  E(RCAM-B3LYP) =  -1706.88787554     A.U. after   14 cycles

 Excitation energies and oscillator strengths:

 Excited State   1:      Singlet-A      2.5835 eV  479.91 nm  f=3.4110  <S**2>=0.000
     155 ->158        -0.13457
     156 ->157         0.69227
 This state for optimization and/or second-order correction.
 Total Energy, E(TD-HF/TD-DFT) =  -1706.79293485
 Copying the excited state density for this state as the 1-particle RhoCI density.

 The electronic state is 1-A.
 Alpha  occ. eigenvalues --  -19.21130 -19.20387 -10.31148 -10.30959 -10.28096
 Alpha  occ. eigenvalues --  -10.28045 -10.28006 -10.27842 -10.27784 -10.27707
 Alpha  occ. eigenvalues --  -10.27548 -10.27504 -10.27483 -10.27273 -10.27213
 Alpha  occ. eigenvalues --  -10.27065 -10.27002 -10.26961 -10.26852 -10.26728
 Alpha  occ. eigenvalues --  -10.26605 -10.26552 -10.26471 -10.26411 -10.26340
 Alpha  occ. eigenvalues --  -10.26286 -10.26232 -10.25997 -10.25958 -10.25916
 Alpha  occ. eigenvalues --  -10.25850 -10.25802 -10.25695 -10.25572 -10.25478
 Alpha  occ. eigenvalues --  -10.25440 -10.25327 -10.25076 -10.24986 -10.24616
 Alpha  occ. eigenvalues --  -10.24555 -10.23699  -1.08893  -1.08561  -0.93963
 Alpha  occ. eigenvalues --   -0.93109  -0.92160  -0.91314  -0.90210  -0.89574
 Alpha  occ. eigenvalues --   -0.87957  -0.87064  -0.86550  -0.85290  -0.84679
 Alpha  occ. eigenvalues --   -0.82815  -0.81849  -0.80669  -0.79400  -0.78976
 Alpha  occ. eigenvalues --   -0.77043  -0.76931  -0.76491  -0.75638  -0.75518
 Alpha  occ. eigenvalues --   -0.75051  -0.74891  -0.74593  -0.73693  -0.70220
 Alpha  occ. eigenvalues --   -0.68253  -0.67031  -0.65126  -0.64491  -0.63762
 Alpha  occ. eigenvalues --   -0.62879  -0.61802  -0.61310  -0.60857  -0.59854
 Alpha  occ. eigenvalues --   -0.59380  -0.58014  -0.57704  -0.57096  -0.56232
 Alpha  occ. eigenvalues --   -0.55799  -0.55472  -0.55163  -0.54657  -0.54017
 Alpha  occ. eigenvalues --   -0.53173  -0.52676  -0.52411  -0.52121  -0.51700
 Alpha  occ. eigenvalues --   -0.51086  -0.50017  -0.49682  -0.49641  -0.49066
 Alpha  occ. eigenvalues --   -0.48404  -0.48290  -0.48126  -0.48006  -0.47670
 Alpha  occ. eigenvalues --   -0.47392  -0.47216  -0.46641  -0.46455  -0.46023
 Alpha  occ. eigenvalues --   -0.45735  -0.45163  -0.45044  -0.44846  -0.44561
 Alpha  occ. eigenvalues --   -0.44504  -0.44404  -0.43814  -0.43727  -0.43640
 Alpha  occ. eigenvalues --   -0.43258  -0.42794  -0.42709  -0.42438  -0.41851
 Alpha  occ. eigenvalues --   -0.41649  -0.41504  -0.40927  -0.40737  -0.40525
 Alpha  occ. eigenvalues --   -0.40431  -0.40068  -0.40066  -0.39420  -0.39043
 Alpha  occ. eigenvalues --   -0.38662  -0.38457  -0.38420  -0.38214  -0.37823
 Alpha  occ. eigenvalues --   -0.37576  -0.37201  -0.36900  -0.36131  -0.35679
 Alpha  occ. eigenvalues --   -0.35411  -0.34253  -0.33444  -0.32789  -0.31618
 Alpha  occ. eigenvalues --   -0.30809  -0.29515  -0.28400  -0.26837  -0.24402
 Alpha  occ. eigenvalues --   -0.19926
 Alpha virt. eigenvalues --   -0.04506   0.00384   0.03100   0.05668   0.07563
 Alpha virt. eigenvalues --    0.08709   0.10662   0.10737   0.11650   0.11869
 Alpha virt. eigenvalues --    0.12428   0.12549   0.12805   0.13119   0.13358

 Mulliken charges:
               1
     1  O   -0.558597
     2  O   -0.567766
     3  C    0.003249
     4  C    0.002240
     5  C   -0.187004
     6  C   -0.193317
     7  C    0.158748
     8  C    0.165314
     9  C    0.043927
    10  C    0.051182
    11  C   -0.210326
    12  C   -0.209785
    13  C    0.018378
    14  C    0.063533
    15  C   -0.311894
    16  C   -0.288096
    17  C   -0.292993
    18  C   -0.298431
    19  C   -0.114702
    20  C   -0.148547
    21  C   -0.295281
    22  C   -0.374124
    23  C   -0.106560
    24  C   -0.071097
    25  C    0.053530
    26  C    0.103426
    27  C   -0.343461
    28  C   -0.381619
    29  C   -0.067028
    30  C   -0.137684
    31  C   -0.111015
    32  C   -0.097398
    33  C   -0.122778
    34  C   -0.107160
    35  C    0.094975
    36  C    0.142106
    37  C   -0.347280
    38  C   -0.383409
    39  C   -0.114348
    40  C   -0.154553
    41  C   -0.080939
    42  C   -0.104383
    43  H    0.085618
    44  H    0.070505
    45  H    0.071818
    46  H    0.093697
    47  H    0.086615
    48  H    0.054476
    49  H    0.108316
    50  H    0.109100
    51  H    0.113877
    52  H    0.134328
    53  H    0.090326
    54  H    0.101751
    55  H    0.118530
    56  H    0.098663
    57  H    0.106430
    58  H    0.085523
    59  H    0.098399
    60  H    0.106574
    61  H    0.086021
    62  H    0.098358
    63  H    0.082566
    64  H    0.105292
    65  H    0.086785
    66  H    0.090854
    67  H    0.105089
    68  H    0.109371
    69  H    0.105646
    70  H    0.105447
    71  H    0.101994
    72  H    0.104380
    73  H    0.295613
    74  H    0.304675
    75  H    0.082295
    76  H    0.086845
    77  H    0.114587
    78  H    0.119485
    79  H    0.093333
    80  H    0.121062
    81  H    0.125956
    82  H    0.107263
    83  H    0.057288
    84  H    0.083364
    85  H    0.086512
    86  H    0.073727
    87  H    0.082470
    88  H    0.082826
    89  H    0.101132
    90  H    0.112172
    91  H    0.125768
    92  H    0.118308
    93  H    0.141708
    94  H    0.094816
    95  H    0.074376
    96  H    0.093692
    97  H    0.087325
    98  H    0.098021
 Sum of Mulliken charges =  -0.00000

 Dipole moment (field-independent basis, Debye):
    X=              0.3131    Y=             -2.3031    Z=              1.6232  Tot=              2.8350
 Quadrupole moment (field-independent basis, Debye-Ang):
   XX=           -280.0858   YY=           -245.6443   ZZ=           -261.9907
   XY=             13.5135   XZ=              3.5895   YZ=              2.4414

 Normal termination of Gaussian 16 at Fri Jun 28 00:30:43 2019.
