 Gaussian 16, Revision A.03,
 Gaussian 16:  ES64L-G16RevA.03 25-Dec-2016

 -------------------------------------
 # td=(NStates=1) CAM-B3LYP/6-31G(d,p)
 -------------------------------------

 --
 TD
 --
 Symbolic Z-matrix:
 Charge =  0 Multiplicity = 1

                         Standard orientation:
 ---------------------------------------------------------------------
 Center     Atomic      Atomic             Coordinates (Angstroms)
 Number     Number       Type             X           Y           Z
 ---------------------------------------------------------------------
      1          8           0       14.577953   -2.356000   -0.682667
      2          8           0      -14.798652    1.880613    0.723078
      3          6           0       11.439276   -1.164314    1.137945
      4          6           0      -12.292487   -0.964711    0.760774
      5          6           0       12.896111   -1.483663    0.993508
      6          6           0      -13.710347   -0.249126    0.796178
      7          6           0       13.231157   -1.964195   -0.396960
      8          6           0      -13.571849    1.256767    0.703365
      9          6           0       10.981872   -0.298545   -0.032868
     10          6           0      -11.339091   -0.297786   -0.220367
     11          6           0       12.867936   -0.945395   -1.438665
     12          6           0      -12.894116    1.585023   -0.698581
     13          6           0       11.555908   -0.257822   -1.260680
     14          6           0      -11.541083    0.850189   -0.840510
     15          6           0       11.335148   -0.348604    2.484186
     16          6           0       10.576574   -2.398823    1.346535
     17          6           0      -11.642735   -0.928311    2.190133
     18          6           0      -12.588307   -2.474517    0.373222
     19          6           0        9.770490    0.399277    0.196365
     20          6           0      -10.078867   -1.023547   -0.444534
     21          6           0       10.988973    0.487310   -2.398390
     22          6           0      -10.701722    1.525490   -2.014412
     23          6           0        9.441459    1.686984   -0.049728
     24          6           0       -8.826635   -0.552463   -0.387256
     25          6           0        8.090006    2.263511    0.140275
     26          6           0       -7.537967   -1.271935   -0.572716
     27          6           0        8.095993    3.722895    0.564623
     28          6           0       -7.495602   -2.750608   -0.883100
     29          6           0        7.023193    1.519200    0.070323
     30          6           0       -6.428522   -0.588385   -0.349611
     31          6           0        5.625763    2.022084    0.249179
     32          6           0       -5.111482   -1.110847   -0.323279
     33          6           0        4.496505    1.267678    0.106868
     34          6           0       -4.015157   -0.347141   -0.092341
     35          6           0        3.094911    1.712683    0.165548
     36          6           0       -2.616969   -0.693644   -0.287816
     37          6           0        2.842950    3.246131    0.435649
     38          6           0       -2.299413   -2.103647   -0.490315
     39          6           0        2.118358    0.785651    0.066854
     40          6           0       -1.606794    0.232527   -0.121675
     41          6           0        0.755505    1.054681    0.053176
     42          6           0       -0.121643    0.037212   -0.057915
     43          1           0       13.607010   -0.615440    1.161135
     44          1           0       13.068579   -2.488374    1.574359
     45          1           0      -14.394175   -0.592563    1.590965
     46          1           0      -14.173915   -0.476277   -0.096832
     47          1           0       12.593339   -2.849361   -0.787814
     48          1           0      -12.944914    1.638142    1.631325
     49          1           0       13.503712   -0.240213   -1.509254
     50          1           0       12.781483   -1.302260   -2.562722
     51          1           0      -13.614874    1.458569   -1.577082
     52          1           0      -12.619843    2.755837   -0.555498
     53          1           0       11.770070   -0.873907    3.328917
     54          1           0       10.411031   -0.145906    2.963365
     55          1           0       11.887568    0.554783    2.299992
     56          1           0       10.568752   -3.050238    0.397264
     57          1           0       11.034689   -3.125182    2.097830
     58          1           0        9.552361   -2.049662    1.844978
     59          1           0      -11.512066    0.064179    2.326368
     60          1           0      -10.757183   -1.575752    2.267846
     61          1           0      -12.351911   -1.352101    2.932478
     62          1           0      -13.248014   -2.830707    0.994580
     63          1           0      -11.688697   -3.029295    0.387310
     64          1           0      -12.739256   -2.748572   -0.593837
     65          1           0        8.902288   -0.134546    0.917109
     66          1           0      -10.150900   -2.028713   -0.882209
     67          1           0        9.931923    0.812939   -2.117418
     68          1           0       11.688052    1.270989   -2.666956
     69          1           0       10.995032   -0.125567   -3.330382
     70          1           0      -11.396306    1.974285   -2.757791
     71          1           0      -10.032854    0.828961   -2.452529
     72          1           0      -10.405738    2.422843   -1.578022
     73          1           0       14.908675   -3.001263    0.031490
     74          1           0      -15.377099    1.856265    1.608683
     75          1           0       10.141510    2.466775   -0.519194
     76          1           0       -8.731163    0.517897   -0.261326
     77          1           0        8.681288    4.233302   -0.003913
     78          1           0        7.214501    4.355810    0.685514
     79          1           0        8.532935    3.649840    1.596022
     80          1           0       -8.246491   -3.435555   -0.340316
     81          1           0       -7.787355   -2.892136   -2.047905
     82          1           0       -6.495266   -3.337270   -0.802074
     83          1           0        7.111062    0.522675   -0.465744
     84          1           0       -6.553735    0.301460   -0.159658
     85          1           0        5.501163    3.149489    0.438472
     86          1           0       -4.841768   -1.965125   -0.852431
     87          1           0        4.520755    0.216089   -0.190258
     88          1           0       -4.294511    0.813903    0.100483
     89          1           0        3.162188    3.598615    1.401234
     90          1           0        1.822540    3.160603    0.284091
     91          1           0        3.251592    4.051605   -0.433969
     92          1           0       -2.915434   -2.784732    0.283127
     93          1           0       -2.596313   -2.450644   -1.451987
     94          1           0       -1.186573   -2.305619   -0.681213
     95          1           0        2.545135   -0.115127   -0.201617
     96          1           0       -2.012798    1.213266   -0.012416
     97          1           0        0.203442    2.172852   -0.028670
     98          1           0        0.098268   -0.960344   -0.385114
 ---------------------------------------------------------------------

 SCF Done:  E(RCAM-B3LYP) =  -1706.99183126     A.U. after   14 cycles

 Excitation energies and oscillator strengths:

 Excited State   1:      Singlet-A      2.9373 eV  422.10 nm  f=3.6037  <S**2>=0.000
     155 ->158         0.17427
     156 ->157         0.67887
 This state for optimization and/or second-order correction.
 Total Energy, E(TD-HF/TD-DFT) =  -1706.88388668
 Copying the excited state density for this state as the 1-particle RhoCI density.

 The electronic state is 1-A.
 Alpha  occ. eigenvalues --  -19.21669 -19.21036 -10.30798 -10.30770 -10.27864
 Alpha  occ. eigenvalues --  -10.27824 -10.27480 -10.27451 -10.27241 -10.27095
 Alpha  occ. eigenvalues --  -10.26980 -10.26929 -10.26857 -10.26821 -10.26767
 Alpha  occ. eigenvalues --  -10.26754 -10.26745 -10.26627 -10.26527 -10.26461
 Alpha  occ. eigenvalues --  -10.26428 -10.26359 -10.26174 -10.26059 -10.25932
 Alpha  occ. eigenvalues --  -10.25641 -10.25635 -10.25363 -10.25322 -10.25280
 Alpha  occ. eigenvalues --  -10.25266 -10.25235 -10.25154 -10.24998 -10.24653
 Alpha  occ. eigenvalues --  -10.24337 -10.24075 -10.23849 -10.23528 -10.23420
 Alpha  occ. eigenvalues --  -10.23406 -10.21878  -1.08478  -1.08338  -0.94673
 Alpha  occ. eigenvalues --   -0.92802  -0.92085  -0.91575  -0.90759  -0.89851
 Alpha  occ. eigenvalues --   -0.88195  -0.86675  -0.85931  -0.85381  -0.84630
 Alpha  occ. eigenvalues --   -0.82589  -0.81513  -0.80352  -0.79531  -0.77733
 Alpha  occ. eigenvalues --   -0.77288  -0.77093  -0.76556  -0.76167  -0.76087
 Alpha  occ. eigenvalues --   -0.75991  -0.75584  -0.74507  -0.74214  -0.70302
 Alpha  occ. eigenvalues --   -0.68597  -0.67211  -0.65584  -0.64928  -0.64494
 Alpha  occ. eigenvalues --   -0.63984  -0.62491  -0.61467  -0.60898  -0.59215
 Alpha  occ. eigenvalues --   -0.58709  -0.57989  -0.57763  -0.57386  -0.56212
 Alpha  occ. eigenvalues --   -0.55707  -0.55247  -0.54760  -0.54310  -0.53737
 Alpha  occ. eigenvalues --   -0.52928  -0.52624  -0.51854  -0.51620  -0.51301
 Alpha  occ. eigenvalues --   -0.50843  -0.50324  -0.50093  -0.49648  -0.49377
 Alpha  occ. eigenvalues --   -0.49035  -0.48592  -0.48453  -0.48339  -0.48139
 Alpha  occ. eigenvalues --   -0.47531  -0.47156  -0.46883  -0.46540  -0.46231
 Alpha  occ. eigenvalues --   -0.45981  -0.45856  -0.45596  -0.45264  -0.44994
 Alpha  occ. eigenvalues --   -0.44454  -0.44230  -0.43934  -0.43362  -0.42954
 Alpha  occ. eigenvalues --   -0.42751  -0.42648  -0.42376  -0.42326  -0.41823
 Alpha  occ. eigenvalues --   -0.41685  -0.41506  -0.41263  -0.41139  -0.40874
 Alpha  occ. eigenvalues --   -0.40818  -0.40344  -0.39979  -0.39509  -0.39350
 Alpha  occ. eigenvalues --   -0.39273  -0.39087  -0.38018  -0.37973  -0.37420
 Alpha  occ. eigenvalues --   -0.37205  -0.36691  -0.36531  -0.36014  -0.35658
 Alpha  occ. eigenvalues --   -0.34859  -0.34041  -0.33889  -0.32155  -0.32090
 Alpha  occ. eigenvalues --   -0.30775  -0.29899  -0.28414  -0.26517  -0.24299
 Alpha  occ. eigenvalues --   -0.21177
 Alpha virt. eigenvalues --   -0.03675   0.00338   0.03008   0.06319   0.08542
 Alpha virt. eigenvalues --    0.09883   0.10571   0.10629   0.10958   0.11811
 Alpha virt. eigenvalues --    0.12334   0.12732   0.13140   0.13379   0.13642

 Mulliken charges:
               1
     1  O   -0.571975
     2  O   -0.575501
     3  C   -0.005586
     4  C   -0.035574
     5  C   -0.187175
     6  C   -0.178050
     7  C    0.170242
     8  C    0.190459
     9  C    0.075376
    10  C    0.065616
    11  C   -0.202988
    12  C   -0.225219
    13  C    0.066942
    14  C    0.029568
    15  C   -0.308413
    16  C   -0.294454
    17  C   -0.289592
    18  C   -0.307071
    19  C   -0.140166
    20  C   -0.153089
    21  C   -0.369105
    22  C   -0.348061
    23  C   -0.119912
    24  C   -0.100045
    25  C    0.090410
    26  C    0.133195
    27  C   -0.358443
    28  C   -0.382904
    29  C   -0.137198
    30  C   -0.070103
    31  C   -0.104550
    32  C   -0.080706
    33  C   -0.109379
    34  C   -0.122194
    35  C    0.083618
    36  C    0.125318
    37  C   -0.347447
    38  C   -0.390208
    39  C   -0.105613
    40  C   -0.135764
    41  C   -0.084270
    42  C   -0.079097
    43  H    0.109470
    44  H    0.074823
    45  H    0.073347
    46  H    0.108373
    47  H    0.068741
    48  H    0.050862
    49  H    0.126619
    50  H    0.083478
    51  H    0.120682
    52  H    0.082344
    53  H    0.096102
    54  H    0.105424
    55  H    0.105232
    56  H    0.100963
    57  H    0.095188
    58  H    0.100352
    59  H    0.111767
    60  H    0.110587
    61  H    0.087629
    62  H    0.106706
    63  H    0.092884
    64  H    0.104719
    65  H    0.077110
    66  H    0.085824
    67  H    0.129324
    68  H    0.118245
    69  H    0.104174
    70  H    0.107153
    71  H    0.125129
    72  H    0.126682
    73  H    0.304755
    74  H    0.312004
    75  H    0.084104
    76  H    0.083140
    77  H    0.123581
    78  H    0.111340
    79  H    0.121845
    80  H    0.111844
    81  H    0.096720
    82  H    0.111325
    83  H    0.088272
    84  H    0.043216
    85  H    0.081984
    86  H    0.085700
    87  H    0.067156
    88  H    0.065046
    89  H    0.130567
    90  H    0.110356
    91  H    0.086524
    92  H    0.112396
    93  H    0.127621
    94  H    0.098382
    95  H    0.087655
    96  H    0.068309
    97  H    0.103187
    98  H    0.082147
 Sum of Mulliken charges =  -0.00000

 Dipole moment (field-independent basis, Debye):
    X=              0.7970    Y=             -0.7664    Z=              1.0144  Tot=              1.5006
 Quadrupole moment (field-independent basis, Debye-Ang):
   XX=           -247.6246   YY=           -243.7240   ZZ=           -258.7093
   XY=              7.2339   XZ=              2.9167   YZ=              0.2447

 Normal termination of Gaussian 16 at Tue Jul  2 00:53:49 2019.
