 Gaussian 16, Revision A.03,
 Gaussian 16:  ES64L-G16RevA.03 25-Dec-2016

 -------------------------------------
 # td=(NStates=1) CAM-B3LYP/6-31G(d,p)
 -------------------------------------

 --
 TD
 --
 Symbolic Z-matrix:
 Charge =  0 Multiplicity = 1

                         Standard orientation:
 ---------------------------------------------------------------------
 Center     Atomic      Atomic             Coordinates (Angstroms)
 Number     Number       Type             X           Y           Z
 ---------------------------------------------------------------------
      1          8           0       14.827278   -1.903622   -0.429301
      2          8           0      -14.822642    2.091032    0.499426
      3          6           0       11.613962   -0.924532    1.336112
      4          6           0      -12.333866   -0.749860    0.941358
      5          6           0       13.059950   -1.084864    0.981400
      6          6           0      -13.725399   -0.218750    0.808842
      7          6           0       13.416985   -1.742832   -0.284303
      8          6           0      -13.586182    1.318012    0.547420
      9          6           0       10.943411   -0.292865    0.018968
     10          6           0      -11.328553   -0.263015   -0.173027
     11          6           0       13.019630   -0.782045   -1.346005
     12          6           0      -12.902447    1.553588   -0.747353
     13          6           0       11.616162   -0.277367   -1.179320
     14          6           0      -11.546226    0.790279   -0.899942
     15          6           0       11.270284   -0.003763    2.422124
     16          6           0       10.889436   -2.236465    1.459137
     17          6           0      -11.693327   -0.616573    2.273112
     18          6           0      -12.412995   -2.399361    0.745608
     19          6           0        9.599952    0.225820    0.086800
     20          6           0      -10.117080   -0.949825   -0.322998
     21          6           0       11.123171    0.246271   -2.553723
     22          6           0      -10.742685    1.300969   -2.029375
     23          6           0        9.277221    1.553785   -0.158736
     24          6           0       -8.876068   -0.452783   -0.169536
     25          6           0        8.030964    2.139467    0.129651
     26          6           0       -7.659072   -1.134613   -0.488667
     27          6           0        8.005953    3.595734    0.410882
     28          6           0       -7.815958   -2.613672   -0.874794
     29          6           0        6.866324    1.463004   -0.069570
     30          6           0       -6.531907   -0.603575   -0.337267
     31          6           0        5.519440    1.917429    0.273419
     32          6           0       -5.108682   -1.131652   -0.485542
     33          6           0        4.449296    1.161197   -0.073383
     34          6           0       -3.969670   -0.443481   -0.154646
     35          6           0        3.072363    1.447322    0.150612
     36          6           0       -2.631026   -0.788230   -0.294092
     37          6           0        2.724064    2.845603    0.589611
     38          6           0       -2.303059   -2.310274   -0.754623
     39          6           0        2.065247    0.555203   -0.098023
     40          6           0       -1.614528    0.017079   -0.070638
     41          6           0        0.680989    0.661338   -0.054074
     42          6           0       -0.222174   -0.218917   -0.299351
     43          1           0       13.656262   -0.195682    1.041118
     44          1           0       13.467173   -1.675473    1.891226
     45          1           0      -14.210828   -0.414982    1.749364
     46          1           0      -14.222081   -0.729033    0.064828
     47          1           0       12.989729   -2.796366   -0.356620
     48          1           0      -12.877680    1.939214    1.369414
     49          1           0       13.725891    0.013101   -1.540694
     50          1           0       13.343845   -1.267393   -2.270430
     51          1           0      -13.658796    1.422219   -1.644303
     52          1           0      -12.577546    2.453249   -0.950251
     53          1           0       11.726816   -0.548836    3.322844
     54          1           0       10.111510   -0.097999    2.729028
     55          1           0       11.485314    1.025206    2.340543
     56          1           0       11.160275   -2.856299    0.571895
     57          1           0       11.424065   -2.853211    2.248215
     58          1           0        9.789501   -2.058180    1.676010
     59          1           0      -11.435105    0.516951    2.226358
     60          1           0      -10.744646   -1.105545    2.108956
     61          1           0      -12.341928   -0.905307    3.040838
     62          1           0      -13.327152   -2.575116    1.505732
     63          1           0      -11.280772   -2.874023    1.016228
     64          1           0      -12.665387   -2.729978   -0.226539
     65          1           0        8.779478   -0.604917    0.567488
     66          1           0      -10.224818   -2.084093   -0.534821
     67          1           0       10.117485    0.650072   -2.532889
     68          1           0       12.024609    0.810627   -2.987495
     69          1           0       10.888832   -0.679543   -3.034955
     70          1           0      -11.112815    1.405244   -3.089798
     71          1           0       -9.839084    0.865208   -2.318588
     72          1           0      -10.524451    2.365949   -1.605957
     73          1           0       15.256009   -2.482810    0.096286
     74          1           0      -15.385465    1.953912    1.174624
     75          1           0       10.177944    2.175500   -0.327092
     76          1           0       -8.643830    0.530773    0.068997
     77          1           0        9.161013    3.823060   -0.141910
     78          1           0        7.244502    4.410265    0.149179
     79          1           0        8.398711    3.845095    1.456257
     80          1           0       -8.095354   -3.067718    0.078432
     81          1           0       -8.477236   -2.817431   -1.751631
     82          1           0       -6.866980   -3.040895   -1.119569
     83          1           0        6.837054    0.567170   -0.604526
     84          1           0       -6.415552    0.501325   -0.028157
     85          1           0        5.320340    3.030572    0.889091
     86          1           0       -5.191991   -2.186175   -0.759573
     87          1           0        4.637409    0.250201   -0.626778
     88          1           0       -4.120427    0.634450    0.337451
     89          1           0        2.980786    3.055911    1.621783
     90          1           0        1.422040    3.084943    0.614640
     91          1           0        3.263123    3.624562   -0.101399
     92          1           0       -2.677949   -3.086123   -0.141079
     93          1           0       -2.716421   -2.513389   -1.860235
     94          1           0       -1.295652   -2.654360   -0.908881
     95          1           0        2.504380   -0.341880   -0.643858
     96          1           0       -1.767923    1.069319    0.108901
     97          1           0        0.103785    1.594957    0.287783
     98          1           0       -0.080515   -1.192294   -0.342909
 ---------------------------------------------------------------------

 SCF Done:  E(RCAM-B3LYP) =  -1706.92968882     A.U. after   14 cycles

 Excitation energies and oscillator strengths:

 Excited State   1:      Singlet-A      2.7949 eV  443.61 nm  f=3.5903  <S**2>=0.000
     155 ->158         0.18178
     156 ->157         0.67632
 This state for optimization and/or second-order correction.
 Total Energy, E(TD-HF/TD-DFT) =  -1706.82697837
 Copying the excited state density for this state as the 1-particle RhoCI density.

 The electronic state is 1-A.
 Alpha  occ. eigenvalues --  -19.20175 -19.19828 -10.32195 -10.30900 -10.28185
 Alpha  occ. eigenvalues --  -10.28114 -10.28086 -10.27441 -10.27376 -10.27316
 Alpha  occ. eigenvalues --  -10.27301 -10.27299 -10.27261 -10.27166 -10.26966
 Alpha  occ. eigenvalues --  -10.26916 -10.26865 -10.26359 -10.26213 -10.26007
 Alpha  occ. eigenvalues --  -10.25931 -10.25881 -10.25813 -10.25746 -10.25735
 Alpha  occ. eigenvalues --  -10.25622 -10.25541 -10.25532 -10.25378 -10.25341
 Alpha  occ. eigenvalues --  -10.25186 -10.25178 -10.25153 -10.25082 -10.25071
 Alpha  occ. eigenvalues --  -10.24911 -10.24837 -10.24588 -10.24483 -10.24161
 Alpha  occ. eigenvalues --  -10.23858 -10.23807  -1.10431  -1.09027  -0.94522
 Alpha  occ. eigenvalues --   -0.94406  -0.92717  -0.91887  -0.91547  -0.90422
 Alpha  occ. eigenvalues --   -0.88065  -0.87863  -0.87628  -0.85927  -0.85598
 Alpha  occ. eigenvalues --   -0.83545  -0.81912  -0.80378  -0.79851  -0.77393
 Alpha  occ. eigenvalues --   -0.76963  -0.76827  -0.76580  -0.76163  -0.76142
 Alpha  occ. eigenvalues --   -0.75447  -0.74977  -0.74607  -0.74265  -0.70928
 Alpha  occ. eigenvalues --   -0.69720  -0.68364  -0.66544  -0.65288  -0.63968
 Alpha  occ. eigenvalues --   -0.63197  -0.62803  -0.62713  -0.60284  -0.59587
 Alpha  occ. eigenvalues --   -0.59130  -0.58776  -0.57990  -0.57453  -0.56567
 Alpha  occ. eigenvalues --   -0.56268  -0.55689  -0.55058  -0.54905  -0.54161
 Alpha  occ. eigenvalues --   -0.53758  -0.53325  -0.52766  -0.52327  -0.52117
 Alpha  occ. eigenvalues --   -0.50727  -0.50390  -0.49964  -0.49596  -0.49397
 Alpha  occ. eigenvalues --   -0.49263  -0.49047  -0.48841  -0.48203  -0.47875
 Alpha  occ. eigenvalues --   -0.47498  -0.47255  -0.47064  -0.46509  -0.46175
 Alpha  occ. eigenvalues --   -0.46124  -0.45954  -0.45515  -0.44949  -0.44502
 Alpha  occ. eigenvalues --   -0.44031  -0.43800  -0.43552  -0.43348  -0.42871
 Alpha  occ. eigenvalues --   -0.42710  -0.42610  -0.41885  -0.41772  -0.41516
 Alpha  occ. eigenvalues --   -0.41426  -0.41410  -0.41254  -0.40684  -0.40560
 Alpha  occ. eigenvalues --   -0.40350  -0.39943  -0.39704  -0.39537  -0.39238
 Alpha  occ. eigenvalues --   -0.38846  -0.38788  -0.38293  -0.38017  -0.37615
 Alpha  occ. eigenvalues --   -0.37318  -0.36947  -0.36898  -0.36300  -0.35820
 Alpha  occ. eigenvalues --   -0.35219  -0.34547  -0.33357  -0.32797  -0.32098
 Alpha  occ. eigenvalues --   -0.31304  -0.29767  -0.28231  -0.26742  -0.24211
 Alpha  occ. eigenvalues --   -0.21102
 Alpha virt. eigenvalues --   -0.04213  -0.00246   0.03187   0.06233   0.08322
 Alpha virt. eigenvalues --    0.09658   0.10344   0.10999   0.11621   0.11742
 Alpha virt. eigenvalues --    0.12655   0.12919   0.13278   0.13708   0.13905

 Mulliken charges:
               1
     1  O   -0.568177
     2  O   -0.566851
     3  C    0.021128
     4  C   -0.043329
     5  C   -0.186249
     6  C   -0.183791
     7  C    0.178881
     8  C    0.169398
     9  C    0.020559
    10  C    0.084187
    11  C   -0.228982
    12  C   -0.174868
    13  C    0.043729
    14  C    0.036204
    15  C   -0.291407
    16  C   -0.290716
    17  C   -0.259868
    18  C   -0.301621
    19  C   -0.125891
    20  C   -0.187900
    21  C   -0.346790
    22  C   -0.357735
    23  C   -0.126344
    24  C   -0.062330
    25  C    0.136488
    26  C    0.142623
    27  C   -0.372190
    28  C   -0.375965
    29  C   -0.127830
    30  C   -0.157752
    31  C   -0.070825
    32  C   -0.087215
    33  C   -0.119969
    34  C   -0.132333
    35  C    0.146446
    36  C    0.145293
    37  C   -0.365197
    38  C   -0.383192
    39  C   -0.154573
    40  C   -0.157616
    41  C   -0.064653
    42  C   -0.025507
    43  H    0.112532
    44  H    0.054848
    45  H    0.087724
    46  H    0.117920
    47  H    0.077002
    48  H    0.057760
    49  H    0.126736
    50  H    0.109731
    51  H    0.097167
    52  H    0.107695
    53  H    0.085345
    54  H    0.090318
    55  H    0.119082
    56  H    0.106531
    57  H    0.085349
    58  H    0.105576
    59  H    0.085757
    60  H    0.114043
    61  H    0.102700
    62  H    0.077704
    63  H    0.079206
    64  H    0.113207
    65  H    0.077032
    66  H    0.089471
    67  H    0.117713
    68  H    0.107065
    69  H    0.125955
    70  H    0.109175
    71  H    0.125208
    72  H    0.099393
    73  H    0.289963
    74  H    0.290094
    75  H    0.097758
    76  H    0.075596
    77  H    0.069944
    78  H    0.129012
    79  H    0.116810
    80  H    0.127469
    81  H    0.118134
    82  H    0.103243
    83  H    0.083792
    84  H    0.061520
    85  H    0.073608
    86  H    0.080672
    87  H    0.082509
    88  H    0.079244
    89  H    0.128325
    90  H    0.068370
    91  H    0.111273
    92  H    0.124949
    93  H    0.096358
    94  H    0.115974
    95  H    0.073643
    96  H    0.070413
    97  H    0.071900
    98  H    0.067214
 Sum of Mulliken charges =  -0.00000

 Dipole moment (field-independent basis, Debye):
    X=              1.6369    Y=             -1.8770    Z=              1.3068  Tot=              2.8125
 Quadrupole moment (field-independent basis, Debye-Ang):
   XX=           -240.9883   YY=           -249.7613   ZZ=           -260.9419
   XY=              6.4367   XZ=              0.2359   YZ=              3.9442

 Normal termination of Gaussian 16 at Thu Jul 11 19:04:52 2019.
