 Gaussian 16, Revision A.03,
 Gaussian 16:  ES64L-G16RevA.03 25-Dec-2016

 -------------------------------------
 # td=(NStates=1) CAM-B3LYP/6-31G(d,p)
 -------------------------------------

 --
 TD
 --
 Symbolic Z-matrix:
 Charge =  0 Multiplicity = 1

                         Standard orientation:
 ---------------------------------------------------------------------
 Center     Atomic      Atomic             Coordinates (Angstroms)
 Number     Number       Type             X           Y           Z
 ---------------------------------------------------------------------
      1          8           0       14.646726   -2.369730   -0.159916
      2          8           0      -14.854830    1.942647    0.750855
      3          6           0       11.435803   -0.905584    1.261847
      4          6           0      -12.177230   -0.853328    0.912590
      5          6           0       12.809215   -1.377845    1.143219
      6          6           0      -13.645368   -0.169849    0.940049
      7          6           0       13.233382   -2.049043   -0.174472
      8          6           0      -13.568786    1.338362    0.766633
      9          6           0       10.888863   -0.223778   -0.023045
     10          6           0      -11.251093   -0.245194   -0.169684
     11          6           0       12.957863   -0.957746   -1.253537
     12          6           0      -12.909415    1.604702   -0.598298
     13          6           0       11.627515   -0.343339   -1.130335
     14          6           0      -11.680516    0.762119   -0.839368
     15          6           0       11.365285   -0.057507    2.464300
     16          6           0       10.538330   -2.167189    1.477058
     17          6           0      -11.670568   -0.495578    2.295030
     18          6           0      -12.596712   -2.409655    0.693145
     19          6           0        9.664536    0.443573    0.132468
     20          6           0      -10.085938   -1.090445   -0.471750
     21          6           0       11.223733    0.263344   -2.467559
     22          6           0      -10.898466    1.409834   -1.904622
     23          6           0        9.377451    1.680987   -0.191845
     24          6           0       -8.768435   -0.531191   -0.384193
     25          6           0        8.032528    2.318943    0.037742
     26          6           0       -7.631777   -1.306578   -0.585036
     27          6           0        8.055851    3.814443    0.428409
     28          6           0       -7.691890   -2.863499   -0.851272
     29          6           0        6.869441    1.559085   -0.165338
     30          6           0       -6.405194   -0.618389   -0.437348
     31          6           0        5.571705    2.084218    0.100127
     32          6           0       -5.067737   -1.101025   -0.529448
     33          6           0        4.456080    1.289575   -0.117020
     34          6           0       -3.958491   -0.426093   -0.361190
     35          6           0        3.139178    1.731287   -0.012837
     36          6           0       -2.558714   -0.951554   -0.406706
     37          6           0        2.793908    3.025106    0.636276
     38          6           0       -2.294887   -2.382287   -0.766707
     39          6           0        2.198501    0.735047   -0.223771
     40          6           0       -1.515863    0.040767   -0.221615
     41          6           0        0.722193    0.840230   -0.077831
     42          6           0       -0.163596   -0.171769   -0.230061
     43          1           0       13.456707   -0.434010    1.052450
     44          1           0       12.955261   -2.038822    1.964999
     45          1           0      -14.249675   -0.325747    1.859519
     46          1           0      -14.154990   -0.725879   -0.031902
     47          1           0       12.640018   -3.072126   -0.491449
     48          1           0      -12.620421    1.648950    1.412909
     49          1           0       13.974666   -0.216626   -1.302304
     50          1           0       13.103658   -1.401785   -2.332644
     51          1           0      -13.467665    1.255491   -1.602982
     52          1           0      -12.559996    2.684000   -0.894783
     53          1           0       11.707383   -0.711791    3.405626
     54          1           0       10.475275    0.136675    2.623558
     55          1           0       11.934703    0.924159    2.424812
     56          1           0       10.755783   -2.651600    0.527809
     57          1           0       11.010567   -2.853885    2.404529
     58          1           0        9.514486   -2.093135    1.567080
     59          1           0      -11.590646    0.584995    2.398675
     60          1           0      -10.685302   -0.804043    2.474306
     61          1           0      -12.094146   -0.920078    3.050631
     62          1           0      -13.319299   -2.569080    1.369762
     63          1           0      -11.576859   -2.837893    0.695625
     64          1           0      -12.985985   -2.401668   -0.431921
     65          1           0        8.916957   -0.271606    0.539434
     66          1           0      -10.012186   -2.141202   -0.522423
     67          1           0       10.315110    0.802183   -2.385541
     68          1           0       11.759472    1.181816   -2.722348
     69          1           0       11.270965   -0.358290   -3.451647
     70          1           0      -11.621595    1.618453   -2.683310
     71          1           0       -9.994370    0.789157   -2.364660
     72          1           0      -10.285563    2.331275   -1.706844
     73          1           0       14.829852   -2.870992    0.426458
     74          1           0      -15.326477    1.917741    1.537872
     75          1           0       10.152195    2.418262   -0.735746
     76          1           0       -8.504348    0.488516   -0.420198
     77          1           0        8.517592    4.148971   -0.486386
     78          1           0        7.004520    4.119756    0.314967
     79          1           0        8.577277    3.792885    1.278938
     80          1           0       -8.023669   -3.396565    0.162066
     81          1           0       -8.357497   -3.049931   -1.548062
     82          1           0       -6.741087   -3.184342   -1.282632
     83          1           0        6.967369    0.505080   -0.326626
     84          1           0       -6.528904    0.425966   -0.144980
     85          1           0        5.221450    3.201957    0.544847
     86          1           0       -4.979708   -2.157313   -0.962095
     87          1           0        4.760114    0.248283   -0.623957
     88          1           0       -3.785996    0.653162   -0.125683
     89          1           0        3.145717    3.240637    1.684441
     90          1           0        1.646921    3.182490    0.654065
     91          1           0        3.132805    3.787932   -0.180171
     92          1           0       -2.474278   -2.975316    0.263427
     93          1           0       -2.874919   -2.723056   -1.488608
     94          1           0       -1.248931   -2.536695   -1.075478
     95          1           0        2.420111   -0.239725   -0.842368
     96          1           0       -1.802744    1.125042    0.013641
     97          1           0        0.474558    1.897530    0.132766
     98          1           0        0.366469   -1.190468   -0.509035
 ---------------------------------------------------------------------

 SCF Done:  E(RCAM-B3LYP) =  -1706.87523332     A.U. after   15 cycles

 Excitation energies and oscillator strengths:

 Excited State   1:      Singlet-A      2.4542 eV  505.19 nm  f=3.7736  <S**2>=0.000
     155 ->158         0.16213
     156 ->157         0.68596
 This state for optimization and/or second-order correction.
 Total Energy, E(TD-HF/TD-DFT) =  -1706.78504229
 Copying the excited state density for this state as the 1-particle RhoCI density.

 The electronic state is 1-A.
 Alpha  occ. eigenvalues --  -19.21370 -19.19328 -10.31901 -10.31560 -10.28406
 Alpha  occ. eigenvalues --  -10.27846 -10.27795 -10.27526 -10.27516 -10.27410
 Alpha  occ. eigenvalues --  -10.27348 -10.27259 -10.27164 -10.27149 -10.27120
 Alpha  occ. eigenvalues --  -10.26905 -10.26659 -10.26563 -10.26526 -10.26511
 Alpha  occ. eigenvalues --  -10.26486 -10.26416 -10.26405 -10.26353 -10.26283
 Alpha  occ. eigenvalues --  -10.26095 -10.26037 -10.26037 -10.25836 -10.25811
 Alpha  occ. eigenvalues --  -10.25731 -10.25714 -10.25385 -10.25204 -10.25200
 Alpha  occ. eigenvalues --  -10.25058 -10.24946 -10.24792 -10.24683 -10.24638
 Alpha  occ. eigenvalues --  -10.23483 -10.21965  -1.12391  -1.10151  -0.95231
 Alpha  occ. eigenvalues --   -0.93539  -0.92073  -0.91358  -0.90497  -0.89912
 Alpha  occ. eigenvalues --   -0.87927  -0.87415  -0.86826  -0.86135  -0.84520
 Alpha  occ. eigenvalues --   -0.83230  -0.82376  -0.80942  -0.79478  -0.78273
 Alpha  occ. eigenvalues --   -0.77668  -0.77351  -0.77214  -0.76593  -0.76046
 Alpha  occ. eigenvalues --   -0.75743  -0.75043  -0.73537  -0.73399  -0.71100
 Alpha  occ. eigenvalues --   -0.69782  -0.67573  -0.66025  -0.65182  -0.63854
 Alpha  occ. eigenvalues --   -0.63416  -0.62216  -0.60825  -0.59711  -0.59358
 Alpha  occ. eigenvalues --   -0.59032  -0.58992  -0.58095  -0.57503  -0.56980
 Alpha  occ. eigenvalues --   -0.56194  -0.55305  -0.55165  -0.54364  -0.53717
 Alpha  occ. eigenvalues --   -0.53174  -0.53022  -0.52607  -0.51981  -0.51562
 Alpha  occ. eigenvalues --   -0.50693  -0.50260  -0.49939  -0.49844  -0.49649
 Alpha  occ. eigenvalues --   -0.49429  -0.49033  -0.48759  -0.48403  -0.48079
 Alpha  occ. eigenvalues --   -0.47929  -0.47365  -0.47066  -0.47027  -0.46959
 Alpha  occ. eigenvalues --   -0.46506  -0.46095  -0.45479  -0.45359  -0.44794
 Alpha  occ. eigenvalues --   -0.44571  -0.44338  -0.44085  -0.43768  -0.43450
 Alpha  occ. eigenvalues --   -0.43047  -0.42789  -0.42284  -0.41800  -0.41334
 Alpha  occ. eigenvalues --   -0.41253  -0.41177  -0.40703  -0.40697  -0.40437
 Alpha  occ. eigenvalues --   -0.40194  -0.40029  -0.39885  -0.39447  -0.39125
 Alpha  occ. eigenvalues --   -0.38841  -0.38723  -0.38269  -0.38076  -0.37891
 Alpha  occ. eigenvalues --   -0.37759  -0.37591  -0.37298  -0.36209  -0.36003
 Alpha  occ. eigenvalues --   -0.34580  -0.34400  -0.33739  -0.32490  -0.32024
 Alpha  occ. eigenvalues --   -0.31238  -0.29870  -0.28384  -0.26771  -0.23437
 Alpha  occ. eigenvalues --   -0.19890
 Alpha virt. eigenvalues --   -0.04992  -0.00750   0.02552   0.05530   0.08524
 Alpha virt. eigenvalues --    0.09579   0.10365   0.11321   0.11863   0.12103
 Alpha virt. eigenvalues --    0.12300   0.12866   0.13216   0.13584   0.13654

 Mulliken charges:
               1
     1  O   -0.516383
     2  O   -0.555364
     3  C   -0.034030
     4  C   -0.073245
     5  C   -0.175868
     6  C   -0.173056
     7  C    0.158569
     8  C    0.182124
     9  C    0.054007
    10  C    0.079108
    11  C   -0.232724
    12  C   -0.201680
    13  C    0.083069
    14  C    0.077383
    15  C   -0.251171
    16  C   -0.300139
    17  C   -0.290506
    18  C   -0.292981
    19  C   -0.095442
    20  C   -0.171372
    21  C   -0.377973
    22  C   -0.369609
    23  C   -0.108114
    24  C   -0.080593
    25  C   -0.002222
    26  C    0.098675
    27  C   -0.332625
    28  C   -0.362151
    29  C   -0.105680
    30  C   -0.135868
    31  C   -0.095301
    32  C   -0.106308
    33  C   -0.098796
    34  C   -0.073393
    35  C    0.103543
    36  C    0.075022
    37  C   -0.375793
    38  C   -0.355022
    39  C   -0.131481
    40  C   -0.141551
    41  C   -0.085568
    42  C   -0.070242
    43  H    0.106594
    44  H    0.083257
    45  H    0.076772
    46  H    0.070782
    47  H    0.063094
    48  H    0.077841
    49  H    0.100944
    50  H    0.096569
    51  H    0.099325
    52  H    0.105241
    53  H    0.071016
    54  H    0.105853
    55  H    0.091811
    56  H    0.109927
    57  H    0.066719
    58  H    0.112629
    59  H    0.099769
    60  H    0.096770
    61  H    0.103290
    62  H    0.120612
    63  H    0.100839
    64  H    0.093494
    65  H    0.096206
    66  H    0.093327
    67  H    0.109903
    68  H    0.112375
    69  H    0.103332
    70  H    0.103270
    71  H    0.094136
    72  H    0.112442
    73  H    0.261932
    74  H    0.299567
    75  H    0.086276
    76  H    0.087473
    77  H    0.125119
    78  H    0.115185
    79  H    0.140654
    80  H    0.113418
    81  H    0.135240
    82  H    0.110090
    83  H    0.091142
    84  H    0.077345
    85  H    0.081269
    86  H    0.076227
    87  H    0.075414
    88  H    0.078085
    89  H    0.135375
    90  H    0.104453
    91  H    0.118208
    92  H    0.110533
    93  H    0.131230
    94  H    0.111407
    95  H    0.075365
    96  H    0.087140
    97  H    0.072310
    98  H    0.082153
 Sum of Mulliken charges =  -0.00000

 Dipole moment (field-independent basis, Debye):
    X=             -0.1317    Y=             -0.3020    Z=              1.8481  Tot=              1.8773
 Quadrupole moment (field-independent basis, Debye-Ang):
   XX=           -297.3678   YY=           -246.6942   ZZ=           -258.4775
   XY=             12.0175   XZ=             -8.2955   YZ=              1.6632

 Normal termination of Gaussian 16 at Sat Jun 29 09:52:57 2019.
