 Gaussian 16, Revision A.03,
 Gaussian 16:  ES64L-G16RevA.03 25-Dec-2016

 -------------------------------------
 # td=(NStates=1) CAM-B3LYP/6-31G(d,p)
 -------------------------------------

 --
 TD
 --
 Symbolic Z-matrix:
 Charge =  0 Multiplicity = 1

                         Standard orientation:
 ---------------------------------------------------------------------
 Center     Atomic      Atomic             Coordinates (Angstroms)
 Number     Number       Type             X           Y           Z
 ---------------------------------------------------------------------
      1          8           0       14.623427   -2.375780   -0.484891
      2          8           0      -14.953550    1.831980    0.672046
      3          6           0       11.382836   -1.193244    1.166550
      4          6           0      -12.324545   -0.901659    0.751286
      5          6           0       12.834937   -1.655315    1.082585
      6          6           0      -13.712288   -0.349532    0.593461
      7          6           0       13.245358   -1.976714   -0.372622
      8          6           0      -13.584810    1.172694    0.687138
      9          6           0       10.893780   -0.356726    0.020954
     10          6           0      -11.215414   -0.274695   -0.135026
     11          6           0       12.997178   -0.883251   -1.293905
     12          6           0      -12.790000    1.648539   -0.533682
     13          6           0       11.559257   -0.305373   -1.104374
     14          6           0      -11.581711    0.859058   -0.858204
     15          6           0       11.183538   -0.531620    2.566264
     16          6           0       10.499276   -2.561333    1.217276
     17          6           0      -11.704901   -0.830361    2.235580
     18          6           0      -12.520415   -2.508283    0.411444
     19          6           0        9.507504    0.288911    0.187609
     20          6           0      -10.050311   -1.070592   -0.280555
     21          6           0       11.179129    0.459029   -2.343171
     22          6           0      -10.557318    1.493138   -1.728217
     23          6           0        9.407602    1.667867    0.031270
     24          6           0       -8.783972   -0.578197   -0.221415
     25          6           0        8.120192    2.374683    0.153940
     26          6           0       -7.540940   -1.280745   -0.401620
     27          6           0        8.070485    3.764198    0.835641
     28          6           0       -7.459595   -2.780278   -0.754026
     29          6           0        6.914407    1.787271   -0.091521
     30          6           0       -6.360891   -0.502009   -0.247210
     31          6           0        5.609411    2.257540    0.049612
     32          6           0       -5.116062   -1.043451   -0.466456
     33          6           0        4.502103    1.485546   -0.135575
     34          6           0       -4.028763   -0.259984   -0.280844
     35          6           0        3.155919    1.888081    0.071978
     36          6           0       -2.578948   -0.726317   -0.494599
     37          6           0        2.868891    3.345949    0.422897
     38          6           0       -2.380421   -2.159790   -0.836623
     39          6           0        2.258582    0.933731   -0.068052
     40          6           0       -1.624995    0.188757   -0.374959
     41          6           0        0.663080    0.951571    0.017334
     42          6           0       -0.119875    0.011606   -0.432514
     43          1           0       13.458905   -0.695010    1.366815
     44          1           0       13.009071   -2.615734    1.701441
     45          1           0      -14.185540   -0.622423    1.531079
     46          1           0      -14.198679   -0.585157   -0.220580
     47          1           0       12.566172   -2.842715   -0.837448
     48          1           0      -13.126108    1.417657    1.589534
     49          1           0       13.848649   -0.260921   -1.063327
     50          1           0       13.194172   -1.283740   -2.281807
     51          1           0      -13.439319    1.702869   -1.535873
     52          1           0      -12.557939    2.618314   -0.296556
     53          1           0       11.601700   -1.120856    3.444216
     54          1           0       10.084190   -0.606310    2.715196
     55          1           0       11.677400    0.455157    2.567138
     56          1           0       10.690618   -2.911368    0.337395
     57          1           0       10.721518   -3.044359    2.021717
     58          1           0        9.319377   -2.238213    1.164279
     59          1           0      -11.361274    0.098205    2.463271
     60          1           0      -10.840888   -1.527803    2.335965
     61          1           0      -12.602397   -1.211035    2.967865
     62          1           0      -13.407255   -3.086986    0.661720
     63          1           0      -11.608638   -3.073711    0.694203
     64          1           0      -12.795797   -2.663204   -0.777396
     65          1           0        8.653398   -0.302606    0.593842
     66          1           0      -10.191513   -2.183413   -0.387556
     67          1           0       10.281454    0.971664   -2.304703
     68          1           0       12.144442    1.019030   -2.835410
     69          1           0       11.165508   -0.265081   -3.206259
     70          1           0      -11.083894    1.991060   -2.504297
     71          1           0       -9.742052    0.858740   -2.246096
     72          1           0      -10.161092    2.190557   -1.079323
     73          1           0       14.554371   -2.988376    0.237757
     74          1           0      -15.481334    1.310046    1.335902
     75          1           0       10.122254    2.379092   -0.131890
     76          1           0       -8.781083    0.481170   -0.173942
     77          1           0        8.928722    4.634366    0.460267
     78          1           0        7.122927    4.051059    0.477293
     79          1           0        8.172026    3.637180    1.973583
     80          1           0       -7.998052   -3.527431    0.005798
     81          1           0       -7.998981   -2.780279   -1.759453
     82          1           0       -6.421449   -3.044066   -0.922769
     83          1           0        6.863243    0.619380   -0.531805
     84          1           0       -6.476652    0.547308   -0.144772
     85          1           0        5.737958    3.281037    0.547704
     86          1           0       -4.937174   -2.106498   -0.838563
     87          1           0        4.580479    0.588731   -0.446932
     88          1           0       -4.079084    0.706736    0.020779
     89          1           0        3.164226    3.350070    1.377293
     90          1           0        1.661244    3.582022    0.307843
     91          1           0        3.476986    3.967147   -0.169068
     92          1           0       -2.743365   -2.839217   -0.116009
     93          1           0       -2.849906   -2.532388   -1.873614
     94          1           0       -1.214182   -2.305855   -0.990452
     95          1           0        2.559887   -0.156114   -0.537144
     96          1           0       -1.841350    1.131610    0.044577
     97          1           0        0.285259    1.983840    0.385580
     98          1           0        0.216106   -0.894975   -0.900139
 ---------------------------------------------------------------------

 SCF Done:  E(RCAM-B3LYP) =  -1706.95952707     A.U. after   14 cycles

 Excitation energies and oscillator strengths:

 Excited State   1:      Singlet-A      3.0825 eV  402.21 nm  f=3.6884  <S**2>=0.000
     155 ->157         0.13456
     155 ->158        -0.25614
     156 ->157         0.62519
     156 ->158         0.11051
 This state for optimization and/or second-order correction.
 Total Energy, E(TD-HF/TD-DFT) =  -1706.84624552
 Copying the excited state density for this state as the 1-particle RhoCI density.

 The electronic state is 1-A.
 Alpha  occ. eigenvalues --  -19.21260 -19.20648 -10.30326 -10.30051 -10.28283
 Alpha  occ. eigenvalues --  -10.27903 -10.27792 -10.27770 -10.27737 -10.27692
 Alpha  occ. eigenvalues --  -10.27459 -10.27408 -10.27313 -10.27279 -10.27138
 Alpha  occ. eigenvalues --  -10.27042 -10.26892 -10.26743 -10.26660 -10.26644
 Alpha  occ. eigenvalues --  -10.26628 -10.26524 -10.26322 -10.26163 -10.26162
 Alpha  occ. eigenvalues --  -10.26077 -10.25976 -10.25888 -10.25853 -10.25817
 Alpha  occ. eigenvalues --  -10.25658 -10.25597 -10.25583 -10.25517 -10.25427
 Alpha  occ. eigenvalues --  -10.25356 -10.25323 -10.25124 -10.24403 -10.24325
 Alpha  occ. eigenvalues --  -10.23860 -10.23658  -1.10270  -1.05787  -0.93784
 Alpha  occ. eigenvalues --   -0.93630  -0.92671  -0.91810  -0.90423  -0.89912
 Alpha  occ. eigenvalues --   -0.87436  -0.86882  -0.86812  -0.85828  -0.85088
 Alpha  occ. eigenvalues --   -0.83263  -0.82647  -0.79971  -0.79818  -0.78183
 Alpha  occ. eigenvalues --   -0.77054  -0.76793  -0.76562  -0.76175  -0.75902
 Alpha  occ. eigenvalues --   -0.75582  -0.75153  -0.74793  -0.73786  -0.70177
 Alpha  occ. eigenvalues --   -0.69411  -0.67142  -0.65936  -0.64357  -0.64000
 Alpha  occ. eigenvalues --   -0.63573  -0.63160  -0.62091  -0.61056  -0.60214
 Alpha  occ. eigenvalues --   -0.59365  -0.58352  -0.58211  -0.56767  -0.56130
 Alpha  occ. eigenvalues --   -0.55544  -0.55127  -0.54289  -0.54117  -0.53973
 Alpha  occ. eigenvalues --   -0.53099  -0.52484  -0.52175  -0.52086  -0.51500
 Alpha  occ. eigenvalues --   -0.50990  -0.50851  -0.50564  -0.50137  -0.49725
 Alpha  occ. eigenvalues --   -0.49382  -0.48952  -0.48784  -0.48517  -0.48063
 Alpha  occ. eigenvalues --   -0.48030  -0.47623  -0.47538  -0.46967  -0.46729
 Alpha  occ. eigenvalues --   -0.46444  -0.45781  -0.45303  -0.44972  -0.44844
 Alpha  occ. eigenvalues --   -0.44680  -0.44487  -0.44206  -0.43901  -0.43675
 Alpha  occ. eigenvalues --   -0.43315  -0.43235  -0.42970  -0.42603  -0.42339
 Alpha  occ. eigenvalues --   -0.42206  -0.42172  -0.41989  -0.41535  -0.41255
 Alpha  occ. eigenvalues --   -0.41076  -0.40381  -0.40324  -0.39791  -0.39526
 Alpha  occ. eigenvalues --   -0.39265  -0.38898  -0.38696  -0.38370  -0.37449
 Alpha  occ. eigenvalues --   -0.37081  -0.36619  -0.36505  -0.36033  -0.35830
 Alpha  occ. eigenvalues --   -0.35498  -0.34689  -0.33991  -0.32344  -0.31876
 Alpha  occ. eigenvalues --   -0.31828  -0.29932  -0.28358  -0.27076  -0.23341
 Alpha  occ. eigenvalues --   -0.21542
 Alpha virt. eigenvalues --   -0.03374  -0.01318   0.03245   0.05856   0.07713
 Alpha virt. eigenvalues --    0.08973   0.10900   0.11710   0.11855   0.12258
 Alpha virt. eigenvalues --    0.12564   0.12827   0.13198   0.13262   0.13474

 Mulliken charges:
               1
     1  O   -0.545812
     2  O   -0.585664
     3  C   -0.047829
     4  C   -0.031412
     5  C   -0.191285
     6  C   -0.163218
     7  C    0.139675
     8  C    0.139396
     9  C    0.060596
    10  C    0.067342
    11  C   -0.218414
    12  C   -0.219021
    13  C    0.076662
    14  C    0.038017
    15  C   -0.292484
    16  C   -0.280242
    17  C   -0.298724
    18  C   -0.319942
    19  C   -0.137876
    20  C   -0.134265
    21  C   -0.362697
    22  C   -0.364593
    23  C   -0.060605
    24  C   -0.095613
    25  C    0.010065
    26  C    0.078192
    27  C   -0.345112
    28  C   -0.353166
    29  C   -0.079941
    30  C   -0.107758
    31  C   -0.095484
    32  C   -0.076039
    33  C   -0.076909
    34  C   -0.108204
    35  C    0.122459
    36  C    0.129728
    37  C   -0.345779
    38  C   -0.376214
    39  C   -0.173032
    40  C   -0.148134
    41  C   -0.094907
    42  C   -0.065172
    43  H    0.094460
    44  H    0.079395
    45  H    0.082148
    46  H    0.112498
    47  H    0.055091
    48  H    0.099403
    49  H    0.120063
    50  H    0.112940
    51  H    0.106276
    52  H    0.124254
    53  H    0.090219
    54  H    0.099856
    55  H    0.104099
    56  H    0.117016
    57  H    0.109194
    58  H    0.064439
    59  H    0.117506
    60  H    0.113047
    61  H    0.070453
    62  H    0.107935
    63  H    0.099240
    64  H    0.069520
    65  H    0.109790
    66  H    0.088742
    67  H    0.123086
    68  H    0.095226
    69  H    0.107162
    70  H    0.103996
    71  H    0.119494
    72  H    0.130735
    73  H    0.303309
    74  H    0.302560
    75  H    0.093947
    76  H    0.078922
    77  H    0.077301
    78  H    0.125553
    79  H    0.127739
    80  H    0.109192
    81  H    0.122113
    82  H    0.110940
    83  H    0.054204
    84  H    0.089575
    85  H    0.079079
    86  H    0.088382
    87  H    0.065152
    88  H    0.071906
    89  H    0.144567
    90  H    0.088348
    91  H    0.130632
    92  H    0.137031
    93  H    0.103281
    94  H    0.090617
    95  H    0.065814
    96  H    0.078562
    97  H    0.078318
    98  H    0.089085
 Sum of Mulliken charges =  -0.00000

 Dipole moment (field-independent basis, Debye):
    X=             -0.6369    Y=             -1.2540    Z=              1.7119  Tot=              2.2155
 Quadrupole moment (field-independent basis, Debye-Ang):
   XX=           -307.4149   YY=           -248.9133   ZZ=           -260.5471
   XY=             20.7615   XZ=              6.7918   YZ=              0.6135

 Normal termination of Gaussian 16 at Mon Jul  8 00:48:25 2019.
