 Gaussian 16, Revision A.03,
 Gaussian 16:  ES64L-G16RevA.03 25-Dec-2016

 -------------------------------------
 # td=(NStates=1) CAM-B3LYP/6-31G(d,p)
 -------------------------------------

 --
 TD
 --
 Symbolic Z-matrix:
 Charge =  0 Multiplicity = 1

                         Standard orientation:
 ---------------------------------------------------------------------
 Center     Atomic      Atomic             Coordinates (Angstroms)
 Number     Number       Type             X           Y           Z
 ---------------------------------------------------------------------
      1          8           0       14.641784   -2.295718   -0.505907
      2          8           0      -14.755794    2.097417    0.651604
      3          6           0       11.617035   -0.902806    1.233712
      4          6           0      -12.360159   -0.847725    0.821572
      5          6           0       13.054899   -1.316515    0.998659
      6          6           0      -13.621806   -0.141538    0.837368
      7          6           0       13.290325   -1.936381   -0.290563
      8          6           0      -13.477298    1.339610    0.706561
      9          6           0       11.030120   -0.291296   -0.019386
     10          6           0      -11.328463   -0.242784   -0.192893
     11          6           0       12.935959   -0.968407   -1.403961
     12          6           0      -12.877980    1.653987   -0.642079
     13          6           0       11.665744   -0.331643   -1.242324
     14          6           0      -11.621772    0.812898   -0.880827
     15          6           0       11.557294    0.027085    2.468315
     16          6           0       10.803406   -2.213543    1.626858
     17          6           0      -11.730357   -0.746515    2.269730
     18          6           0      -12.653485   -2.250087    0.399301
     19          6           0        9.720140    0.374109    0.184691
     20          6           0      -10.081416   -1.021362   -0.360415
     21          6           0       11.118381    0.330550   -2.375153
     22          6           0      -10.624983    1.475306   -1.899959
     23          6           0        9.335828    1.673661   -0.174075
     24          6           0       -8.847538   -0.571465   -0.425960
     25          6           0        8.147820    2.318152   -0.026870
     26          6           0       -7.633630   -1.309116   -0.645717
     27          6           0        7.943761    3.809357    0.197044
     28          6           0       -7.785517   -2.751511   -1.003195
     29          6           0        6.932785    1.483907   -0.130842
     30          6           0       -6.475879   -0.673506   -0.485204
     31          6           0        5.590939    2.026571   -0.046928
     32          6           0       -5.131407   -1.268935   -0.555821
     33          6           0        4.467053    1.287537   -0.015825
     34          6           0       -4.032400   -0.559423   -0.214385
     35          6           0        3.049833    1.648455    0.170919
     36          6           0       -2.596300   -0.965890   -0.157891
     37          6           0        2.719080    3.164043    0.597217
     38          6           0       -2.308014   -2.452804   -0.405737
     39          6           0        2.077425    0.684629   -0.048706
     40          6           0       -1.642731   -0.050643   -0.050071
     41          6           0        0.713024    0.807604    0.008594
     42          6           0       -0.213347   -0.239181   -0.041562
     43          1           0       13.774675   -0.473349    1.206303
     44          1           0       13.427175   -1.958444    1.845441
     45          1           0      -14.200851   -0.257887    1.710869
     46          1           0      -14.077126   -0.289035   -0.039976
     47          1           0       12.702462   -2.815777   -0.254167
     48          1           0      -12.766774    1.630991    1.470338
     49          1           0       13.523874   -0.262229   -1.691261
     50          1           0       12.916156   -1.535980   -2.316875
     51          1           0      -13.604000    1.681222   -1.412435
     52          1           0      -12.702738    2.908015   -0.665472
     53          1           0       11.864929   -0.404433    3.483768
     54          1           0       10.377184    0.356509    2.724184
     55          1           0       11.983672    0.890851    2.147606
     56          1           0       10.554914   -2.917988    0.753378
     57          1           0       11.147778   -2.607134    2.485773
     58          1           0        9.695386   -1.838020    2.037945
     59          1           0      -11.541033    0.308512    2.489417
     60          1           0      -10.846098   -1.391272    2.239398
     61          1           0      -12.430434   -1.258440    3.057612
     62          1           0      -13.407946   -2.753935    1.181069
     63          1           0      -11.582716   -2.812428    0.396282
     64          1           0      -13.196653   -2.341749   -0.568783
     65          1           0        8.902972    0.054566    0.977029
     66          1           0      -10.265871   -2.217772   -0.433895
     67          1           0       10.025449    0.403467   -2.284230
     68          1           0       11.528561    1.328787   -2.577951
     69          1           0       11.176749   -0.283390   -3.451996
     70          1           0      -11.259791    1.935985   -2.567759
     71          1           0       -9.893216    0.866552   -2.223781
     72          1           0      -10.206278    2.295727   -1.402680
     73          1           0       14.743711   -3.138927   -0.004545
     74          1           0      -15.181393    1.874289    1.544467
     75          1           0       10.088971    2.218546   -0.778839
     76          1           0       -8.704593    0.323534   -0.049629
     77          1           0        8.437901    4.440948   -0.462887
     78          1           0        7.006478    4.160332    0.146264
     79          1           0        8.280442    3.957878    1.271467
     80          1           0       -8.363937   -3.357819   -0.182823
     81          1           0       -8.113557   -2.792913   -2.093766
     82          1           0       -6.825354   -3.270872   -0.971833
     83          1           0        7.048464    0.524455   -0.319974
     84          1           0       -6.403800    0.401558   -0.298239
     85          1           0        5.409535    3.058614    0.460184
     86          1           0       -4.969875   -2.232686   -0.979007
     87          1           0        4.666509    0.155652   -0.103862
     88          1           0       -4.151728    0.596388    0.240494
     89          1           0        3.180462    3.296292    1.522309
     90          1           0        1.600905    3.414001    0.696040
     91          1           0        3.113493    3.719148   -0.125788
     92          1           0       -2.888197   -3.098991    0.260599
     93          1           0       -2.703725   -2.667627   -1.405319
     94          1           0       -1.379030   -2.709371   -0.533369
     95          1           0        2.525868   -0.512695   -0.024538
     96          1           0       -1.966285    1.012812    0.149326
     97          1           0        0.301919    1.878206    0.072782
     98          1           0        0.180268   -1.092571   -0.215393
 ---------------------------------------------------------------------

 SCF Done:  E(RCAM-B3LYP) =  -1706.97020759     A.U. after   15 cycles

 Excitation energies and oscillator strengths:

 Excited State   1:      Singlet-A      2.5415 eV  487.83 nm  f=3.3210  <S**2>=0.000
     155 ->158        -0.17081
     156 ->157         0.68061
 This state for optimization and/or second-order correction.
 Total Energy, E(TD-HF/TD-DFT) =  -1706.87680777
 Copying the excited state density for this state as the 1-particle RhoCI density.

 The electronic state is 1-A.
 Alpha  occ. eigenvalues --  -19.21824 -19.21262 -10.29607 -10.29537 -10.28705
 Alpha  occ. eigenvalues --  -10.27826 -10.27816 -10.27625 -10.27590 -10.27425
 Alpha  occ. eigenvalues --  -10.27198 -10.26883 -10.26751 -10.26586 -10.26550
 Alpha  occ. eigenvalues --  -10.26479 -10.26429 -10.26402 -10.26326 -10.26285
 Alpha  occ. eigenvalues --  -10.26229 -10.26216 -10.26168 -10.26110 -10.25994
 Alpha  occ. eigenvalues --  -10.25897 -10.25875 -10.25857 -10.25599 -10.25585
 Alpha  occ. eigenvalues --  -10.25578 -10.25546 -10.25537 -10.25473 -10.25195
 Alpha  occ. eigenvalues --  -10.24720 -10.24548 -10.24446 -10.23963 -10.23157
 Alpha  occ. eigenvalues --  -10.22585 -10.22571  -1.09722  -1.07122  -0.94701
 Alpha  occ. eigenvalues --   -0.94579  -0.91966  -0.91330  -0.90832  -0.89683
 Alpha  occ. eigenvalues --   -0.88369  -0.87536  -0.86798  -0.85591  -0.84821
 Alpha  occ. eigenvalues --   -0.83644  -0.82313  -0.80524  -0.80185  -0.78892
 Alpha  occ. eigenvalues --   -0.77145  -0.77048  -0.76777  -0.76577  -0.75920
 Alpha  occ. eigenvalues --   -0.75739  -0.75316  -0.75045  -0.74123  -0.70787
 Alpha  occ. eigenvalues --   -0.69194  -0.67728  -0.66640  -0.65202  -0.63976
 Alpha  occ. eigenvalues --   -0.63577  -0.62500  -0.61612  -0.60192  -0.60143
 Alpha  occ. eigenvalues --   -0.59829  -0.59230  -0.58858  -0.57513  -0.56016
 Alpha  occ. eigenvalues --   -0.55568  -0.55372  -0.54946  -0.54519  -0.53678
 Alpha  occ. eigenvalues --   -0.53392  -0.52785  -0.52245  -0.51897  -0.50847
 Alpha  occ. eigenvalues --   -0.50683  -0.50573  -0.50436  -0.50253  -0.49717
 Alpha  occ. eigenvalues --   -0.49467  -0.49399  -0.49003  -0.48764  -0.48305
 Alpha  occ. eigenvalues --   -0.47998  -0.47949  -0.47564  -0.47283  -0.46347
 Alpha  occ. eigenvalues --   -0.46239  -0.45713  -0.45627  -0.45292  -0.45016
 Alpha  occ. eigenvalues --   -0.44731  -0.44451  -0.44212  -0.43698  -0.43377
 Alpha  occ. eigenvalues --   -0.43205  -0.42927  -0.42868  -0.42542  -0.42459
 Alpha  occ. eigenvalues --   -0.42311  -0.41354  -0.41243  -0.41002  -0.40636
 Alpha  occ. eigenvalues --   -0.40340  -0.40143  -0.39629  -0.39601  -0.39318
 Alpha  occ. eigenvalues --   -0.39041  -0.38995  -0.38621  -0.38244  -0.38045
 Alpha  occ. eigenvalues --   -0.37515  -0.36836  -0.36751  -0.36565  -0.36188
 Alpha  occ. eigenvalues --   -0.35693  -0.34385  -0.33785  -0.32718  -0.32244
 Alpha  occ. eigenvalues --   -0.32003  -0.29973  -0.28530  -0.26210  -0.23780
 Alpha  occ. eigenvalues --   -0.20395
 Alpha virt. eigenvalues --   -0.04752  -0.00589   0.02206   0.06102   0.07913
 Alpha virt. eigenvalues --    0.10115   0.11190   0.11400   0.11665   0.11894
 Alpha virt. eigenvalues --    0.12415   0.12846   0.12947   0.13171   0.13634

 Mulliken charges:
               1
     1  O   -0.558890
     2  O   -0.566653
     3  C   -0.016634
     4  C   -0.026492
     5  C   -0.178269
     6  C   -0.145671
     7  C    0.158401
     8  C    0.132028
     9  C    0.063142
    10  C    0.070244
    11  C   -0.194635
    12  C   -0.232876
    13  C    0.084334
    14  C    0.028806
    15  C   -0.291265
    16  C   -0.292756
    17  C   -0.298846
    18  C   -0.280348
    19  C   -0.146414
    20  C   -0.143033
    21  C   -0.392745
    22  C   -0.344132
    23  C   -0.111936
    24  C   -0.078141
    25  C    0.068505
    26  C    0.122116
    27  C   -0.354986
    28  C   -0.370314
    29  C   -0.104754
    30  C   -0.134576
    31  C   -0.092041
    32  C   -0.092605
    33  C   -0.111094
    34  C   -0.114445
    35  C    0.065703
    36  C    0.109749
    37  C   -0.362670
    38  C   -0.367563
    39  C   -0.114876
    40  C   -0.130870
    41  C   -0.078273
    42  C   -0.058439
    43  H    0.092576
    44  H    0.067847
    45  H    0.081396
    46  H    0.103964
    47  H    0.085297
    48  H    0.082848
    49  H    0.127952
    50  H    0.108822
    51  H    0.132395
    52  H    0.075183
    53  H    0.100539
    54  H    0.070051
    55  H    0.119643
    56  H    0.100445
    57  H    0.113319
    58  H    0.066890
    59  H    0.110004
    60  H    0.109078
    61  H    0.084303
    62  H    0.077192
    63  H    0.076305
    64  H    0.111678
    65  H    0.086208
    66  H    0.075793
    67  H    0.135666
    68  H    0.124063
    69  H    0.072035
    70  H    0.107905
    71  H    0.122032
    72  H    0.120519
    73  H    0.302861
    74  H    0.301234
    75  H    0.080157
    76  H    0.076432
    77  H    0.119691
    78  H    0.123305
    79  H    0.116353
    80  H    0.110573
    81  H    0.126828
    82  H    0.106053
    83  H    0.080341
    84  H    0.086168
    85  H    0.077537
    86  H    0.087700
    87  H    0.073153
    88  H    0.061793
    89  H    0.135932
    90  H    0.104720
    91  H    0.139468
    92  H    0.122777
    93  H    0.117599
    94  H    0.116450
    95  H    0.061410
    96  H    0.075576
    97  H    0.076228
    98  H    0.061923
 Sum of Mulliken charges =  -0.00000

 Dipole moment (field-independent basis, Debye):
    X=              0.9931    Y=             -1.2461    Z=              1.8289  Tot=              2.4257
 Quadrupole moment (field-independent basis, Debye-Ang):
   XX=           -280.6497   YY=           -242.6149   ZZ=           -258.9274
   XY=              8.2282   XZ=             -4.8783   YZ=              1.1306

 Normal termination of Gaussian 16 at Wed Jul 10 08:33:10 2019.
