 Gaussian 16, Revision A.03,
 Gaussian 16:  ES64L-G16RevA.03 25-Dec-2016

 -------------------------------------
 # td=(NStates=1) CAM-B3LYP/6-31G(d,p)
 -------------------------------------

 --
 TD
 --
 Symbolic Z-matrix:
 Charge =  0 Multiplicity = 1

                         Standard orientation:
 ---------------------------------------------------------------------
 Center     Atomic      Atomic             Coordinates (Angstroms)
 Number     Number       Type             X           Y           Z
 ---------------------------------------------------------------------
      1          8           0       14.594778   -2.420333   -0.566546
      2          8           0      -14.818460    1.838372    0.536759
      3          6           0       11.599596   -1.032008    1.207163
      4          6           0      -12.319367   -0.887632    0.696944
      5          6           0       12.974716   -1.400185    1.035219
      6          6           0      -13.755381   -0.240668    0.570079
      7          6           0       13.243503   -2.046464   -0.480093
      8          6           0      -13.538448    1.288509    0.634882
      9          6           0       10.994826   -0.262087   -0.052695
     10          6           0      -11.362133   -0.223454   -0.245959
     11          6           0       12.933392   -1.035812   -1.487119
     12          6           0      -12.739965    1.826440   -0.602126
     13          6           0       11.517068   -0.333229   -1.282233
     14          6           0      -11.575723    0.969466   -0.871993
     15          6           0       11.368590   -0.032718    2.374532
     16          6           0       10.734396   -2.237911    1.486605
     17          6           0      -11.743913   -0.876422    2.106364
     18          6           0      -12.570245   -2.372783    0.326411
     19          6           0        9.685292    0.421417    0.113533
     20          6           0      -10.056623   -1.047113   -0.546967
     21          6           0       11.017564    0.355685   -2.608317
     22          6           0      -10.523930    1.609268   -1.757252
     23          6           0        9.304567    1.709457   -0.288578
     24          6           0       -8.838059   -0.503623   -0.297478
     25          6           0        7.972195    2.235938    0.113632
     26          6           0       -7.586772   -1.326336   -0.394546
     27          6           0        8.082311    3.743644    0.360406
     28          6           0       -7.742147   -2.761242   -0.853801
     29          6           0        6.925236    1.549481   -0.008934
     30          6           0       -6.403828   -0.781917   -0.110298
     31          6           0        5.557885    2.074102    0.264831
     32          6           0       -5.025176   -1.257211   -0.206714
     33          6           0        4.465944    1.332228    0.180776
     34          6           0       -3.946947   -0.459100   -0.073070
     35          6           0        3.101714    1.715357    0.222703
     36          6           0       -2.581999   -0.856469   -0.272242
     37          6           0        2.767795    3.171687    0.548413
     38          6           0       -2.281490   -2.251596   -0.362433
     39          6           0        2.136250    0.775012   -0.005686
     40          6           0       -1.665321    0.105553   -0.047903
     41          6           0        0.674137    0.954098    0.002428
     42          6           0       -0.197253   -0.093321   -0.126829
     43          1           0       13.717555   -0.485981    0.997942
     44          1           0       13.288846   -2.019632    1.793750
     45          1           0      -14.250873   -0.549315    1.421327
     46          1           0      -14.198673   -0.484051   -0.585643
     47          1           0       12.655372   -3.066100   -0.644071
     48          1           0      -12.850332    1.504287    1.560566
     49          1           0       13.763767   -0.191138   -1.437289
     50          1           0       13.004877   -1.760065   -2.395980
     51          1           0      -13.427262    1.612514   -1.419479
     52          1           0      -12.603553    2.771023   -0.460946
     53          1           0       11.857258   -0.642639    3.253725
     54          1           0       10.325398    0.296701    2.679827
     55          1           0       12.182481    0.857740    2.325634
     56          1           0       10.663806   -2.831498    0.692134
     57          1           0       10.999303   -2.680309    2.399655
     58          1           0        9.641747   -1.816796    1.887738
     59          1           0      -11.682083    0.069578    2.271896
     60          1           0      -10.705233   -1.304562    2.054756
     61          1           0      -12.533796   -1.199057    2.855831
     62          1           0      -13.321567   -3.085027    0.649080
     63          1           0      -11.652615   -2.981335    0.365679
     64          1           0      -12.807791   -2.265578   -0.773897
     65          1           0        8.987261   -0.298429    0.760716
     66          1           0      -10.432978   -2.041468   -0.741295
     67          1           0       10.133193    0.748685   -2.444696
     68          1           0       11.723726    1.116623   -2.704470
     69          1           0       10.991830   -0.492171   -3.316674
     70          1           0      -11.228405    2.009369   -2.638894
     71          1           0       -9.790813    1.016731   -2.294695
     72          1           0      -10.210342    2.586838   -1.487345
     73          1           0       14.941483   -2.741811    0.379921
     74          1           0      -15.496620    1.357243    1.244595
     75          1           0        9.984020    2.294981   -0.672688
     76          1           0       -8.563636    0.495133   -0.123610
     77          1           0        8.764665    4.538850   -0.267869
     78          1           0        7.193861    4.135493    0.667325
     79          1           0        8.653489    3.915602    1.264717
     80          1           0       -8.620477   -3.256936   -0.163917
     81          1           0       -8.274878   -2.887730   -1.949335
     82          1           0       -6.866187   -3.275632   -0.905036
     83          1           0        6.867754    0.456032   -0.071928
     84          1           0       -6.227079    0.254154    0.090655
     85          1           0        5.423739    3.050684    0.225595
     86          1           0       -4.999434   -2.316430   -0.302270
     87          1           0        4.748834    0.231305    0.045746
     88          1           0       -4.149409    0.623295    0.243604
     89          1           0        3.305416    3.450310    1.466004
     90          1           0        1.659044    3.219987    0.681366
     91          1           0        3.053514    3.754481   -0.408677
     92          1           0       -2.903806   -2.980971    0.286938
     93          1           0       -2.534425   -2.338727   -1.410123
     94          1           0       -1.053501   -2.420825   -0.346618
     95          1           0        2.476932   -0.329928    0.058843
     96          1           0       -2.008556    1.204361    0.065127
     97          1           0        0.302664    1.814841    0.163414
     98          1           0        0.258406   -1.095256   -0.218314
 ---------------------------------------------------------------------

 SCF Done:  E(RCAM-B3LYP) =  -1706.91588965     A.U. after   14 cycles

 Excitation energies and oscillator strengths:

 Excited State   1:      Singlet-A      3.0536 eV  406.03 nm  f=3.5959  <S**2>=0.000
     155 ->158        -0.17094
     156 ->157         0.67862
 This state for optimization and/or second-order correction.
 Total Energy, E(TD-HF/TD-DFT) =  -1706.80367345
 Copying the excited state density for this state as the 1-particle RhoCI density.

 The electronic state is 1-A.
 Alpha  occ. eigenvalues --  -19.22030 -19.21533 -10.31468 -10.30738 -10.27377
 Alpha  occ. eigenvalues --  -10.27282 -10.27030 -10.26982 -10.26974 -10.26903
 Alpha  occ. eigenvalues --  -10.26873 -10.26834 -10.26829 -10.26762 -10.26743
 Alpha  occ. eigenvalues --  -10.26705 -10.26674 -10.26638 -10.26637 -10.26541
 Alpha  occ. eigenvalues --  -10.26438 -10.26392 -10.26297 -10.26261 -10.25924
 Alpha  occ. eigenvalues --  -10.25821 -10.25809 -10.25620 -10.25542 -10.25437
 Alpha  occ. eigenvalues --  -10.25419 -10.25349 -10.25298 -10.25286 -10.25049
 Alpha  occ. eigenvalues --  -10.24824 -10.24624 -10.24259 -10.24217 -10.23693
 Alpha  occ. eigenvalues --  -10.23600 -10.23360  -1.08392  -1.08352  -0.93364
 Alpha  occ. eigenvalues --   -0.93207  -0.92752  -0.92046  -0.90502  -0.90009
 Alpha  occ. eigenvalues --   -0.87322  -0.87250  -0.86807  -0.85016  -0.84004
 Alpha  occ. eigenvalues --   -0.82518  -0.81797  -0.79605  -0.79018  -0.77761
 Alpha  occ. eigenvalues --   -0.77022  -0.76953  -0.76649  -0.76167  -0.75995
 Alpha  occ. eigenvalues --   -0.75800  -0.75288  -0.74772  -0.74289  -0.70493
 Alpha  occ. eigenvalues --   -0.68293  -0.67160  -0.65367  -0.64373  -0.63966
 Alpha  occ. eigenvalues --   -0.63397  -0.63075  -0.62521  -0.61212  -0.60531
 Alpha  occ. eigenvalues --   -0.59582  -0.57537  -0.57153  -0.56555  -0.56117
 Alpha  occ. eigenvalues --   -0.55918  -0.55038  -0.54735  -0.54362  -0.53396
 Alpha  occ. eigenvalues --   -0.53308  -0.52652  -0.52348  -0.52051  -0.51574
 Alpha  occ. eigenvalues --   -0.51074  -0.50587  -0.50011  -0.49955  -0.49756
 Alpha  occ. eigenvalues --   -0.49508  -0.49179  -0.48875  -0.48610  -0.48259
 Alpha  occ. eigenvalues --   -0.48017  -0.46942  -0.46563  -0.46212  -0.46008
 Alpha  occ. eigenvalues --   -0.45764  -0.45672  -0.45426  -0.45341  -0.44793
 Alpha  occ. eigenvalues --   -0.44681  -0.44608  -0.44185  -0.43956  -0.43591
 Alpha  occ. eigenvalues --   -0.43538  -0.42949  -0.42823  -0.42600  -0.42354
 Alpha  occ. eigenvalues --   -0.42258  -0.41708  -0.41603  -0.41179  -0.40394
 Alpha  occ. eigenvalues --   -0.40314  -0.39800  -0.39706  -0.39299  -0.39105
 Alpha  occ. eigenvalues --   -0.38996  -0.38525  -0.38197  -0.38067  -0.37645
 Alpha  occ. eigenvalues --   -0.37320  -0.36838  -0.35567  -0.35502  -0.35043
 Alpha  occ. eigenvalues --   -0.34648  -0.34014  -0.33588  -0.32073  -0.31247
 Alpha  occ. eigenvalues --   -0.30775  -0.30080  -0.28012  -0.26456  -0.24439
 Alpha  occ. eigenvalues --   -0.21417
 Alpha virt. eigenvalues --   -0.03353   0.00674   0.03370   0.06206   0.08441
 Alpha virt. eigenvalues --    0.09831   0.10053   0.10511   0.11128   0.11869
 Alpha virt. eigenvalues --    0.12308   0.12466   0.12991   0.13424   0.13549

 Mulliken charges:
               1
     1  O   -0.572424
     2  O   -0.566988
     3  C    0.008400
     4  C   -0.040203
     5  C   -0.217788
     6  C   -0.173402
     7  C    0.183957
     8  C    0.170665
     9  C    0.069167
    10  C    0.011896
    11  C   -0.192419
    12  C   -0.205833
    13  C   -0.023755
    14  C    0.072525
    15  C   -0.294859
    16  C   -0.275971
    17  C   -0.279225
    18  C   -0.321919
    19  C   -0.125874
    20  C   -0.149545
    21  C   -0.322800
    22  C   -0.367262
    23  C   -0.098238
    24  C   -0.059498
    25  C    0.093725
    26  C    0.115074
    27  C   -0.382399
    28  C   -0.350451
    29  C   -0.100139
    30  C   -0.139482
    31  C   -0.091130
    32  C   -0.088191
    33  C   -0.100444
    34  C   -0.117120
    35  C    0.097644
    36  C    0.138996
    37  C   -0.361482
    38  C   -0.363461
    39  C   -0.141982
    40  C   -0.143045
    41  C   -0.048950
    42  C   -0.095830
    43  H    0.088311
    44  H    0.082747
    45  H    0.085779
    46  H    0.084497
    47  H    0.063354
    48  H    0.063703
    49  H    0.108115
    50  H    0.101184
    51  H    0.123994
    52  H    0.117326
    53  H    0.069332
    54  H    0.119008
    55  H    0.085324
    56  H    0.118858
    57  H    0.107745
    58  H    0.068123
    59  H    0.108796
    60  H    0.112380
    61  H    0.086406
    62  H    0.107909
    63  H    0.088089
    64  H    0.087951
    65  H    0.078483
    66  H    0.106588
    67  H    0.121278
    68  H    0.124371
    69  H    0.112782
    70  H    0.072710
    71  H    0.129357
    72  H    0.123316
    73  H    0.313648
    74  H    0.306165
    75  H    0.083649
    76  H    0.099283
    77  H    0.103354
    78  H    0.117164
    79  H    0.125089
    80  H    0.095354
    81  H    0.098119
    82  H    0.111647
    83  H    0.084261
    84  H    0.063279
    85  H    0.070576
    86  H    0.072444
    87  H    0.063239
    88  H    0.084747
    89  H    0.128308
    90  H    0.108987
    91  H    0.119638
    92  H    0.125291
    93  H    0.138274
    94  H    0.089386
    95  H    0.077274
    96  H    0.082024
    97  H    0.057908
    98  H    0.083140
 Sum of Mulliken charges =  -0.00000

 Dipole moment (field-independent basis, Debye):
    X=              0.2099    Y=             -0.5446    Z=              2.4174  Tot=              2.4869
 Quadrupole moment (field-independent basis, Debye-Ang):
   XX=           -258.8218   YY=           -247.4210   ZZ=           -263.2551
   XY=             16.8600   XZ=              9.0011   YZ=             -1.3032

 Normal termination of Gaussian 16 at Sat Jun 29 16:59:22 2019.
