 Gaussian 16, Revision A.03,
 Gaussian 16:  ES64L-G16RevA.03 25-Dec-2016

 -------------------------------------
 # td=(NStates=1) CAM-B3LYP/6-31G(d,p)
 -------------------------------------

 --
 TD
 --
 Symbolic Z-matrix:
 Charge =  0 Multiplicity = 1

                         Standard orientation:
 ---------------------------------------------------------------------
 Center     Atomic      Atomic             Coordinates (Angstroms)
 Number     Number       Type             X           Y           Z
 ---------------------------------------------------------------------
      1          8           0       14.763871   -2.234077   -0.400791
      2          8           0      -14.785005    2.050110    0.637827
      3          6           0       11.439181   -1.060542    1.086710
      4          6           0      -12.299064   -0.853071    0.840045
      5          6           0       12.961043   -1.388326    1.006862
      6          6           0      -13.702700   -0.185764    0.701114
      7          6           0       13.338876   -1.868901   -0.370855
      8          6           0      -13.506592    1.359405    0.652657
      9          6           0       10.972891   -0.271098    0.003249
     10          6           0      -11.318987   -0.194709   -0.227324
     11          6           0       13.114556   -0.755371   -1.300353
     12          6           0      -12.792236    1.813789   -0.660426
     13          6           0       11.714712   -0.175257   -1.182761
     14          6           0      -11.514504    1.008742   -0.843491
     15          6           0       11.378308   -0.311106    2.464111
     16          6           0       10.555642   -2.399498    1.186684
     17          6           0      -11.833861   -0.818757    2.187863
     18          6           0      -12.531845   -2.341315    0.389957
     19          6           0        9.647872    0.413555    0.205519
     20          6           0      -10.134257   -0.988928   -0.405349
     21          6           0       11.219234    0.523386   -2.367423
     22          6           0      -10.614665    1.478691   -1.929090
     23          6           0        9.399486    1.714673   -0.208954
     24          6           0       -8.817717   -0.625734   -0.262005
     25          6           0        8.008223    2.322767    0.053640
     26          6           0       -7.636008   -1.413668   -0.442493
     27          6           0        8.013754    3.780840    0.384055
     28          6           0       -7.622676   -2.856961   -0.745732
     29          6           0        6.963762    1.585640   -0.141204
     30          6           0       -6.497125   -0.671152   -0.380011
     31          6           0        5.579211    1.920731    0.118568
     32          6           0       -5.103431   -1.079091   -0.469762
     33          6           0        4.451402    1.196610   -0.019107
     34          6           0       -4.005195   -0.277915   -0.361086
     35          6           0        3.121010    1.547022    0.278383
     36          6           0       -2.629007   -0.847641   -0.376854
     37          6           0        2.680219    3.006171    0.865275
     38          6           0       -2.375747   -2.358797   -0.699348
     39          6           0        2.099726    0.730813    0.036717
     40          6           0       -1.658189    0.113354   -0.143727
     41          6           0        0.613901    0.755682    0.089483
     42          6           0       -0.270687   -0.111507   -0.195750
     43          1           0       13.556306   -0.641362    1.295997
     44          1           0       12.922264   -2.005956    1.947241
     45          1           0      -14.212970   -0.536324    1.286926
     46          1           0      -14.127456   -0.313348   -0.168782
     47          1           0       12.922045   -2.824147   -0.586464
     48          1           0      -12.918894    1.671915    1.645184
     49          1           0       13.831621    0.029799   -1.213648
     50          1           0       13.115111   -1.227166   -2.366169
     51          1           0      -13.503138    1.355907   -1.502570
     52          1           0      -12.608313    2.769175   -0.613892
     53          1           0       11.902381   -0.881290    3.241786
     54          1           0       10.126754   -0.142745    2.765949
     55          1           0       12.003221    0.694888    2.456973
     56          1           0       10.845064   -2.927956    0.158142
     57          1           0       11.000267   -3.054393    1.920382
     58          1           0        9.536988   -2.310163    1.532021
     59          1           0      -11.885857    0.275980    2.392639
     60          1           0      -10.731674   -1.095647    2.456316
     61          1           0      -12.228625   -1.434518    3.015619
     62          1           0      -13.546957   -2.719344    0.950505
     63          1           0      -11.768133   -3.031899    0.844421
     64          1           0      -12.539500   -2.693602   -0.706441
     65          1           0        8.979730   -0.120522    0.566207
     66          1           0      -10.251502   -2.058768   -0.659920
     67          1           0       10.202906    0.839627   -2.196341
     68          1           0       11.749121    1.347105   -2.684390
     69          1           0       11.131530   -0.271793   -3.218980
     70          1           0      -11.326864    1.677496   -2.807285
     71          1           0      -10.165223    0.505546   -2.151019
     72          1           0      -10.115324    2.323198   -1.495525
     73          1           0       14.893730   -2.633300    0.513747
     74          1           0      -15.235835    1.488065    1.428964
     75          1           0       10.149554    2.391153   -0.767112
     76          1           0       -8.534344    0.291966    0.146543
     77          1           0        8.813085    4.175889   -0.339464
     78          1           0        7.082401    4.277338    0.439011
     79          1           0        8.433562    3.635709    1.400598
     80          1           0       -8.140159   -3.409556   -0.026406
     81          1           0       -8.267750   -2.893818   -1.734711
     82          1           0       -6.609797   -3.214398   -0.862531
     83          1           0        6.963345    0.513156   -0.482880
     84          1           0       -6.384906    0.443647   -0.188570
     85          1           0        5.237438    2.911558    0.497501
     86          1           0       -4.823068   -2.044300   -0.854152
     87          1           0        4.470360    0.197643   -0.178914
     88          1           0       -4.149973    0.674117   -0.162085
     89          1           0        3.545464    3.103355    1.760392
     90          1           0        1.679650    3.245849    1.313582
     91          1           0        2.913649    3.736468    0.007990
     92          1           0       -2.935932   -3.033262    0.134977
     93          1           0       -2.860789   -2.682672   -1.822667
     94          1           0       -1.375105   -2.734051   -0.840770
     95          1           0        2.453169   -0.285840   -0.299007
     96          1           0       -2.117680    0.916570    0.211409
     97          1           0        0.359253    1.834788    0.153462
     98          1           0        0.263777   -1.134606   -0.356798
 ---------------------------------------------------------------------

 SCF Done:  E(RCAM-B3LYP) =  -1706.86858923     A.U. after   14 cycles

 Excitation energies and oscillator strengths:

 Excited State   1:      Singlet-A      3.0167 eV  410.99 nm  f=3.7467  <S**2>=0.000
     155 ->158        -0.18896
     156 ->157         0.67290
 This state for optimization and/or second-order correction.
 Total Energy, E(TD-HF/TD-DFT) =  -1706.75772762
 Copying the excited state density for this state as the 1-particle RhoCI density.

 The electronic state is 1-A.
 Alpha  occ. eigenvalues --  -19.21788 -19.20283 -10.31260 -10.29890 -10.28833
 Alpha  occ. eigenvalues --  -10.28468 -10.27994 -10.27903 -10.27845 -10.27602
 Alpha  occ. eigenvalues --  -10.27513 -10.27383 -10.27200 -10.27021 -10.26674
 Alpha  occ. eigenvalues --  -10.26518 -10.26377 -10.26233 -10.26233 -10.26228
 Alpha  occ. eigenvalues --  -10.26126 -10.26118 -10.25876 -10.25838 -10.25738
 Alpha  occ. eigenvalues --  -10.25710 -10.25665 -10.25637 -10.25625 -10.25601
 Alpha  occ. eigenvalues --  -10.25567 -10.25475 -10.25462 -10.25416 -10.25388
 Alpha  occ. eigenvalues --  -10.25235 -10.24959 -10.24938 -10.24695 -10.24500
 Alpha  occ. eigenvalues --  -10.24101 -10.21950  -1.07165  -1.07162  -0.94435
 Alpha  occ. eigenvalues --   -0.93742  -0.92229  -0.91815  -0.91148  -0.90091
 Alpha  occ. eigenvalues --   -0.88286  -0.87609  -0.87249  -0.85765  -0.84810
 Alpha  occ. eigenvalues --   -0.83374  -0.81868  -0.80650  -0.80258  -0.77763
 Alpha  occ. eigenvalues --   -0.77522  -0.77161  -0.76977  -0.76321  -0.75752
 Alpha  occ. eigenvalues --   -0.75520  -0.74899  -0.74438  -0.74060  -0.70488
 Alpha  occ. eigenvalues --   -0.68984  -0.67413  -0.66329  -0.65596  -0.64118
 Alpha  occ. eigenvalues --   -0.63674  -0.63331  -0.61881  -0.61268  -0.60131
 Alpha  occ. eigenvalues --   -0.59783  -0.59036  -0.57962  -0.57695  -0.57022
 Alpha  occ. eigenvalues --   -0.56182  -0.55401  -0.55048  -0.54437  -0.53985
 Alpha  occ. eigenvalues --   -0.53215  -0.52785  -0.51764  -0.51704  -0.51183
 Alpha  occ. eigenvalues --   -0.51028  -0.50627  -0.50375  -0.50190  -0.49890
 Alpha  occ. eigenvalues --   -0.49522  -0.49246  -0.48946  -0.48566  -0.48416
 Alpha  occ. eigenvalues --   -0.47456  -0.47394  -0.47061  -0.46874  -0.46576
 Alpha  occ. eigenvalues --   -0.46492  -0.46069  -0.45726  -0.45551  -0.45116
 Alpha  occ. eigenvalues --   -0.44895  -0.44627  -0.44123  -0.43944  -0.43823
 Alpha  occ. eigenvalues --   -0.43532  -0.43095  -0.42925  -0.42675  -0.42462
 Alpha  occ. eigenvalues --   -0.41890  -0.41585  -0.41209  -0.40969  -0.40676
 Alpha  occ. eigenvalues --   -0.40378  -0.40222  -0.39891  -0.39455  -0.39326
 Alpha  occ. eigenvalues --   -0.38796  -0.38639  -0.38373  -0.38195  -0.38153
 Alpha  occ. eigenvalues --   -0.37664  -0.37198  -0.36345  -0.35892  -0.35608
 Alpha  occ. eigenvalues --   -0.35016  -0.34735  -0.33602  -0.32045  -0.31527
 Alpha  occ. eigenvalues --   -0.31110  -0.29863  -0.27896  -0.26417  -0.24219
 Alpha  occ. eigenvalues --   -0.21405
 Alpha virt. eigenvalues --   -0.03515  -0.00088   0.02842   0.05576   0.07894
 Alpha virt. eigenvalues --    0.09447   0.10842   0.11039   0.11275   0.12083
 Alpha virt. eigenvalues --    0.12709   0.12918   0.13285   0.13434   0.13817

 Mulliken charges:
               1
     1  O   -0.589498
     2  O   -0.561862
     3  C   -0.066872
     4  C    0.002994
     5  C   -0.214182
     6  C   -0.117814
     7  C    0.172491
     8  C    0.128038
     9  C    0.105948
    10  C    0.060614
    11  C   -0.203060
    12  C   -0.179487
    13  C    0.025427
    14  C    0.007137
    15  C   -0.284473
    16  C   -0.306545
    17  C   -0.303732
    18  C   -0.316599
    19  C   -0.057474
    20  C   -0.192327
    21  C   -0.366912
    22  C   -0.337817
    23  C   -0.129003
    24  C   -0.053375
    25  C    0.049320
    26  C    0.111192
    27  C   -0.343898
    28  C   -0.363072
    29  C   -0.095802
    30  C   -0.133996
    31  C   -0.095820
    32  C   -0.093955
    33  C   -0.100371
    34  C   -0.106645
    35  C    0.116754
    36  C    0.105515
    37  C   -0.364999
    38  C   -0.359901
    39  C   -0.155287
    40  C   -0.107767
    41  C   -0.055678
    42  C   -0.072186
    43  H    0.114174
    44  H    0.081396
    45  H    0.054199
    46  H    0.109592
    47  H    0.098455
    48  H    0.062068
    49  H    0.132107
    50  H    0.099810
    51  H    0.112844
    52  H    0.114672
    53  H    0.100580
    54  H    0.063701
    55  H    0.096228
    56  H    0.097030
    57  H    0.102671
    58  H    0.117591
    59  H    0.096725
    60  H    0.099699
    61  H    0.106265
    62  H    0.068552
    63  H    0.096097
    64  H    0.104360
    65  H    0.075168
    66  H    0.079450
    67  H    0.123386
    68  H    0.119113
    69  H    0.092455
    70  H    0.096543
    71  H    0.128876
    72  H    0.123765
    73  H    0.302886
    74  H    0.302054
    75  H    0.099122
    76  H    0.080575
    77  H    0.111563
    78  H    0.125461
    79  H    0.132279
    80  H    0.131268
    81  H    0.109104
    82  H    0.118942
    83  H    0.080957
    84  H    0.075788
    85  H    0.064253
    86  H    0.073603
    87  H    0.070352
    88  H    0.070406
    89  H    0.086094
    90  H    0.123785
    91  H    0.117182
    92  H    0.111537
    93  H    0.089737
    94  H    0.125808
    95  H    0.046367
    96  H    0.081542
    97  H    0.065909
    98  H    0.080835
 Sum of Mulliken charges =  -0.00000

 Dipole moment (field-independent basis, Debye):
    X=              0.1853    Y=             -1.4643    Z=              2.3376  Tot=              2.7646
 Quadrupole moment (field-independent basis, Debye-Ang):
   XX=           -286.2822   YY=           -250.2209   ZZ=           -260.1387
   XY=             28.9623   XZ=              6.6049   YZ=             -2.3969

 Normal termination of Gaussian 16 at Fri Jun 28 21:11:33 2019.
