 Gaussian 16, Revision A.03,
 Gaussian 16:  ES64L-G16RevA.03 25-Dec-2016

 -------------------------------------
 # td=(NStates=1) CAM-B3LYP/6-31G(d,p)
 -------------------------------------

 --
 TD
 --
 Symbolic Z-matrix:
 Charge =  0 Multiplicity = 1

                         Standard orientation:
 ---------------------------------------------------------------------
 Center     Atomic      Atomic             Coordinates (Angstroms)
 Number     Number       Type             X           Y           Z
 ---------------------------------------------------------------------
      1          8           0       14.817213   -2.043672   -0.240069
      2          8           0      -14.707588    1.976794    0.799201
      3          6           0       11.443702   -1.158545    1.143090
      4          6           0      -12.238131   -1.038121    0.662191
      5          6           0       12.896776   -1.298165    1.066634
      6          6           0      -13.588276   -0.195629    0.797720
      7          6           0       13.423731   -1.824180   -0.284690
      8          6           0      -13.532157    1.347071    0.779588
      9          6           0       10.895012   -0.342100   -0.021169
     10          6           0      -11.304999   -0.195289   -0.258337
     11          6           0       13.015139   -0.889269   -1.421299
     12          6           0      -12.835136    1.792442   -0.516305
     13          6           0       11.599614   -0.250031   -1.219722
     14          6           0      -11.575903    0.965635   -0.878910
     15          6           0       11.146756   -0.324007    2.402939
     16          6           0       10.695458   -2.473477    1.289434
     17          6           0      -11.631378   -1.048449    2.074020
     18          6           0      -12.689093   -2.470343    0.108806
     19          6           0        9.623783    0.318497    0.054937
     20          6           0      -10.056055   -1.058847   -0.499483
     21          6           0       11.180180    0.467219   -2.477921
     22          6           0      -10.703073    1.616407   -1.823322
     23          6           0        9.365990    1.585039   -0.227582
     24          6           0       -8.813964   -0.533438   -0.241826
     25          6           0        8.036093    2.211276   -0.007435
     26          6           0       -7.557513   -1.303444   -0.405046
     27          6           0        8.195764    3.708788    0.374792
     28          6           0       -7.664903   -2.662290   -1.059460
     29          6           0        6.851534    1.539294   -0.175514
     30          6           0       -6.460351   -0.609309   -0.242019
     31          6           0        5.646506    2.070880    0.140081
     32          6           0       -5.115249   -1.170782   -0.381331
     33          6           0        4.510933    1.321344    0.064753
     34          6           0       -3.981324   -0.409862    0.015150
     35          6           0        3.050097    1.639602    0.205612
     36          6           0       -2.629391   -0.783116   -0.291457
     37          6           0        2.760552    3.101849    0.669159
     38          6           0       -2.376603   -2.208195   -0.752253
     39          6           0        2.029677    0.757307    0.027989
     40          6           0       -1.680852    0.127451    0.021840
     41          6           0        0.626472    0.907889    0.158868
     42          6           0       -0.222574   -0.151855   -0.114398
     43          1           0       13.197794   -0.369602    1.306974
     44          1           0       13.135623   -1.966490    1.951151
     45          1           0      -13.902450   -0.619959    1.721830
     46          1           0      -14.376747   -0.522375   -0.018837
     47          1           0       13.000803   -2.785768   -0.584440
     48          1           0      -12.969672    1.721543    1.481608
     49          1           0       13.925779   -0.142582   -1.704761
     50          1           0       12.854983   -1.608236   -2.334957
     51          1           0      -13.624788    1.661780   -1.165954
     52          1           0      -12.721055    2.910969   -0.439396
     53          1           0       11.538223   -0.872616    3.296490
     54          1           0        9.875398   -0.323476    2.528188
     55          1           0       11.719573    0.623159    2.412273
     56          1           0       10.641268   -3.175040    0.391338
     57          1           0       11.174687   -3.267139    2.045863
     58          1           0        9.630408   -2.380622    1.538225
     59          1           0      -11.241972    0.009004    2.383348
     60          1           0      -10.751630   -1.607638    2.013625
     61          1           0      -12.339009   -1.438281    2.798442
     62          1           0      -13.455907   -2.894460    0.753202
     63          1           0      -11.883682   -3.236542    0.267009
     64          1           0      -12.964403   -2.490970   -1.021673
     65          1           0        8.689239   -0.276216    0.458298
     66          1           0      -10.204955   -2.124681   -0.985923
     67          1           0       10.160919    0.730785   -2.334627
     68          1           0       11.837918    1.438379   -2.752243
     69          1           0       11.181002   -0.273349   -3.254625
     70          1           0      -11.224877    1.852898   -2.924540
     71          1           0      -10.084314    1.066769   -2.098967
     72          1           0      -10.244458    2.642704   -1.583146
     73          1           0       14.969517   -2.691794    0.461358
     74          1           0      -15.202019    1.584554    1.640264
     75          1           0       10.063457    2.248731   -0.610698
     76          1           0       -8.828537    0.592775   -0.124662
     77          1           0        9.024485    4.230405   -0.543067
     78          1           0        7.104486    4.215005    0.283422
     79          1           0        8.550443    3.657823    1.540521
     80          1           0       -8.075392   -3.356339   -0.476187
     81          1           0       -8.216299   -2.442284   -1.918952
     82          1           0       -6.762571   -3.185113   -1.391841
     83          1           0        6.951304    0.586492   -0.560277
     84          1           0       -6.535905    0.461618    0.165444
     85          1           0        5.418325    3.169285    0.452124
     86          1           0       -4.974344   -2.203812   -0.562816
     87          1           0        4.722903    0.201779   -0.082398
     88          1           0       -4.100667    0.612050    0.310861
     89          1           0        3.737441    3.201282    1.498177
     90          1           0        1.744839    3.487003    1.220908
     91          1           0        3.266824    3.738203    0.065130
     92          1           0       -2.835048   -2.876046   -0.168541
     93          1           0       -2.809480   -2.438267   -1.857616
     94          1           0       -1.257805   -2.478334   -0.596649
     95          1           0        2.303135   -0.305132   -0.260194
     96          1           0       -2.275046    1.060510    0.396766
     97          1           0        0.258615    1.898370    0.160618
     98          1           0        0.285569   -1.191157   -0.207287
 ---------------------------------------------------------------------

 SCF Done:  E(RCAM-B3LYP) =  -1706.92231295     A.U. after   14 cycles

 Excitation energies and oscillator strengths:

 Excited State   1:      Singlet-A      2.7927 eV  443.97 nm  f=3.6129  <S**2>=0.000
     155 ->158        -0.17735
     156 ->157         0.67912
 This state for optimization and/or second-order correction.
 Total Energy, E(TD-HF/TD-DFT) =  -1706.81968474
 Copying the excited state density for this state as the 1-particle RhoCI density.

 The electronic state is 1-A.
 Alpha  occ. eigenvalues --  -19.21733 -19.20778 -10.30316 -10.30242 -10.28278
 Alpha  occ. eigenvalues --  -10.28096 -10.28059 -10.27768 -10.27622 -10.27536
 Alpha  occ. eigenvalues --  -10.27470 -10.27268 -10.27199 -10.27058 -10.26860
 Alpha  occ. eigenvalues --  -10.26707 -10.26633 -10.26615 -10.26523 -10.26506
 Alpha  occ. eigenvalues --  -10.26478 -10.26453 -10.26386 -10.26324 -10.26290
 Alpha  occ. eigenvalues --  -10.26278 -10.26160 -10.26155 -10.26096 -10.26047
 Alpha  occ. eigenvalues --  -10.26019 -10.25967 -10.25763 -10.25294 -10.25266
 Alpha  occ. eigenvalues --  -10.24963 -10.24623 -10.24516 -10.24255 -10.24216
 Alpha  occ. eigenvalues --  -10.23747 -10.23622  -1.11316  -1.09523  -0.94465
 Alpha  occ. eigenvalues --   -0.92411  -0.91839  -0.91500  -0.90473  -0.89532
 Alpha  occ. eigenvalues --   -0.87893  -0.86757  -0.86420  -0.84923  -0.83861
 Alpha  occ. eigenvalues --   -0.82605  -0.81655  -0.79921  -0.79556  -0.77812
 Alpha  occ. eigenvalues --   -0.77363  -0.76544  -0.76049  -0.75691  -0.75562
 Alpha  occ. eigenvalues --   -0.74808  -0.74616  -0.74542  -0.73990  -0.69870
 Alpha  occ. eigenvalues --   -0.68307  -0.67199  -0.65509  -0.64548  -0.64042
 Alpha  occ. eigenvalues --   -0.63476  -0.62231  -0.61222  -0.60325  -0.59542
 Alpha  occ. eigenvalues --   -0.59167  -0.58804  -0.58571  -0.57326  -0.55862
 Alpha  occ. eigenvalues --   -0.55818  -0.55576  -0.55011  -0.54114  -0.53507
 Alpha  occ. eigenvalues --   -0.52995  -0.52852  -0.52163  -0.51516  -0.51030
 Alpha  occ. eigenvalues --   -0.50919  -0.50387  -0.49789  -0.49329  -0.48989
 Alpha  occ. eigenvalues --   -0.48780  -0.48453  -0.48146  -0.47616  -0.47525
 Alpha  occ. eigenvalues --   -0.47392  -0.47085  -0.46728  -0.46405  -0.45863
 Alpha  occ. eigenvalues --   -0.45775  -0.45747  -0.45214  -0.44905  -0.44292
 Alpha  occ. eigenvalues --   -0.44067  -0.43608  -0.43325  -0.43303  -0.43059
 Alpha  occ. eigenvalues --   -0.42702  -0.42314  -0.42153  -0.42091  -0.41980
 Alpha  occ. eigenvalues --   -0.41701  -0.41398  -0.41228  -0.41147  -0.40831
 Alpha  occ. eigenvalues --   -0.40613  -0.40327  -0.39884  -0.39803  -0.39603
 Alpha  occ. eigenvalues --   -0.39132  -0.39090  -0.38607  -0.38438  -0.38214
 Alpha  occ. eigenvalues --   -0.38179  -0.37510  -0.36775  -0.35944  -0.35378
 Alpha  occ. eigenvalues --   -0.35025  -0.34110  -0.33784  -0.31904  -0.31694
 Alpha  occ. eigenvalues --   -0.31593  -0.29343  -0.28062  -0.26754  -0.23975
 Alpha  occ. eigenvalues --   -0.20753
 Alpha virt. eigenvalues --   -0.03939  -0.00136   0.03155   0.05784   0.07276
 Alpha virt. eigenvalues --    0.08869   0.09794   0.10674   0.11368   0.11442
 Alpha virt. eigenvalues --    0.11838   0.12152   0.12572   0.12651   0.13166

 Mulliken charges:
               1
     1  O   -0.563983
     2  O   -0.543774
     3  C   -0.016725
     4  C   -0.005106
     5  C   -0.181329
     6  C   -0.206704
     7  C    0.187195
     8  C    0.196187
     9  C    0.087816
    10  C    0.012080
    11  C   -0.223550
    12  C   -0.239151
    13  C    0.029351
    14  C    0.082909
    15  C   -0.289295
    16  C   -0.300963
    17  C   -0.302621
    18  C   -0.315026
    19  C   -0.139993
    20  C   -0.165088
    21  C   -0.344999
    22  C   -0.322925
    23  C   -0.069763
    24  C   -0.098115
    25  C    0.040991
    26  C    0.102642
    27  C   -0.327093
    28  C   -0.369995
    29  C   -0.088764
    30  C   -0.119975
    31  C   -0.058368
    32  C   -0.102880
    33  C   -0.139053
    34  C   -0.134353
    35  C    0.116444
    36  C    0.145885
    37  C   -0.375987
    38  C   -0.367060
    39  C   -0.142066
    40  C   -0.140494
    41  C   -0.050213
    42  C   -0.115370
    43  H    0.106893
    44  H    0.071618
    45  H    0.070382
    46  H    0.077077
    47  H    0.080146
    48  H    0.072871
    49  H    0.108432
    50  H    0.094634
    51  H    0.122015
    52  H    0.097665
    53  H    0.094627
    54  H    0.079690
    55  H    0.109371
    56  H    0.097329
    57  H    0.080679
    58  H    0.105489
    59  H    0.101082
    60  H    0.117148
    61  H    0.099898
    62  H    0.108706
    63  H    0.094506
    64  H    0.110562
    65  H    0.081173
    66  H    0.097293
    67  H    0.119845
    68  H    0.100895
    69  H    0.115092
    70  H    0.071545
    71  H    0.109659
    72  H    0.103754
    73  H    0.305455
    74  H    0.306483
    75  H    0.087765
    76  H    0.097410
    77  H    0.082928
    78  H    0.100700
    79  H    0.122541
    80  H    0.129834
    81  H    0.134372
    82  H    0.105502
    83  H    0.087312
    84  H    0.081622
    85  H    0.072982
    86  H    0.086452
    87  H    0.071299
    88  H    0.075920
    89  H    0.072037
    90  H    0.116643
    91  H    0.141416
    92  H    0.136429
    93  H    0.103787
    94  H    0.092973
    95  H    0.065597
    96  H    0.087743
    97  H    0.090101
    98  H    0.103900
 Sum of Mulliken charges =  -0.00000

 Dipole moment (field-independent basis, Debye):
    X=              0.1312    Y=             -2.3115    Z=              1.6979  Tot=              2.8711
 Quadrupole moment (field-independent basis, Debye-Ang):
   XX=           -277.5120   YY=           -244.4359   ZZ=           -260.9530
   XY=             13.9086   XZ=             -2.7279   YZ=              1.3106

 Normal termination of Gaussian 16 at Tue Jul  2 15:25:49 2019.
