 Gaussian 16, Revision A.03,
 Gaussian 16:  ES64L-G16RevA.03 25-Dec-2016

 -------------------------------------
 # td=(NStates=1) CAM-B3LYP/6-31G(d,p)
 -------------------------------------

 --
 TD
 --
 Symbolic Z-matrix:
 Charge =  0 Multiplicity = 1

                         Standard orientation:
 ---------------------------------------------------------------------
 Center     Atomic      Atomic             Coordinates (Angstroms)
 Number     Number       Type             X           Y           Z
 ---------------------------------------------------------------------
      1          8           0       14.896351   -2.050003   -0.245860
      2          8           0      -14.607068    2.086886    0.757364
      3          6           0       11.490863   -1.025161    1.204708
      4          6           0      -12.371292   -0.794560    0.804234
      5          6           0       12.906015   -1.430480    1.173626
      6          6           0      -13.600306   -0.131427    0.871059
      7          6           0       13.338190   -1.944303   -0.183790
      8          6           0      -13.356018    1.410159    0.917055
      9          6           0       10.937254   -0.307978    0.008098
     10          6           0      -11.290271   -0.297129   -0.132028
     11          6           0       12.983454   -0.928769   -1.213253
     12          6           0      -12.617110    1.827726   -0.400392
     13          6           0       11.739894   -0.250058   -1.119265
     14          6           0      -11.458428    0.939060   -0.778757
     15          6           0       11.265790   -0.138596    2.534865
     16          6           0       10.581935   -2.339644    1.384801
     17          6           0      -11.539104   -0.796993    2.206221
     18          6           0      -12.617827   -2.289738    0.434721
     19          6           0        9.571530    0.228797    0.129172
     20          6           0      -10.126290   -1.123532   -0.519993
     21          6           0       11.246640    0.593034   -2.326898
     22          6           0      -10.580231    1.534874   -1.848184
     23          6           0        9.247017    1.642227   -0.104828
     24          6           0       -8.870147   -0.645991   -0.361822
     25          6           0        7.902163    2.142883    0.160530
     26          6           0       -7.652410   -1.516635   -0.552994
     27          6           0        8.063355    3.622859    0.524069
     28          6           0       -7.687851   -2.932879   -0.863798
     29          6           0        6.784147    1.594442   -0.075825
     30          6           0       -6.420832   -0.819498   -0.437562
     31          6           0        5.411097    2.023650    0.030368
     32          6           0       -5.098158   -1.358508   -0.575301
     33          6           0        4.338240    1.251155   -0.100592
     34          6           0       -3.901071   -0.597175   -0.136158
     35          6           0        2.934078    1.821211    0.012088
     36          6           0       -2.620856   -0.993239   -0.397200
     37          6           0        2.713827    3.256708    0.260296
     38          6           0       -2.202368   -2.393053   -0.854526
     39          6           0        1.965922    0.753542   -0.236768
     40          6           0       -1.688837    0.043105   -0.249278
     41          6           0        0.568458    0.993520   -0.080687
     42          6           0       -0.285126   -0.027883   -0.341369
     43          1           0       13.344711   -0.394925    1.328823
     44          1           0       13.344840   -1.899077    2.005394
     45          1           0      -14.205989   -0.236942    1.726805
     46          1           0      -14.163024   -0.410787   -0.073581
     47          1           0       12.815682   -2.900524   -0.305838
     48          1           0      -12.942175    1.750218    1.984756
     49          1           0       13.838313   -0.195940   -1.385685
     50          1           0       12.800114   -1.519191   -2.121608
     51          1           0      -13.376900    1.913144   -1.229905
     52          1           0      -12.261830    2.920774   -0.277981
     53          1           0       11.574004   -0.535327    3.359123
     54          1           0       10.241805    0.261911    2.588117
     55          1           0       11.808171    0.963517    2.443347
     56          1           0       10.760734   -3.001822    0.445887
     57          1           0       10.983074   -2.899337    2.234199
     58          1           0        9.552605   -2.247183    1.503499
     59          1           0      -11.038095    0.155703    2.625711
     60          1           0      -10.835009   -1.697724    2.173972
     61          1           0      -12.253559   -0.988517    3.045857
     62          1           0      -13.365033   -2.737006    1.160377
     63          1           0      -11.722363   -2.998326    0.392747
     64          1           0      -13.141490   -2.288943   -0.614222
     65          1           0        8.763190   -0.486597    0.420050
     66          1           0      -10.265944   -2.242538   -0.568287
     67          1           0       10.209025    1.127142   -2.275803
     68          1           0       11.916714    1.311791   -2.815553
     69          1           0       11.109837   -0.053156   -3.443715
     70          1           0      -11.147722    2.072715   -2.604323
     71          1           0      -10.021950    0.805367   -2.310137
     72          1           0      -10.039308    2.382158   -1.442624
     73          1           0       15.362537   -3.029142    0.138994
     74          1           0      -15.127720    2.016045    1.596080
     75          1           0        9.891173    2.285514   -0.492355
     76          1           0       -8.778757    0.339072   -0.146693
     77          1           0        8.512966    4.245011   -0.406738
     78          1           0        7.023729    3.909826    0.691654
     79          1           0        8.712605    3.478160    1.483781
     80          1           0       -8.345568   -3.417852   -0.123510
     81          1           0       -8.201717   -2.951025   -1.794981
     82          1           0       -6.642932   -3.503134   -0.815752
     83          1           0        6.960422    0.530792   -0.598436
     84          1           0       -6.396786   -0.038347   -0.089499
     85          1           0        5.122127    3.138665    0.197281
     86          1           0       -5.037375   -2.306971   -1.359973
     87          1           0        4.523081    0.026422   -0.063297
     88          1           0       -4.195310    0.436420   -0.006396
     89          1           0        3.124195    3.656558    1.210463
     90          1           0        1.692919    3.690974    0.231832
     91          1           0        2.954269    3.931099   -0.549736
     92          1           0       -2.511229   -3.180021   -0.125899
     93          1           0       -2.685043   -2.502639   -1.817422
     94          1           0       -1.124471   -2.385334   -0.874132
     95          1           0        2.441972   -0.206993   -0.597687
     96          1           0       -2.210595    0.954774   -0.010876
     97          1           0        0.228142    2.004732    0.423216
     98          1           0        0.078645   -0.922595   -0.749215
 ---------------------------------------------------------------------

 SCF Done:  E(RCAM-B3LYP) =  -1706.88955385     A.U. after   15 cycles

 Excitation energies and oscillator strengths:

 Excited State   1:      Singlet-A      2.2845 eV  542.73 nm  f=3.4008  <S**2>=0.000
     155 ->158        -0.13162
     156 ->157         0.69514
 This state for optimization and/or second-order correction.
 Total Energy, E(TD-HF/TD-DFT) =  -1706.80560097
 Copying the excited state density for this state as the 1-particle RhoCI density.

 The electronic state is 1-A.
 Alpha  occ. eigenvalues --  -19.21834 -19.20886 -10.31601 -10.31129 -10.28596
 Alpha  occ. eigenvalues --  -10.27926 -10.27819 -10.27695 -10.27618 -10.27488
 Alpha  occ. eigenvalues --  -10.27288 -10.27181 -10.27113 -10.27087 -10.26917
 Alpha  occ. eigenvalues --  -10.26780 -10.26531 -10.26436 -10.26368 -10.26359
 Alpha  occ. eigenvalues --  -10.26199 -10.26134 -10.26094 -10.26081 -10.26055
 Alpha  occ. eigenvalues --  -10.26046 -10.25971 -10.25880 -10.25790 -10.25769
 Alpha  occ. eigenvalues --  -10.25722 -10.25487 -10.25380 -10.25326 -10.25263
 Alpha  occ. eigenvalues --  -10.25234 -10.24635 -10.24501 -10.24387 -10.24035
 Alpha  occ. eigenvalues --  -10.23720 -10.23589  -1.08539  -1.02491  -0.93917
 Alpha  occ. eigenvalues --   -0.93814  -0.91825  -0.91390  -0.90533  -0.89506
 Alpha  occ. eigenvalues --   -0.87084  -0.86715  -0.86560  -0.84930  -0.84562
 Alpha  occ. eigenvalues --   -0.82670  -0.81857  -0.79711  -0.78664  -0.78569
 Alpha  occ. eigenvalues --   -0.77393  -0.76580  -0.75970  -0.75787  -0.75358
 Alpha  occ. eigenvalues --   -0.74815  -0.74661  -0.74543  -0.73122  -0.70074
 Alpha  occ. eigenvalues --   -0.69129  -0.67212  -0.65259  -0.64729  -0.63855
 Alpha  occ. eigenvalues --   -0.63717  -0.62423  -0.61476  -0.61012  -0.59849
 Alpha  occ. eigenvalues --   -0.58931  -0.58022  -0.57741  -0.56946  -0.55881
 Alpha  occ. eigenvalues --   -0.55072  -0.54539  -0.54383  -0.53964  -0.53416
 Alpha  occ. eigenvalues --   -0.52701  -0.52417  -0.51503  -0.50999  -0.50439
 Alpha  occ. eigenvalues --   -0.50038  -0.49846  -0.49721  -0.49698  -0.49388
 Alpha  occ. eigenvalues --   -0.49238  -0.49115  -0.48508  -0.48164  -0.47544
 Alpha  occ. eigenvalues --   -0.47532  -0.47021  -0.46909  -0.46609  -0.46473
 Alpha  occ. eigenvalues --   -0.46273  -0.45645  -0.45359  -0.45064  -0.44865
 Alpha  occ. eigenvalues --   -0.44197  -0.43816  -0.43681  -0.43280  -0.42963
 Alpha  occ. eigenvalues --   -0.42816  -0.42610  -0.42447  -0.42062  -0.41458
 Alpha  occ. eigenvalues --   -0.41362  -0.41129  -0.40891  -0.40733  -0.40488
 Alpha  occ. eigenvalues --   -0.40341  -0.39793  -0.39500  -0.39354  -0.38866
 Alpha  occ. eigenvalues --   -0.38702  -0.38631  -0.38538  -0.38054  -0.37871
 Alpha  occ. eigenvalues --   -0.37685  -0.37155  -0.36951  -0.35904  -0.35662
 Alpha  occ. eigenvalues --   -0.35345  -0.34977  -0.33089  -0.31759  -0.31328
 Alpha  occ. eigenvalues --   -0.30846  -0.28899  -0.26977  -0.25388  -0.23527
 Alpha  occ. eigenvalues --   -0.18992
 Alpha virt. eigenvalues --   -0.05165  -0.00008   0.02546   0.05552   0.07607
 Alpha virt. eigenvalues --    0.08279   0.08639   0.09826   0.11099   0.11661
 Alpha virt. eigenvalues --    0.12235   0.12395   0.12526   0.12874   0.13131

 Mulliken charges:
               1
     1  O   -0.586626
     2  O   -0.561096
     3  C   -0.028728
     4  C   -0.000827
     5  C   -0.182109
     6  C   -0.166268
     7  C    0.153413
     8  C    0.140852
     9  C    0.069432
    10  C    0.075881
    11  C   -0.228627
    12  C   -0.218124
    13  C    0.088062
    14  C    0.041793
    15  C   -0.300925
    16  C   -0.309610
    17  C   -0.310029
    18  C   -0.309894
    19  C   -0.136758
    20  C   -0.156319
    21  C   -0.362829
    22  C   -0.361596
    23  C   -0.092262
    24  C   -0.055586
    25  C    0.060981
    26  C    0.081960
    27  C   -0.347970
    28  C   -0.376297
    29  C   -0.107172
    30  C   -0.037586
    31  C   -0.103898
    32  C   -0.123759
    33  C   -0.104741
    34  C   -0.157018
    35  C    0.094181
    36  C    0.121889
    37  C   -0.403302
    38  C   -0.355787
    39  C   -0.122329
    40  C   -0.124927
    41  C   -0.084612
    42  C   -0.082331
    43  H    0.100477
    44  H    0.095858
    45  H    0.086898
    46  H    0.101825
    47  H    0.097930
    48  H    0.071873
    49  H    0.134751
    50  H    0.116659
    51  H    0.127022
    52  H    0.092483
    53  H    0.111758
    54  H    0.109268
    55  H    0.068584
    56  H    0.081001
    57  H    0.095995
    58  H    0.111064
    59  H    0.102250
    60  H    0.104605
    61  H    0.082778
    62  H    0.096323
    63  H    0.096779
    64  H    0.094452
    65  H    0.105627
    66  H    0.075532
    67  H    0.120579
    68  H    0.119482
    69  H    0.049380
    70  H    0.105633
    71  H    0.125135
    72  H    0.114406
    73  H    0.295654
    74  H    0.298910
    75  H    0.098018
    76  H    0.092336
    77  H    0.105470
    78  H    0.106199
    79  H    0.117030
    80  H    0.119790
    81  H    0.133690
    82  H    0.111069
    83  H    0.065794
    84  H    0.016494
    85  H    0.082641
    86  H    0.071093
    87  H    0.077285
    88  H    0.098090
    89  H    0.129256
    90  H    0.111043
    91  H    0.137125
    92  H    0.122772
    93  H    0.130723
    94  H    0.110361
    95  H    0.095844
    96  H    0.072362
    97  H    0.094050
    98  H    0.081995
 Sum of Mulliken charges =  -0.00000

 Dipole moment (field-independent basis, Debye):
    X=             -1.5348    Y=             -1.2458    Z=              1.5333  Tot=              2.5017
 Quadrupole moment (field-independent basis, Debye-Ang):
   XX=           -271.1651   YY=           -240.8465   ZZ=           -259.5547
   XY=             -5.6627   XZ=             -9.7095   YZ=              1.4283

 Normal termination of Gaussian 16 at Tue Jul  2 19:42:53 2019.
