 Gaussian 16, Revision A.03,
 Gaussian 16:  ES64L-G16RevA.03 25-Dec-2016

 -------------------------------------
 # td=(NStates=1) CAM-B3LYP/6-31G(d,p)
 -------------------------------------

 --
 TD
 --
 Symbolic Z-matrix:
 Charge =  0 Multiplicity = 1

                         Standard orientation:
 ---------------------------------------------------------------------
 Center     Atomic      Atomic             Coordinates (Angstroms)
 Number     Number       Type             X           Y           Z
 ---------------------------------------------------------------------
      1          8           0       14.743572   -2.265792   -0.483511
      2          8           0      -14.788744    1.902863    0.513544
      3          6           0       11.541829   -0.959988    1.253619
      4          6           0      -12.431067   -0.918326    0.795516
      5          6           0       13.022333   -1.239114    1.132033
      6          6           0      -13.724754   -0.267855    0.697717
      7          6           0       13.362178   -1.901677   -0.200480
      8          6           0      -13.554147    1.288108    0.673953
      9          6           0       10.962176   -0.319473   -0.014618
     10          6           0      -11.367305   -0.389302   -0.105329
     11          6           0       12.995059   -0.956773   -1.377481
     12          6           0      -12.789741    1.682623   -0.545850
     13          6           0       11.648166   -0.355146   -1.200469
     14          6           0      -11.557305    0.819205   -0.847383
     15          6           0       11.277539   -0.110679    2.422212
     16          6           0       10.693545   -2.246752    1.515744
     17          6           0      -11.772535   -0.692581    2.229197
     18          6           0      -12.607738   -2.456918    0.520117
     19          6           0        9.700053    0.303164    0.118003
     20          6           0      -10.078419   -1.026635   -0.374224
     21          6           0       11.106364    0.182764   -2.499719
     22          6           0      -10.689826    1.362173   -1.864311
     23          6           0        9.277687    1.535227   -0.267068
     24          6           0       -8.873796   -0.493507   -0.251241
     25          6           0        8.005857    2.208476   -0.075884
     26          6           0       -7.600791   -1.214035   -0.575206
     27          6           0        8.136219    3.720887    0.213078
     28          6           0       -7.627820   -2.779430   -1.028820
     29          6           0        6.873988    1.397995   -0.059072
     30          6           0       -6.411683   -0.623793   -0.330598
     31          6           0        5.527573    1.993313    0.165214
     32          6           0       -5.138668   -1.145612   -0.445976
     33          6           0        4.453535    1.228309    0.096629
     34          6           0       -4.045871   -0.338498   -0.214774
     35          6           0        3.143615    1.634508    0.286499
     36          6           0       -2.594134   -0.680959   -0.296791
     37          6           0        2.834202    3.175333    0.605992
     38          6           0       -2.377724   -2.055842   -0.750284
     39          6           0        2.089431    0.735383    0.146881
     40          6           0       -1.607569    0.113813   -0.063917
     41          6           0        0.637215    0.933735    0.234900
     42          6           0       -0.226628   -0.029121   -0.107508
     43          1           0       13.443777   -0.130327    0.828126
     44          1           0       13.401729   -1.752223    2.033168
     45          1           0      -14.386099   -0.548811    1.428050
     46          1           0      -14.522064   -0.391893   -0.112039
     47          1           0       12.729002   -2.876494   -0.458568
     48          1           0      -13.238420    1.500459    1.532548
     49          1           0       13.665355   -0.202046   -1.417791
     50          1           0       13.402235   -1.432823   -2.349411
     51          1           0      -13.423852    1.748407   -1.441993
     52          1           0      -12.412803    2.615655   -0.478319
     53          1           0       11.919884   -0.704433    3.263419
     54          1           0       10.357182   -0.033955    2.872856
     55          1           0       11.848257    0.875636    2.214450
     56          1           0       10.842819   -2.916680    0.570971
     57          1           0       11.350040   -2.935665    2.370531
     58          1           0        9.593614   -1.890931    1.801057
     59          1           0      -11.661408    0.430931    2.363293
     60          1           0      -10.639955   -1.117226    1.956143
     61          1           0      -12.479150   -1.247956    2.977783
     62          1           0      -13.537030   -2.916906    0.902836
     63          1           0      -11.682561   -3.003385    1.042067
     64          1           0      -12.788237   -2.510412   -0.643793
     65          1           0        8.982186   -0.316957    0.593110
     66          1           0      -10.184566   -2.138039   -0.739719
     67          1           0       10.193461    0.718783   -2.470043
     68          1           0       11.717963    0.871108   -2.996704
     69          1           0       11.096362   -0.638839   -3.278970
     70          1           0      -11.005092    1.990954   -2.610981
     71          1           0       -9.989258    0.744756   -2.409669
     72          1           0      -10.119557    2.333562   -1.425561
     73          1           0       14.991115   -2.857709    0.263551
     74          1           0      -15.361532    1.302183    1.282632
     75          1           0       10.156471    2.036175   -0.750670
     76          1           0       -8.704952    0.494621   -0.009188
     77          1           0        8.972760    4.179423   -0.345710
     78          1           0        7.176514    4.320473    0.239061
     79          1           0        8.510458    3.951189    1.122585
     80          1           0       -8.276955   -3.361912   -0.382833
     81          1           0       -8.067664   -2.572306   -1.980703
     82          1           0       -6.459320   -2.921802   -1.086203
     83          1           0        6.791418    0.310836   -0.278808
     84          1           0       -6.481441    0.406907   -0.094273
     85          1           0        5.564854    3.021229    0.053791
     86          1           0       -4.946945   -2.210344   -0.752346
     87          1           0        4.557990    0.199154   -0.002549
     88          1           0       -4.319621    0.706516    0.121164
     89          1           0        3.651890    3.543994    1.199534
     90          1           0        1.808489    3.333630    0.892197
     91          1           0        2.870403    3.688001   -0.501966
     92          1           0       -3.124651   -2.829844   -0.165110
     93          1           0       -2.742821   -2.235256   -1.739887
     94          1           0       -1.329312   -2.416047   -0.652339
     95          1           0        2.518016   -0.234424   -0.431801
     96          1           0       -1.852831    1.183746    0.163030
     97          1           0        0.446643    2.048594    0.220397
     98          1           0        0.272319   -0.985855   -0.202447
 ---------------------------------------------------------------------

 SCF Done:  E(RCAM-B3LYP) =  -1706.93639246     A.U. after   14 cycles

 Excitation energies and oscillator strengths:

 Excited State   1:      Singlet-A      2.8054 eV  441.96 nm  f=3.7202  <S**2>=0.000
     155 ->158         0.18539
     156 ->157         0.67416
 This state for optimization and/or second-order correction.
 Total Energy, E(TD-HF/TD-DFT) =  -1706.83329750
 Copying the excited state density for this state as the 1-particle RhoCI density.

 The electronic state is 1-A.
 Alpha  occ. eigenvalues --  -19.22049 -19.21676 -10.31516 -10.28428 -10.28083
 Alpha  occ. eigenvalues --  -10.27997 -10.27450 -10.27324 -10.27280 -10.27258
 Alpha  occ. eigenvalues --  -10.27233 -10.27102 -10.27095 -10.27083 -10.27047
 Alpha  occ. eigenvalues --  -10.26966 -10.26875 -10.26868 -10.26854 -10.26796
 Alpha  occ. eigenvalues --  -10.26673 -10.26646 -10.26426 -10.26194 -10.26183
 Alpha  occ. eigenvalues --  -10.26101 -10.26059 -10.25946 -10.25875 -10.25560
 Alpha  occ. eigenvalues --  -10.25533 -10.25329 -10.25284 -10.25157 -10.25059
 Alpha  occ. eigenvalues --  -10.25004 -10.24854 -10.24836 -10.24726 -10.24336
 Alpha  occ. eigenvalues --  -10.24001 -10.23877  -1.08992  -1.08415  -0.94551
 Alpha  occ. eigenvalues --   -0.93813  -0.92675  -0.91757  -0.90678  -0.89664
 Alpha  occ. eigenvalues --   -0.87934  -0.87633  -0.87182  -0.85937  -0.85132
 Alpha  occ. eigenvalues --   -0.83020  -0.82016  -0.80334  -0.79760  -0.77838
 Alpha  occ. eigenvalues --   -0.77262  -0.77027  -0.76146  -0.75844  -0.75655
 Alpha  occ. eigenvalues --   -0.75108  -0.74646  -0.74331  -0.73869  -0.70870
 Alpha  occ. eigenvalues --   -0.69174  -0.68083  -0.66599  -0.65139  -0.64396
 Alpha  occ. eigenvalues --   -0.63902  -0.63158  -0.62220  -0.61131  -0.60603
 Alpha  occ. eigenvalues --   -0.59970  -0.58650  -0.57780  -0.57471  -0.56327
 Alpha  occ. eigenvalues --   -0.56004  -0.55674  -0.54902  -0.54591  -0.53926
 Alpha  occ. eigenvalues --   -0.53643  -0.52932  -0.52292  -0.51979  -0.50636
 Alpha  occ. eigenvalues --   -0.50394  -0.50081  -0.49796  -0.49351  -0.49094
 Alpha  occ. eigenvalues --   -0.49016  -0.48541  -0.48313  -0.47818  -0.47601
 Alpha  occ. eigenvalues --   -0.47550  -0.47441  -0.47327  -0.47100  -0.46880
 Alpha  occ. eigenvalues --   -0.46676  -0.46076  -0.45737  -0.45483  -0.45296
 Alpha  occ. eigenvalues --   -0.44981  -0.44629  -0.44259  -0.44095  -0.43919
 Alpha  occ. eigenvalues --   -0.43398  -0.42976  -0.42608  -0.42470  -0.41957
 Alpha  occ. eigenvalues --   -0.41730  -0.41585  -0.41231  -0.40820  -0.40785
 Alpha  occ. eigenvalues --   -0.40577  -0.40179  -0.40118  -0.39906  -0.39211
 Alpha  occ. eigenvalues --   -0.38632  -0.38415  -0.38228  -0.37989  -0.37518
 Alpha  occ. eigenvalues --   -0.37401  -0.36932  -0.36712  -0.36444  -0.36232
 Alpha  occ. eigenvalues --   -0.36058  -0.34689  -0.34088  -0.32266  -0.32135
 Alpha  occ. eigenvalues --   -0.31075  -0.29544  -0.27338  -0.25998  -0.23732
 Alpha  occ. eigenvalues --   -0.21052
 Alpha virt. eigenvalues --   -0.04159  -0.00324   0.02902   0.05620   0.07530
 Alpha virt. eigenvalues --    0.08688   0.09412   0.10549   0.11211   0.11871
 Alpha virt. eigenvalues --    0.12010   0.12563   0.12779   0.13091   0.13788

 Mulliken charges:
               1
     1  O   -0.563939
     2  O   -0.561582
     3  C   -0.012716
     4  C   -0.008626
     5  C   -0.193320
     6  C   -0.219109
     7  C    0.169609
     8  C    0.198997
     9  C    0.051926
    10  C    0.034538
    11  C   -0.255645
    12  C   -0.217455
    13  C    0.077465
    14  C    0.078905
    15  C   -0.260979
    16  C   -0.272916
    17  C   -0.290961
    18  C   -0.305869
    19  C   -0.104631
    20  C   -0.170943
    21  C   -0.372366
    22  C   -0.377474
    23  C   -0.125062
    24  C   -0.040836
    25  C    0.075109
    26  C    0.031854
    27  C   -0.376321
    28  C   -0.345389
    29  C   -0.124859
    30  C   -0.104848
    31  C   -0.083685
    32  C   -0.068003
    33  C   -0.091717
    34  C   -0.141943
    35  C    0.100165
    36  C    0.161355
    37  C   -0.357024
    38  C   -0.390918
    39  C   -0.158493
    40  C   -0.138169
    41  C   -0.086366
    42  C   -0.068032
    43  H    0.094244
    44  H    0.091656
    45  H    0.077279
    46  H    0.096315
    47  H    0.063329
    48  H    0.081894
    49  H    0.133239
    50  H    0.112634
    51  H    0.122995
    52  H    0.113721
    53  H    0.061628
    54  H    0.116522
    55  H    0.091481
    56  H    0.102125
    57  H    0.059031
    58  H    0.103666
    59  H    0.108039
    60  H    0.099757
    61  H    0.092020
    62  H    0.101452
    63  H    0.092670
    64  H    0.102379
    65  H    0.074245
    66  H    0.083435
    67  H    0.117763
    68  H    0.115124
    69  H    0.105002
    70  H    0.123065
    71  H    0.127215
    72  H    0.080615
    73  H    0.304177
    74  H    0.288704
    75  H    0.074007
    76  H    0.084285
    77  H    0.119335
    78  H    0.109369
    79  H    0.145431
    80  H    0.128317
    81  H    0.134127
    82  H    0.094735
    83  H    0.096815
    84  H    0.075211
    85  H    0.084732
    86  H    0.088403
    87  H    0.078779
    88  H    0.076895
    89  H    0.123321
    90  H    0.118396
    91  H    0.099202
    92  H    0.088196
    93  H    0.133876
    94  H    0.106872
    95  H    0.063613
    96  H    0.073214
    97  H    0.086586
    98  H    0.089137
 Sum of Mulliken charges =  -0.00000

 Dipole moment (field-independent basis, Debye):
    X=             -0.2237    Y=             -0.2095    Z=              1.0537  Tot=              1.0973
 Quadrupole moment (field-independent basis, Debye-Ang):
   XX=           -259.6619   YY=           -249.3701   ZZ=           -261.9155
   XY=             16.1172   XZ=              3.1828   YZ=             -2.1690

 Normal termination of Gaussian 16 at Sun Jun 30 21:04:09 2019.
