 Gaussian 16, Revision A.03,
 Gaussian 16:  ES64L-G16RevA.03 25-Dec-2016

 -------------------------------------
 # td=(NStates=1) CAM-B3LYP/6-31G(d,p)
 -------------------------------------

 --
 TD
 --
 Symbolic Z-matrix:
 Charge =  0 Multiplicity = 1

                         Standard orientation:
 ---------------------------------------------------------------------
 Center     Atomic      Atomic             Coordinates (Angstroms)
 Number     Number       Type             X           Y           Z
 ---------------------------------------------------------------------
      1          8           0       14.837511   -2.063063   -0.270899
      2          8           0      -14.640595    2.119244    1.031980
      3          6           0       11.440124   -1.096488    1.089922
      4          6           0      -12.269458   -1.005069    0.865358
      5          6           0       12.953194   -1.362563    1.128527
      6          6           0      -13.611805   -0.177441    0.906821
      7          6           0       13.408651   -1.757503   -0.246151
      8          6           0      -13.397362    1.354560    0.935416
      9          6           0       10.947427   -0.348425    0.018453
     10          6           0      -11.373357   -0.211883   -0.187796
     11          6           0       13.234042   -0.646460   -1.192422
     12          6           0      -12.918115    1.688706   -0.473802
     13          6           0       11.790138    0.057372   -1.048358
     14          6           0      -11.556603    0.966883   -0.747900
     15          6           0       11.035761   -0.466763    2.488752
     16          6           0       10.576992   -2.442364    1.135776
     17          6           0      -11.652895   -0.939405    2.262905
     18          6           0      -12.608696   -2.411250    0.501405
     19          6           0        9.633700    0.226840    0.152317
     20          6           0      -10.139330   -1.040973   -0.503316
     21          6           0       11.398834    0.826818   -2.260956
     22          6           0      -10.886332    1.553081   -1.943846
     23          6           0        9.408307    1.518384    0.033690
     24          6           0       -8.835380   -0.540711   -0.331424
     25          6           0        8.003935    2.169424    0.107827
     26          6           0       -7.547211   -1.267440   -0.585787
     27          6           0        8.046302    3.572561    0.562151
     28          6           0       -7.829432   -2.642677   -1.117232
     29          6           0        6.888359    1.453642   -0.124235
     30          6           0       -6.371177   -0.634134   -0.455315
     31          6           0        5.490478    1.951447    0.029177
     32          6           0       -5.175433   -1.176232   -0.590346
     33          6           0        4.422024    1.169947   -0.146269
     34          6           0       -4.033859   -0.422056   -0.322866
     35          6           0        3.091236    1.572698    0.100106
     36          6           0       -2.596521   -0.794091   -0.479813
     37          6           0        2.662983    2.936093    0.545067
     38          6           0       -2.364797   -2.139555   -1.118536
     39          6           0        2.156892    0.603471   -0.043350
     40          6           0       -1.656156    0.119431   -0.203430
     41          6           0        0.723131    0.762587   -0.035494
     42          6           0       -0.194358   -0.166248   -0.324338
     43          1           0       13.593301   -0.538199    1.680063
     44          1           0       13.032120   -2.516268    1.779541
     45          1           0      -14.194622   -0.597616    1.785199
     46          1           0      -14.325245   -0.149215    0.169369
     47          1           0       12.646342   -2.533291   -0.522665
     48          1           0      -12.670115    1.701483    1.515710
     49          1           0       14.066938    0.380444   -1.028716
     50          1           0       13.329415   -0.832375   -2.114327
     51          1           0      -13.626642    1.187744   -1.183561
     52          1           0      -12.614290    2.723129   -0.502202
     53          1           0       11.329662   -1.215144    3.398419
     54          1           0        9.967720   -0.434203    2.567973
     55          1           0       11.515996    0.540676    2.782631
     56          1           0       10.815734   -3.138627    0.125156
     57          1           0       10.854380   -3.113444    1.862507
     58          1           0        9.606383   -2.454786    1.297296
     59          1           0      -11.447662    0.120499    2.780373
     60          1           0      -10.622974   -1.327400    2.367395
     61          1           0      -12.292637   -1.654144    2.912994
     62          1           0      -13.426177   -2.898063    0.990200
     63          1           0      -11.641521   -3.199606    0.643729
     64          1           0      -12.642755   -2.257566   -0.857321
     65          1           0        8.768454   -0.512911    0.503105
     66          1           0      -10.410683   -1.941652   -0.836291
     67          1           0       10.279057    1.217880   -2.351501
     68          1           0       11.697957    1.776327   -2.333421
     69          1           0       11.597074    0.056417   -3.152647
     70          1           0      -11.458892    1.757733   -2.813029
     71          1           0      -10.104329    0.771160   -2.305974
     72          1           0      -10.265411    2.499872   -1.465741
     73          1           0       14.957518   -2.882863    0.430940
     74          1           0      -15.187029    2.152276    1.807021
     75          1           0       10.094843    2.165792   -0.238455
     76          1           0       -8.783301    0.458344    0.082586
     77          1           0        9.034791    4.138147    0.000040
     78          1           0        7.047646    4.236273    0.432952
     79          1           0        8.281426    3.599961    1.725014
     80          1           0       -8.575377   -3.183879   -0.591075
     81          1           0       -8.297747   -2.441189   -2.105121
     82          1           0       -6.875627   -3.393423   -1.315254
     83          1           0        6.994644    0.415155   -0.448668
     84          1           0       -6.362186    0.322911   -0.147822
     85          1           0        5.417673    2.984375    0.315034
     86          1           0       -5.244360   -2.212392   -1.014953
     87          1           0        4.715716    0.134935   -0.535784
     88          1           0       -4.094415    0.558794   -0.125797
     89          1           0        3.228465    3.190133    1.455241
     90          1           0        1.459639    3.094082    0.727657
     91          1           0        2.823250    3.832492   -0.255703
     92          1           0       -2.691855   -2.881233   -0.440310
     93          1           0       -2.599555   -2.447060   -2.118611
     94          1           0       -1.244278   -2.193643   -0.780189
     95          1           0        2.604059   -0.389758   -0.283100
     96          1           0       -1.851832    1.245929   -0.093021
     97          1           0        0.395209    1.867322    0.137663
     98          1           0        0.055385   -1.125083   -0.687345
 ---------------------------------------------------------------------

 SCF Done:  E(RCAM-B3LYP) =  -1706.84796823     A.U. after   14 cycles

 Excitation energies and oscillator strengths:

 Excited State   1:      Singlet-A      2.8822 eV  430.17 nm  f=3.7523  <S**2>=0.000
     155 ->158        -0.18063
     156 ->157         0.67774
 This state for optimization and/or second-order correction.
 Total Energy, E(TD-HF/TD-DFT) =  -1706.74204843
 Copying the excited state density for this state as the 1-particle RhoCI density.

 The electronic state is 1-A.
 Alpha  occ. eigenvalues --  -19.22268 -19.19768 -10.30660 -10.29210 -10.28967
 Alpha  occ. eigenvalues --  -10.28903 -10.28720 -10.28144 -10.28050 -10.28036
 Alpha  occ. eigenvalues --  -10.27730 -10.27161 -10.27136 -10.27085 -10.27022
 Alpha  occ. eigenvalues --  -10.26767 -10.26613 -10.26461 -10.26442 -10.26436
 Alpha  occ. eigenvalues --  -10.26231 -10.26199 -10.26157 -10.26130 -10.26034
 Alpha  occ. eigenvalues --  -10.25971 -10.25951 -10.25892 -10.25856 -10.25798
 Alpha  occ. eigenvalues --  -10.25744 -10.25712 -10.25684 -10.25582 -10.25394
 Alpha  occ. eigenvalues --  -10.25380 -10.25203 -10.25063 -10.24978 -10.24554
 Alpha  occ. eigenvalues --  -10.24456 -10.23651  -1.06965  -1.06700  -0.94649
 Alpha  occ. eigenvalues --   -0.93217  -0.92342  -0.92035  -0.90388  -0.89775
 Alpha  occ. eigenvalues --   -0.87166  -0.86850  -0.86412  -0.85974  -0.84964
 Alpha  occ. eigenvalues --   -0.83364  -0.82209  -0.80351  -0.79362  -0.77334
 Alpha  occ. eigenvalues --   -0.76862  -0.76611  -0.76091  -0.75542  -0.75009
 Alpha  occ. eigenvalues --   -0.74991  -0.74954  -0.74337  -0.73831  -0.70513
 Alpha  occ. eigenvalues --   -0.68397  -0.67367  -0.66161  -0.65222  -0.64297
 Alpha  occ. eigenvalues --   -0.63945  -0.63050  -0.61999  -0.61199  -0.60330
 Alpha  occ. eigenvalues --   -0.59434  -0.58989  -0.58327  -0.57123  -0.56076
 Alpha  occ. eigenvalues --   -0.55663  -0.55385  -0.54932  -0.54388  -0.53866
 Alpha  occ. eigenvalues --   -0.53255  -0.52340  -0.51730  -0.51309  -0.50489
 Alpha  occ. eigenvalues --   -0.50104  -0.50013  -0.49456  -0.49316  -0.49176
 Alpha  occ. eigenvalues --   -0.48828  -0.48521  -0.48472  -0.48228  -0.48024
 Alpha  occ. eigenvalues --   -0.47803  -0.47333  -0.46897  -0.46576  -0.46068
 Alpha  occ. eigenvalues --   -0.45986  -0.45614  -0.44794  -0.44472  -0.44206
 Alpha  occ. eigenvalues --   -0.44043  -0.43950  -0.43644  -0.43423  -0.43097
 Alpha  occ. eigenvalues --   -0.42979  -0.42905  -0.42548  -0.42325  -0.41663
 Alpha  occ. eigenvalues --   -0.41484  -0.40932  -0.40628  -0.40462  -0.40173
 Alpha  occ. eigenvalues --   -0.40139  -0.40010  -0.39755  -0.39393  -0.39270
 Alpha  occ. eigenvalues --   -0.38684  -0.38408  -0.38261  -0.37923  -0.37867
 Alpha  occ. eigenvalues --   -0.37112  -0.36926  -0.36276  -0.35735  -0.35387
 Alpha  occ. eigenvalues --   -0.34530  -0.33876  -0.33155  -0.32301  -0.32141
 Alpha  occ. eigenvalues --   -0.31973  -0.29704  -0.28253  -0.26377  -0.23921
 Alpha  occ. eigenvalues --   -0.20876
 Alpha virt. eigenvalues --   -0.03720  -0.00108   0.03182   0.06067   0.07701
 Alpha virt. eigenvalues --    0.09034   0.09514   0.10383   0.10904   0.11364
 Alpha virt. eigenvalues --    0.11530   0.11923   0.12890   0.13036   0.13382

 Mulliken charges:
               1
     1  O   -0.567724
     2  O   -0.591060
     3  C   -0.045442
     4  C    0.035257
     5  C   -0.160643
     6  C   -0.178194
     7  C    0.179832
     8  C    0.174093
     9  C    0.132079
    10  C    0.019113
    11  C   -0.159627
    12  C   -0.194205
    13  C    0.003375
    14  C    0.015584
    15  C   -0.289940
    16  C   -0.308608
    17  C   -0.292479
    18  C   -0.284191
    19  C   -0.121212
    20  C   -0.128522
    21  C   -0.357404
    22  C   -0.340707
    23  C   -0.066807
    24  C   -0.106068
    25  C    0.083202
    26  C    0.096051
    27  C   -0.355440
    28  C   -0.377692
    29  C   -0.120443
    30  C   -0.072339
    31  C   -0.085478
    32  C   -0.064974
    33  C   -0.114532
    34  C   -0.120212
    35  C    0.149598
    36  C    0.085281
    37  C   -0.369652
    38  C   -0.364189
    39  C   -0.132262
    40  C   -0.129070
    41  C   -0.088954
    42  C   -0.085438
    43  H    0.107487
    44  H    0.032223
    45  H    0.062426
    46  H    0.109039
    47  H    0.089383
    48  H    0.085767
    49  H    0.062415
    50  H    0.111952
    51  H    0.117071
    52  H    0.105290
    53  H    0.073861
    54  H    0.111183
    55  H    0.097405
    56  H    0.064809
    57  H    0.111015
    58  H    0.118216
    59  H    0.091052
    60  H    0.114523
    61  H    0.086618
    62  H    0.124798
    63  H    0.076065
    64  H    0.060996
    65  H    0.087008
    66  H    0.082972
    67  H    0.099030
    68  H    0.134976
    69  H    0.101391
    70  H    0.127979
    71  H    0.106861
    72  H    0.089688
    73  H    0.300024
    74  H    0.299956
    75  H    0.073552
    76  H    0.083427
    77  H    0.081528
    78  H    0.102722
    79  H    0.118989
    80  H    0.130126
    81  H    0.130075
    82  H    0.083345
    83  H    0.076220
    84  H    0.069333
    85  H    0.073665
    86  H    0.075707
    87  H    0.086622
    88  H    0.068706
    89  H    0.126584
    90  H    0.098808
    91  H    0.100428
    92  H    0.125978
    93  H    0.137797
    94  H    0.083245
    95  H    0.076193
    96  H    0.089231
    97  H    0.068700
    98  H    0.095579
 Sum of Mulliken charges =  -0.00000

 Dipole moment (field-independent basis, Debye):
    X=             -0.7894    Y=             -1.2458    Z=              1.5545  Tot=              2.1428
 Quadrupole moment (field-independent basis, Debye-Ang):
   XX=           -287.1962   YY=           -244.4799   ZZ=           -259.0468
   XY=             10.0330   XZ=             -0.2285   YZ=              1.9674

 Normal termination of Gaussian 16 at Sun Jun 30 19:36:10 2019.
