 Gaussian 16, Revision A.03,
 Gaussian 16:  ES64L-G16RevA.03 25-Dec-2016

 --------------------------
 # td=(NStates=1) B3LYP/SVP
 --------------------------

 --
 TD
 --
 Symbolic Z-matrix:
 Charge =  0 Multiplicity = 1

                         Standard orientation:
 ---------------------------------------------------------------------
 Center     Atomic      Atomic             Coordinates (Angstroms)
 Number     Number       Type             X           Y           Z
 ---------------------------------------------------------------------
      1          8           0        4.195252   -4.983096   -1.807120
      2          8           0       -3.179161   -4.764950   -1.092545
      3          8           0       -6.978872   -1.417362   -1.853742
      4          8           0       -3.958521   -3.145104    0.093303
      5          8           0       -7.590768   -0.210339   -0.017266
      6          8           0        3.062905    2.283659    0.480161
      7          7           0        0.198425   -0.578702    0.676700
      8          7           0       -1.503196    1.856467    0.078001
      9          7           0        3.238688   -3.216101   -0.745329
     10          7           0        0.877347    2.906137    0.123093
     11          6           0       -0.746002   -2.360617    1.530409
     12          6           0       -1.084605   -1.027490    1.054394
     13          6           0        0.621592   -2.673083    1.229030
     14          6           0        1.257120   -1.497955    0.879654
     15          6           0       -3.735035    1.664230    0.154365
     16          6           0       -2.472664    0.897139    0.447847
     17          6           0       -2.260066   -0.276934    0.974400
     18          6           0       -3.442345    2.967295   -0.143465
     19          6           0       -1.813564   -3.358636    2.083102
     20          6           0        5.408487   -2.863862   -1.455161
     21          6           0        3.461353   -1.954565   -0.252527
     22          6           0       -2.002231    3.117034   -0.206342
     23          6           0        4.899770   -1.783648   -0.487228
     24          6           0       -5.116056    1.012634    0.343165
     25          6           0        2.583254   -1.144637    0.369061
     26          6           0        1.343906   -3.855753    1.739897
     27          6           0        4.239263   -3.880192   -1.407695
     28          6           0       -2.180237   -4.393596    1.125616
     29          6           0       -5.330947   -0.015564   -0.750977
     30          6           0       -4.435654    3.940279   -0.702468
     31          6           0       -1.153337    4.143516   -0.383539
     32          6           0        6.732885   -3.497751   -1.035420
     33          6           0        5.752863   -0.700511   -0.188994
     34          6           0        0.267276    4.106165   -0.207002
     35          6           0        1.264465    5.172514   -0.391094
     36          6           0        2.451822    4.516729   -0.186645
     37          6           0       -3.136883   -4.036357    0.025893
     38          6           0        5.459361    0.383559    0.769853
     39          6           0       -6.778121   -0.600633   -0.820844
     40          6           0        3.836151    5.124540   -0.189414
     41          6           0        2.260508    3.142610    0.208041
     42          6           0        1.081031    6.594725   -0.735507
     43          6           0        4.508739    5.300541    1.142066
     44          1           0        0.346291    0.450052    0.224836
     45          1           0       -3.211547   -0.704841    1.511292
     46          1           0       -2.634970   -2.668260    2.337644
     47          1           0       -1.361262   -3.670196    3.254683
     48          1           0        5.852810   -2.413266   -2.504001
     49          1           0       -5.121201    0.527387    1.224358
     50          1           0       -6.012718    1.783268    0.127382
     51          1           0        2.876353   -0.083442    0.667675
     52          1           0       -0.494874    1.814677    0.273857
     53          1           0        1.203526   -4.533224    1.142640
     54          1           0        2.503537   -3.810856    1.929943
     55          1           0        1.016049   -3.981738    2.771220
     56          1           0        2.294305   -3.572123   -0.838996
     57          1           0       -1.299159   -4.752451    0.631606
     58          1           0       -2.790789   -5.226785    1.460948
     59          1           0       -4.770100   -1.029327   -0.567279
     60          1           0       -5.026741    0.440611   -1.703544
     61          1           0       -4.225388    5.033889   -0.253444
     62          1           0       -5.518568    3.513777   -0.414093
     63          1           0       -4.343293    3.999047   -1.924279
     64          1           0       -1.571038    5.098350   -0.650929
     65          1           0        7.531612   -2.901927   -1.145833
     66          1           0        6.840310   -4.259379   -1.644958
     67          1           0        6.791871   -3.817051   -0.027357
     68          1           0        6.677696   -0.961888   -0.658777
     69          1           0        4.575811    1.075276    0.188007
     70          1           0        6.309311    1.074685    1.204453
     71          1           0        4.800390    0.397048    1.604570
     72          1           0        3.932330    6.247047   -0.658530
     73          1           0        4.612653    4.438903   -0.855000
     74          1           0        0.657989    6.782381   -1.704642
     75          1           0        1.964188    7.199231   -0.920494
     76          1           0        0.636142    6.986070    0.144398
     77          1           0        4.022366    5.770618    1.837779
     78          1           0        5.546944    5.703184    1.032441
     79          1           0        4.798738    4.338675    1.540332
     80          1           0       -3.970134   -4.543979   -1.537000
     81          1           0       -7.977566   -1.590892   -1.645325
 ---------------------------------------------------------------------

 SCF Done:  E(RB3LYP) =  -1949.04591966     A.U. after   16 cycles

 Excitation energies and oscillator strengths:

 Excited State   1:      Singlet-A      1.5644 eV  792.55 nm  f=0.1677  <S**2>=0.000
     156 ->157         0.70117
 This state for optimization and/or second-order correction.
 Total Energy, E(TD-HF/TD-DFT) =  -1948.98842992
 Copying the excited state density for this state as the 1-particle RhoCI density.

 The electronic state is 1-A.
 Alpha  occ. eigenvalues --  -19.20108 -19.18716 -19.12920 -19.12812 -19.11338
 Alpha  occ. eigenvalues --  -19.11309 -14.37176 -14.36418 -14.35464 -14.28739
 Alpha  occ. eigenvalues --  -10.33023 -10.32035 -10.28921 -10.26622 -10.24279
 Alpha  occ. eigenvalues --  -10.23924 -10.23628 -10.23377 -10.23318 -10.23040
 Alpha  occ. eigenvalues --  -10.22631 -10.22323 -10.21902 -10.21688 -10.21246
 Alpha  occ. eigenvalues --  -10.20740 -10.20724 -10.20679 -10.20483 -10.20366
 Alpha  occ. eigenvalues --  -10.20289 -10.20255 -10.20163 -10.19294 -10.19196
 Alpha  occ. eigenvalues --  -10.19085 -10.19083 -10.18688 -10.18665 -10.18568
 Alpha  occ. eigenvalues --  -10.17739 -10.16243 -10.15682  -1.12064  -1.10765
 Alpha  occ. eigenvalues --   -1.05660  -1.03049  -1.01453  -1.00766  -0.97323
 Alpha  occ. eigenvalues --   -0.96206  -0.95310  -0.91491  -0.82664  -0.82482
 Alpha  occ. eigenvalues --   -0.81769  -0.80776  -0.79809  -0.79184  -0.77879
 Alpha  occ. eigenvalues --   -0.76993  -0.76940  -0.75760  -0.74423  -0.72634
 Alpha  occ. eigenvalues --   -0.70627  -0.70198  -0.69694  -0.68358  -0.67913
 Alpha  occ. eigenvalues --   -0.67021  -0.66153  -0.64366  -0.63026  -0.61784
 Alpha  occ. eigenvalues --   -0.61084  -0.59346  -0.58165  -0.57677  -0.56628
 Alpha  occ. eigenvalues --   -0.56014  -0.55184  -0.53929  -0.53517  -0.53015
 Alpha  occ. eigenvalues --   -0.52103  -0.51768  -0.51423  -0.50256  -0.49934
 Alpha  occ. eigenvalues --   -0.49857  -0.49322  -0.48956  -0.48560  -0.47919
 Alpha  occ. eigenvalues --   -0.47545  -0.46988  -0.46924  -0.46667  -0.46012
 Alpha  occ. eigenvalues --   -0.45552  -0.44785  -0.44679  -0.44488  -0.44252
 Alpha  occ. eigenvalues --   -0.43764  -0.43507  -0.43074  -0.42920  -0.42855
 Alpha  occ. eigenvalues --   -0.42336  -0.42237  -0.41896  -0.41849  -0.41197
 Alpha  occ. eigenvalues --   -0.41011  -0.40684  -0.40298  -0.40089  -0.39736
 Alpha  occ. eigenvalues --   -0.39221  -0.38714  -0.38514  -0.38348  -0.38017
 Alpha  occ. eigenvalues --   -0.37561  -0.37290  -0.37144  -0.36807  -0.36338
 Alpha  occ. eigenvalues --   -0.36120  -0.34917  -0.34662  -0.34392  -0.34213
 Alpha  occ. eigenvalues --   -0.34100  -0.33860  -0.33533  -0.33199  -0.33163
 Alpha  occ. eigenvalues --   -0.32831  -0.32699  -0.31715  -0.30746  -0.28447
 Alpha  occ. eigenvalues --   -0.28263  -0.27908  -0.26352  -0.26192  -0.25590
 Alpha  occ. eigenvalues --   -0.24736  -0.24289  -0.23993  -0.22974  -0.21489
 Alpha  occ. eigenvalues --   -0.17967
 Alpha virt. eigenvalues --   -0.11208  -0.06162  -0.04052  -0.00705  -0.00210
 Alpha virt. eigenvalues --    0.00948   0.01950   0.02916   0.03316   0.03585
 Alpha virt. eigenvalues --    0.04253   0.04385   0.04760   0.05200   0.05314

 Mulliken charges:
               1
     1  O   -0.157339
     2  O   -0.142284
     3  O   -0.183129
     4  O   -0.244982
     5  O   -0.236334
     6  O   -0.189420
     7  N   -0.204817
     8  N   -0.140928
     9  N   -0.101162
    10  N   -0.350537
    11  C   -0.177778
    12  C    0.101995
    13  C   -0.214573
    14  C    0.099752
    15  C   -0.091740
    16  C    0.098826
    17  C   -0.055809
    18  C   -0.102545
    19  C    0.051481
    20  C   -0.200503
    21  C    0.167782
    22  C    0.136687
    23  C   -0.081508
    24  C    0.181512
    25  C   -0.124828
    26  C    0.168826
    27  C    0.147239
    28  C    0.158682
    29  C   -0.107271
    30  C   -0.033782
    31  C   -0.094157
    32  C    0.177568
    33  C    0.003134
    34  C    0.064659
    35  C   -0.084122
    36  C   -0.130499
    37  C    0.051466
    38  C   -0.049936
    39  C    0.139856
    40  C   -0.043062
    41  C    0.180293
    42  C    0.154824
    43  C    0.078086
    44  H    0.173407
    45  H    0.038627
    46  H    0.006782
    47  H    0.045465
    48  H    0.059157
    49  H   -0.023210
    50  H    0.040712
    51  H    0.032641
    52  H    0.128308
    53  H   -0.060983
    54  H    0.036230
    55  H    0.019775
    56  H    0.120480
    57  H    0.020919
    58  H    0.039375
    59  H    0.082594
    60  H    0.033287
    61  H    0.046108
    62  H    0.043983
    63  H    0.059590
    64  H   -0.044665
    65  H   -0.028339
    66  H   -0.025755
    67  H   -0.012223
    68  H   -0.026244
    69  H    0.109713
    70  H    0.026301
    71  H    0.022055
    72  H    0.015434
    73  H    0.030760
    74  H    0.020222
    75  H   -0.009792
    76  H    0.023449
    77  H   -0.029125
    78  H   -0.000302
    79  H    0.003618
    80  H    0.166904
    81  H    0.195119
 Sum of Mulliken charges =  -0.00000

 Dipole moment (field-independent basis, Debye):
    X=             -2.7538    Y=              1.7259    Z=             -0.4467  Tot=              3.2805
 Quadrupole moment (field-independent basis, Debye-Ang):
   XX=           -250.1167   YY=           -236.8939   ZZ=           -253.3710
   XY=             21.3873   XZ=             11.7738   YZ=            -12.8329

 Normal termination of Gaussian 16 at Wed Jun 26 20:55:49 2019.
