 Gaussian 16, Revision A.03,

 ----------------------------------------------------------------------
 # wB97XD/Def2TZVP Geom=Checkpoint Guess=Read iop(3/107=0128800000,3/10
 8=0128800000) Opt
 ----------------------------------------------------------------------

 ---------------------
 pheo-a-charged-tunado
 ---------------------
 Structure from the checkpoint file:  "pheo-a-charged-tunado.chk"
 Charge =  1 Multiplicity = 2

 SCF Done:  E(UwB97XD) =  -2735.69505259     A.U. after   22 cycles
 SCF Done:  E(UwB97XD) =  -2735.69555965     A.U. after   17 cycles
 SCF Done:  E(UwB97XD) =  -2735.69552495     A.U. after   15 cycles
 SCF Done:  E(UwB97XD) =  -2735.69569138     A.U. after   17 cycles
 SCF Done:  E(UwB97XD) =  -2735.69575077     A.U. after   13 cycles
 SCF Done:  E(UwB97XD) =  -2735.69578218     A.U. after   15 cycles
 SCF Done:  E(UwB97XD) =  -2735.69580749     A.U. after   15 cycles
 SCF Done:  E(UwB97XD) =  -2735.69582523     A.U. after   19 cycles
 SCF Done:  E(UwB97XD) =  -2735.69583770     A.U. after   14 cycles
 SCF Done:  E(UwB97XD) =  -2735.69584270     A.U. after   16 cycles
 SCF Done:  E(UwB97XD) =  -2735.69584624     A.U. after   15 cycles
 SCF Done:  E(UwB97XD) =  -2735.69584734     A.U. after   15 cycles
 SCF Done:  E(UwB97XD) =  -2735.69584764     A.U. after   12 cycles
 SCF Done:  E(UwB97XD) =  -2735.69584775     A.U. after   12 cycles
 SCF Done:  E(UwB97XD) =  -2735.69584779     A.U. after   12 cycles
 SCF Done:  E(UwB97XD) =  -2735.69584782     A.U. after   12 cycles
 SCF Done:  E(UwB97XD) =  -2735.69584783     A.U. after   12 cycles
 SCF Done:  E(UwB97XD) =  -2735.69584783     A.U. after   11 cycles
 SCF Done:  E(UwB97XD) =  -2735.69584783     A.U. after    6 cycles
 Optimization completed.
    -- Stationary point found.
 Normal termination of Gaussian 16 at Fri Dec 13 09:33:52 2019.
 Gaussian 16:  ES64L-G16RevA.03 25-Dec-2016

 ----------------------------------------------------------------------
 # wB97XD/Def2TZVP Geom=Checkpoint iop(3/107=0128800000,3/108=012880000
 0) Sp
 ----------------------------------------------------------------------

 -----------------
 pheo-a-charged-sp
 -----------------
 Structure from the checkpoint file:  "/home/padawan/israel-mol/amanda/reorganization_energy/tuning/pheo-a/Gau-23074.chk"
 Charge =  0 Multiplicity = 1

                         Standard orientation:
 ---------------------------------------------------------------------
 Center     Atomic      Atomic             Coordinates (Angstroms)
 Number     Number       Type             X           Y           Z
 ---------------------------------------------------------------------
      1          6           0       -5.240041   -1.917652   -0.314916
      2          6           0       -3.562334    1.307115    2.791184
      3          6           0       -6.391162    4.643901    0.689007
      4          6           0       -8.290960    1.346730   -2.266661
      5          7           0       -4.550971   -0.108924    1.089237
      6          6           0       -4.447010   -1.399716    0.702460
      7          6           0       -3.405950   -2.166015    1.475482
      8          6           0       -3.088411   -1.190473    2.623064
      9          6           0       -3.759526    0.076915    2.146637
     10          6           0       -3.631663   -1.647245    3.983161
     11          6           0       -2.187986   -2.508594    0.599313
     12          6           0       -1.202306   -3.423047    1.312740
     13          6           0        0.003260   -3.750279    0.452964
     14          8           0        0.177154   -3.320311   -0.657849
     15          8           0        0.823569   -4.579132    1.094771
     16          7           0       -5.057223    2.756500    1.498720
     17          6           0       -4.137019    2.517659    2.476438
     18          6           0       -3.864050    3.788836    3.124487
     19          6           0       -4.617266    4.740855    2.502366
     20          6           0       -5.414073    4.073563    1.478836
     21          6           0       -2.886648    3.963206    4.234193
     22          6           0       -4.632536    6.171332    2.805812
     23          6           0       -4.633356    7.150507    1.905348
     24          7           0       -7.094110    2.725018   -0.650364
     25          6           0       -7.175815    4.023881   -0.287893
     26          6           0       -8.210946    4.735501   -1.057924
     27          6           0       -8.748133    3.817875   -1.891889
     28          6           0       -8.030144    2.564014   -1.616265
     29          6           0       -8.543371    6.179557   -0.903267
     30          6           0       -9.812231    3.990725   -2.926834
     31          6           0       -9.242200    4.177828   -4.339127
     32          7           0       -6.614032    0.074206   -1.077124
     33          6           0       -7.625676    0.169948   -2.007958
     34          6           0       -7.828463   -1.153994   -2.590944
     35          6           0       -6.924902   -1.961485   -1.961682
     36          6           0       -6.180898   -1.189757   -1.022094
     37          6           0       -8.829170   -1.492065   -3.634728
     38          6           0       -6.446233   -3.352880   -1.895233
     39          8           0       -6.812308   -4.308220   -2.515833
     40          6           0       -5.305422   -3.353241   -0.808318
     41          6           0       -5.652235   -4.360917    0.280121
     42          8           0       -6.278955   -4.090200    1.270613
     43          8           0       -5.188960   -5.564736   -0.028806
     44          6           0       -5.549951   -6.634441    0.857782
     45          6           0        2.073135   -4.926104    0.434299
     46          6           0        3.145085   -3.944781    0.769800
     47          6           0        3.821747   -3.174943   -0.086196
     48          6           0        3.586508   -3.151987   -1.571687
     49          6           0        4.923806   -2.276816    0.414222
     50          6           0        6.312455   -2.655637   -0.117750
     51          6           0        7.411637   -1.755283    0.441991
     52          6           0        8.811588   -1.991341   -0.141953
     53          6           0        9.325135   -3.400252    0.160513
     54          6           0        9.774132   -0.907593    0.364092
     55          6           0       11.159547   -0.910621   -0.279695
     56          6           0       12.021013    0.264805    0.178999
     57          6           0       13.389692    0.383502   -0.506180
     58          6           0       14.287453   -0.817376   -0.202390
     59          6           0       14.055791    1.709370   -0.112874
     60          6           0       15.351317    2.036715   -0.853600
     61          6           0       15.872378    3.436105   -0.530636
     62          6           0       17.241370    3.778877   -1.131859
     63          6           0       17.230456    3.749762   -2.661122
     64          6           0       17.722503    5.138626   -0.623627
     65          1           0       -2.871250    1.311920    3.622692
     66          1           0       -6.577326    5.692720    0.868889
     67          1           0       -9.070307    1.324337   -3.015106
     68          1           0       -3.843016   -3.091103    1.857988
     69          1           0       -2.013297   -1.017470    2.713238
     70          1           0       -3.137728   -2.569434    4.289544
     71          1           0       -3.454686   -0.897334    4.754381
     72          1           0       -4.704683   -1.836275    3.927087
     73          1           0       -2.512532   -2.992814   -0.321520
     74          1           0       -1.689213   -1.586888    0.292122
     75          1           0       -0.833491   -2.978868    2.240738
     76          1           0       -1.678462   -4.363957    1.600109
     77          1           0       -1.885622    3.656780    3.922912
     78          1           0       -2.829981    5.001932    4.551158
     79          1           0       -3.162476    3.357329    5.099956
     80          1           0       -4.603644    6.429779    3.859146
     81          1           0       -4.608468    6.955923    0.840217
     82          1           0       -4.625726    8.187037    2.214511
     83          1           0       -7.683513    6.809681   -1.142820
     84          1           0       -9.358774    6.471004   -1.562373
     85          1           0       -8.842971    6.410245    0.121472
     86          1           0      -10.483693    3.128270   -2.912522
     87          1           0      -10.430015    4.851784   -2.668562
     88          1           0       -8.615389    5.068807   -4.387345
     89          1           0       -8.629488    3.325547   -4.637693
     90          1           0      -10.047471    4.287259   -5.065606
     91          1           0       -8.663927   -0.897784   -4.536090
     92          1           0       -8.768718   -2.545361   -3.896378
     93          1           0       -9.840733   -1.277936   -3.282604
     94          1           0       -4.394579   -3.680330   -1.312248
     95          1           0       -5.099634   -7.526391    0.434016
     96          1           0       -5.162373   -6.445691    1.857940
     97          1           0       -6.632890   -6.736208    0.901751
     98          1           0        2.306765   -5.910898    0.837751
     99          1           0        1.894844   -5.014148   -0.634159
    100          1           0        3.396116   -3.890881    1.825225
    101          1           0        2.587774   -3.487336   -1.842567
    102          1           0        3.715527   -2.138101   -1.956059
    103          1           0        4.315219   -3.781439   -2.088972
    104          1           0        4.702536   -1.245892    0.113854
    105          1           0        4.943809   -2.291027    1.506679
    106          1           0        6.507394   -3.700218    0.137114
    107          1           0        6.319823   -2.594116   -1.210093
    108          1           0        7.131999   -0.711896    0.260673
    109          1           0        7.456258   -1.872468    1.531309
    110          1           0        8.737567   -1.884811   -1.231747
    111          1           0        8.655891   -4.167257   -0.230851
    112          1           0       10.304990   -3.573577   -0.284363
    113          1           0        9.416011   -3.552579    1.239956
    114          1           0        9.313321    0.071281    0.193339
    115          1           0        9.880319   -1.006174    1.451152
    116          1           0       11.667946   -1.849189   -0.051153
    117          1           0       11.051408   -0.874914   -1.369783
    118          1           0       11.465292    1.192323    0.004293
    119          1           0       12.170832    0.201941    1.263572
    120          1           0       13.215836    0.410062   -1.589562
    121          1           0       13.825258   -1.755677   -0.510839
    122          1           0       15.243279   -0.745199   -0.721779
    123          1           0       14.493158   -0.881221    0.870175
    124          1           0       13.341417    2.520726   -0.289576
    125          1           0       14.246741    1.705076    0.966991
    126          1           0       16.125026    1.306030   -0.600447
    127          1           0       15.177024    1.941099   -1.929578
    128          1           0       15.141378    4.181970   -0.865866
    129          1           0       15.935252    3.542858    0.557706
    130          1           0       17.953696    3.020419   -0.786058
    131          1           0       16.497019    4.459584   -3.054764
    132          1           0       18.207532    4.025311   -3.062721
    133          1           0       16.982174    2.761366   -3.049823
    134          1           0       17.769570    5.161149    0.467087
    135          1           0       18.716526    5.375891   -1.007725
    136          1           0       17.043832    5.933902   -0.944641
    137          1           0       -5.476932    2.040872    0.928505
    138          1           0       -6.304535    0.884812   -0.557759
 ---------------------------------------------------------------------

 SCF Done:  E(RwB97XD) =  -2735.91488482     A.U. after   18 cycles

 The electronic state is 1-A.
 Alpha  occ. eigenvalues --  -19.26974 -19.26270 -19.20543 -19.20221 -19.20063
 Alpha  occ. eigenvalues --  -14.44093 -14.44040 -14.39592 -14.37310 -10.38234
 Alpha  occ. eigenvalues --  -10.37858 -10.34899 -10.31043 -10.30683 -10.30430
 Alpha  occ. eigenvalues --  -10.30086 -10.29683 -10.29614 -10.29503 -10.29448
 Alpha  occ. eigenvalues --  -10.28265 -10.28204 -10.27577 -10.27557 -10.27185
 Alpha  occ. eigenvalues --  -10.27081 -10.26997 -10.26723 -10.26706 -10.26701
 Alpha  occ. eigenvalues --  -10.26530 -10.26522 -10.26396 -10.25890 -10.25887
 Alpha  occ. eigenvalues --  -10.25732 -10.25720 -10.25468 -10.25379 -10.25361
 Alpha  occ. eigenvalues --  -10.25353 -10.25270 -10.25157 -10.25075 -10.25001
 Alpha  occ. eigenvalues --  -10.24822 -10.24818 -10.24809 -10.24734 -10.24628
 Alpha  occ. eigenvalues --  -10.24625 -10.24437 -10.24269 -10.24176 -10.24137
 Alpha  occ. eigenvalues --  -10.24040 -10.24027 -10.24018 -10.23983 -10.23969
 Alpha  occ. eigenvalues --  -10.23617 -10.23412 -10.23398 -10.23395  -1.18256
 Alpha  occ. eigenvalues --   -1.17487  -1.11686  -1.08987  -1.08620  -1.06193
 Alpha  occ. eigenvalues --   -1.05795  -1.02353  -1.00754  -0.92155  -0.89940
 Alpha  occ. eigenvalues --   -0.89548  -0.89112  -0.88642  -0.88411  -0.88109
 Alpha  occ. eigenvalues --   -0.87528  -0.86915  -0.86654  -0.86166  -0.84958
 Alpha  occ. eigenvalues --   -0.84115  -0.83398  -0.83022  -0.82167  -0.81662
 Alpha  occ. eigenvalues --   -0.80910  -0.80433  -0.79713  -0.78835  -0.78080
 Alpha  occ. eigenvalues --   -0.77454  -0.76516  -0.75825  -0.74983  -0.74579
 Alpha  occ. eigenvalues --   -0.74441  -0.74132  -0.73529  -0.72666  -0.72308
 Alpha  occ. eigenvalues --   -0.71034  -0.69754  -0.69124  -0.68554  -0.68415
 Alpha  occ. eigenvalues --   -0.68003  -0.65790  -0.65061  -0.64268  -0.63880
 Alpha  occ. eigenvalues --   -0.63629  -0.62618  -0.62323  -0.62127  -0.61905
 Alpha  occ. eigenvalues --   -0.61752  -0.61567  -0.61136  -0.60496  -0.59264
 Alpha  occ. eigenvalues --   -0.58842  -0.58284  -0.57799  -0.57383  -0.56839
 Alpha  occ. eigenvalues --   -0.55422  -0.55329  -0.55219  -0.54941  -0.54233
 Alpha  occ. eigenvalues --   -0.54060  -0.53921  -0.53594  -0.53511  -0.53082
 Alpha  occ. eigenvalues --   -0.52829  -0.52221  -0.52181  -0.51797  -0.51500
 Alpha  occ. eigenvalues --   -0.51381  -0.51060  -0.50978  -0.50591  -0.50441
 Alpha  occ. eigenvalues --   -0.50275  -0.50002  -0.49763  -0.49508  -0.49404
 Alpha  occ. eigenvalues --   -0.49225  -0.49092  -0.48876  -0.48653  -0.48331
 Alpha  occ. eigenvalues --   -0.48069  -0.47988  -0.47730  -0.47636  -0.47381
 Alpha  occ. eigenvalues --   -0.47190  -0.46840  -0.46666  -0.46626  -0.46179
 Alpha  occ. eigenvalues --   -0.45781  -0.45682  -0.45503  -0.45395  -0.45076
 Alpha  occ. eigenvalues --   -0.44954  -0.44845  -0.44756  -0.44596  -0.44224
 Alpha  occ. eigenvalues --   -0.44002  -0.43835  -0.43796  -0.43616  -0.43500
 Alpha  occ. eigenvalues --   -0.43096  -0.43028  -0.42825  -0.42682  -0.42604
 Alpha  occ. eigenvalues --   -0.42313  -0.42285  -0.41958  -0.41910  -0.41627
 Alpha  occ. eigenvalues --   -0.41449  -0.41352  -0.41056  -0.40972  -0.40873
 Alpha  occ. eigenvalues --   -0.40688  -0.40229  -0.40006  -0.39614  -0.39536
 Alpha  occ. eigenvalues --   -0.39274  -0.39222  -0.38933  -0.38761  -0.38230
 Alpha  occ. eigenvalues --   -0.38019  -0.37603  -0.37468  -0.37338  -0.37299
 Alpha  occ. eigenvalues --   -0.37043  -0.36939  -0.36826  -0.36701  -0.36359
 Alpha  occ. eigenvalues --   -0.36100  -0.35633  -0.34061  -0.33889  -0.33651
 Alpha  occ. eigenvalues --   -0.33256  -0.32821  -0.32226  -0.31762  -0.31593
 Alpha  occ. eigenvalues --   -0.30652  -0.30236  -0.29759  -0.27874  -0.24011
 Alpha  occ. eigenvalues --   -0.22134
 Alpha virt. eigenvalues --   -0.05027  -0.02528   0.01690   0.04044   0.05764
 Alpha virt. eigenvalues --    0.06162   0.06900   0.07031   0.08377   0.09442
 Alpha virt. eigenvalues --    0.09992   0.09995   0.10382   0.10568   0.11197

 Mulliken charges:
               1
     1  C   -0.214784
     2  C   -0.534531
     3  C   -0.450078
     4  C   -0.359466
     5  N   -0.438358
     6  C    0.330081
     7  C    0.013040
     8  C    0.076302
     9  C    0.268009
    10  C   -0.380840
    11  C   -0.296819
    12  C   -0.223828
    13  C    0.424640
    14  O   -0.399724
    15  O   -0.290679
    16  N   -0.199373
    17  C    0.287089
    18  C   -0.100521
    19  C    0.084812
    20  C    0.223452
    21  C   -0.349435
    22  C   -0.203649
    23  C   -0.306193
    24  N   -0.529064
    25  C    0.305658
    26  C    0.004580
    27  C   -0.081041
    28  C    0.392131
    29  C   -0.375941
    30  C   -0.249493
    31  C   -0.319169
    32  N   -0.187137
    33  C    0.209635
    34  C   -0.087898
    35  C   -0.061778
    36  C    0.094569
    37  C   -0.406762
    38  C    0.187969
    39  O   -0.328037
    40  C    0.050263
    41  C    0.333703
    42  O   -0.371410
    43  O   -0.270990
    44  C   -0.187294
    45  C   -0.007171
    46  C   -0.256277
    47  C    0.113158
    48  C   -0.389770
    49  C   -0.184388
    50  C   -0.246202
    51  C   -0.179940
    52  C    0.047573
    53  C   -0.393878
    54  C   -0.182363
    55  C   -0.225187
    56  C   -0.182933
    57  C    0.052474
    58  C   -0.393432
    59  C   -0.181180
    60  C   -0.227177
    61  C   -0.186179
    62  C    0.011179
    63  C   -0.362383
    64  C   -0.324301
    65  H    0.140767
    66  H    0.197970
    67  H    0.153269
    68  H    0.123831
    69  H    0.076872
    70  H    0.114807
    71  H    0.113797
    72  H    0.144314
    73  H    0.127607
    74  H    0.129148
    75  H    0.122669
    76  H    0.121171
    77  H    0.138071
    78  H    0.120112
    79  H    0.135442
    80  H    0.130760
    81  H    0.159093
    82  H    0.129787
    83  H    0.131548
    84  H    0.112977
    85  H    0.133364
    86  H    0.104221
    87  H    0.101756
    88  H    0.112473
    89  H    0.117697
    90  H    0.108739
    91  H    0.134211
    92  H    0.161977
    93  H    0.136078
    94  H    0.104134
    95  H    0.132684
    96  H    0.124788
    97  H    0.136954
    98  H    0.105299
    99  H    0.128184
   100  H    0.106063
   101  H    0.155723
   102  H    0.119121
   103  H    0.133856
   104  H    0.109839
   105  H    0.095387
   106  H    0.108185
   107  H    0.102506
   108  H    0.088094
   109  H    0.090948
   110  H    0.054057
   111  H    0.120478
   112  H    0.120792
   113  H    0.102690
   114  H    0.087385
   115  H    0.088145
   116  H    0.098713
   117  H    0.085287
   118  H    0.087019
   119  H    0.087531
   120  H    0.052353
   121  H    0.118340
   122  H    0.121578
   123  H    0.102120
   124  H    0.087142
   125  H    0.088896
   126  H    0.092733
   127  H    0.095513
   128  H    0.088706
   129  H    0.086701
   130  H    0.055894
   131  H    0.101243
   132  H    0.111279
   133  H    0.119352
   134  H    0.107939
   135  H    0.111344
   136  H    0.100531
   137  H    0.233286
   138  H    0.233397
 Sum of Mulliken charges =  -0.00000

 Dipole moment (field-independent basis, Debye):
    X=              3.5408    Y=              1.8092    Z=              2.6137  Tot=              4.7584
 Quadrupole moment (field-independent basis, Debye-Ang):
   XX=           -387.7422   YY=           -359.3355   ZZ=           -375.2201
   XY=            -27.8822   XZ=              5.1176   YZ=             -7.1442

 Normal termination of Gaussian 16 at Fri Dec 13 12:25:37 2019.
