 Gaussian 16, Revision A.03,
 Gaussian 16:  ES64L-G16RevA.03 25-Dec-2016

 -------------------------------------
 # td=(NStates=1) CAM-B3LYP/6-31G(d,p)
 -------------------------------------

 --
 TD
 --
 Symbolic Z-matrix:
 Charge =  0 Multiplicity = 1

                         Standard orientation:
 ---------------------------------------------------------------------
 Center     Atomic      Atomic             Coordinates (Angstroms)
 Number     Number       Type             X           Y           Z
 ---------------------------------------------------------------------
      1          8           0      -11.851719    0.416551   -1.317011
      2          8           0      -12.845868   -2.631331    1.377639
      3          8           0       10.878210   -0.775121   -2.207624
      4          8           0       14.539555   -1.044333    0.147780
      5          6           0      -11.157617   -0.073403   -0.261201
      6          6           0      -11.736273   -0.933279   -1.225616
      7          6           0      -11.751537    0.314997    1.071501
      8          6           0      -13.111144   -1.645243   -0.959439
      9          6           0      -13.193198   -0.177725    1.127778
     10          6           0      -13.508422   -1.500618    0.627485
     11          6           0      -11.050874   -1.675425   -2.399261
     12          6           0       -9.596535    0.231163   -0.327198
     13          6           0      -10.984494   -0.343440    2.318243
     14          6           0      -11.798324    1.816696    1.179129
     15          6           0       -8.712707   -0.834371   -0.186335
     16          6           0       -7.237341   -0.648491   -0.073446
     17          6           0       -6.347751   -1.841234    0.157811
     18          6           0       -6.717129    0.620388   -0.206634
     19          6           0       -5.277585    0.883066   -0.377438
     20          6           0       11.900050    0.073474    1.453733
     21          6           0       11.852838   -0.483582   -1.239083
     22          6           0       12.542024   -1.407132    1.552043
     23          6           0       13.398140   -1.824725    0.363665
     24          6           0       12.591050   -1.853265   -0.898682
     25          6           0       11.062324    0.128731    0.035786
     26          6           0       10.774057   -0.021215    2.502889
     27          6           0       12.870494    1.139225    1.589313
     28          6           0       12.725236    0.602650   -1.879748
     29          6           0       -4.828682    2.140439   -0.403126
     30          6           0        9.819891    0.535430   -0.154117
     31          6           0       -3.433752    2.482152   -0.329429
     32          6           0        8.603328    0.857415   -0.210183
     33          6           0       -3.107793    3.946040   -0.353924
     34          6           0       -2.340819    1.609360   -0.361731
     35          6           0        7.503261    0.091023   -0.049222
     36          6           0        7.753874   -1.301140    0.013085
     37          6           0        6.210522    0.748583   -0.147812
     38          6           0       -0.926214    1.895215   -0.331093
     39          6           0        4.913400    0.125536   -0.088893
     40          6           0        0.089967    0.828915   -0.071254
     41          6           0        3.811948    0.857282   -0.050176
     42          6           0        1.434837    1.238856   -0.139093
     43          6           0        2.512222    0.303869   -0.119650
     44          6           0        2.409798   -1.182343   -0.169586
     45          1           0      -13.147173   -2.791331   -1.150885
     46          1           0      -13.975400   -1.069986   -1.489985
     47          1           0      -13.397266   -0.262603    2.166862
     48          1           0      -13.955987    0.371727    0.630186
     49          1           0      -14.489802   -1.671951    0.648239
     50          1           0      -10.579544   -2.759612   -2.237028
     51          1           0      -11.679480   -1.718927   -3.254330
     52          1           0      -10.319527   -0.988822   -2.703043
     53          1           0       -9.287009    1.270834   -0.592653
     54          1           0       -9.821923   -0.057277    2.423721
     55          1           0      -11.386450   -0.123072    3.317052
     56          1           0      -11.046213   -1.354173    2.422769
     57          1           0      -12.215347    2.290249    0.353752
     58          1           0      -12.353972    2.144408    2.109381
     59          1           0      -10.687155    2.282254    1.316926
     60          1           0      -11.963380   -2.636929    1.077317
     61          1           0       -8.958848   -1.725815    0.021827
     62          1           0       -5.917885   -2.294570   -0.758677
     63          1           0       -5.558613   -1.503546    0.912369
     64          1           0       -6.944716   -2.614328    0.784218
     65          1           0       -7.229601    1.564941   -0.573790
     66          1           0       -4.446026    0.123287   -0.165810
     67          1           0       13.311138   -1.217767    2.234890
     68          1           0       11.761746   -2.227857    1.925901
     69          1           0       13.613551   -2.845355    0.458423
     70          1           0       13.177774   -2.095231   -1.810299
     71          1           0       11.886647   -2.591152   -0.842259
     72          1           0       11.292988   -0.006972    3.451820
     73          1           0       10.259532    0.838549    2.409198
     74          1           0       10.057726   -0.890579    2.457391
     75          1           0       13.645651    1.308267    0.903909
     76          1           0       12.376084    2.159290    1.320455
     77          1           0       13.307036    1.163385    2.589664
     78          1           0       12.954759    0.291703   -2.831130
     79          1           0       12.060074    1.421233   -1.800354
     80          1           0       13.565395    0.817037   -1.294978
     81          1           0       -5.537567    3.021821   -0.244751
     82          1           0       10.263648   -0.043639   -2.116546
     83          1           0       15.211683   -0.975222    0.808809
     84          1           0        8.427080    1.833139   -0.558270
     85          1           0       -2.663047    4.049881    0.609863
     86          1           0       -2.430319    4.200337   -1.107193
     87          1           0       -4.067976    4.491735   -0.183333
     88          1           0       -2.491821    0.636421   -0.297423
     89          1           0        6.876026   -1.998001   -0.113880
     90          1           0        8.590836   -1.583163   -0.744443
     91          1           0        8.122288   -1.453308    1.172362
     92          1           0        6.240685    1.826451   -0.042589
     93          1           0       -0.605136    2.913340   -0.609764
     94          1           0        4.801026   -0.920468   -0.078351
     95          1           0       -0.207082   -0.212344    0.205496
     96          1           0        3.646955    1.788048   -0.236583
     97          1           0        1.449915    2.294739   -0.089547
     98          1           0        1.311947   -1.303037   -0.090531
     99          1           0        2.745980   -1.567835   -1.200812
    100          1           0        2.878256   -1.667590    0.605622
 ---------------------------------------------------------------------

 SCF Done:  E(RCAM-B3LYP) =  -1857.33642157     A.U. after   15 cycles

 Excitation energies and oscillator strengths:

 Excited State   1:      Singlet-A      2.1575 eV  574.68 nm  f=3.1218  <S**2>=0.000
     163 ->166         0.14003
     164 ->165         0.69274
 This state for optimization and/or second-order correction.
 Total Energy, E(TD-HF/TD-DFT) =  -1857.25713615
 Copying the excited state density for this state as the 1-particle RhoCI density.

 The electronic state is 1-A.
 Alpha  occ. eigenvalues --  -19.23483 -19.21440 -19.20354 -19.19397 -10.32659
 Alpha  occ. eigenvalues --  -10.32246 -10.30651 -10.29915 -10.29642 -10.28530
 Alpha  occ. eigenvalues --  -10.28069 -10.27950 -10.27869 -10.27836 -10.27625
 Alpha  occ. eigenvalues --  -10.27417 -10.27205 -10.27136 -10.27071 -10.26767
 Alpha  occ. eigenvalues --  -10.26749 -10.26687 -10.26656 -10.26593 -10.26487
 Alpha  occ. eigenvalues --  -10.26427 -10.26427 -10.26090 -10.25869 -10.25587
 Alpha  occ. eigenvalues --  -10.25524 -10.25469 -10.25467 -10.25425 -10.25070
 Alpha  occ. eigenvalues --  -10.24886 -10.24861 -10.24792 -10.24497 -10.23982
 Alpha  occ. eigenvalues --  -10.23619 -10.23584 -10.23573 -10.21278  -1.21809
 Alpha  occ. eigenvalues --   -1.10490  -1.09461  -1.07556  -0.93476  -0.92237
 Alpha  occ. eigenvalues --   -0.91862  -0.91536  -0.91066  -0.90083  -0.87252
 Alpha  occ. eigenvalues --   -0.85919  -0.85742  -0.85130  -0.84019  -0.82841
 Alpha  occ. eigenvalues --   -0.82200  -0.81013  -0.80821  -0.79000  -0.77693
 Alpha  occ. eigenvalues --   -0.76763  -0.76631  -0.76280  -0.76016  -0.75949
 Alpha  occ. eigenvalues --   -0.75843  -0.74310  -0.72545  -0.70693  -0.69775
 Alpha  occ. eigenvalues --   -0.68763  -0.66658  -0.66361  -0.65652  -0.64068
 Alpha  occ. eigenvalues --   -0.63085  -0.62731  -0.61826  -0.60992  -0.59778
 Alpha  occ. eigenvalues --   -0.59498  -0.58316  -0.58183  -0.57494  -0.57075
 Alpha  occ. eigenvalues --   -0.56740  -0.55751  -0.55142  -0.54919  -0.54605
 Alpha  occ. eigenvalues --   -0.54315  -0.53190  -0.52797  -0.52500  -0.51277
 Alpha  occ. eigenvalues --   -0.50988  -0.50583  -0.50414  -0.49940  -0.49788
 Alpha  occ. eigenvalues --   -0.49689  -0.49555  -0.49381  -0.49137  -0.48538
 Alpha  occ. eigenvalues --   -0.47951  -0.47864  -0.47711  -0.47307  -0.46671
 Alpha  occ. eigenvalues --   -0.46527  -0.46323  -0.46102  -0.46006  -0.45686
 Alpha  occ. eigenvalues --   -0.45442  -0.45356  -0.44597  -0.44459  -0.44177
 Alpha  occ. eigenvalues --   -0.43895  -0.43657  -0.43499  -0.43347  -0.42542
 Alpha  occ. eigenvalues --   -0.42448  -0.42306  -0.42038  -0.41917  -0.41766
 Alpha  occ. eigenvalues --   -0.41311  -0.41026  -0.40636  -0.40612  -0.40086
 Alpha  occ. eigenvalues --   -0.39608  -0.39457  -0.39281  -0.39135  -0.38910
 Alpha  occ. eigenvalues --   -0.38419  -0.38206  -0.37565  -0.37167  -0.36688
 Alpha  occ. eigenvalues --   -0.36390  -0.35934  -0.35110  -0.34219  -0.34050
 Alpha  occ. eigenvalues --   -0.32492  -0.31968  -0.31608  -0.31248  -0.30381
 Alpha  occ. eigenvalues --   -0.29413  -0.27197  -0.24144  -0.19304
 Alpha virt. eigenvalues --   -0.05784  -0.01011   0.02415   0.06505   0.07809
 Alpha virt. eigenvalues --    0.10201   0.10816   0.11367   0.12347   0.12787
 Alpha virt. eigenvalues --    0.12981   0.13444   0.13574   0.14189   0.14774

 Mulliken charges:
               1
     1  O   -0.460257
     2  O   -0.562642
     3  O   -0.561522
     4  O   -0.555075
     5  C    0.203456
     6  C    0.228558
     7  C    0.031464
     8  C   -0.236031
     9  C   -0.170334
    10  C    0.128061
    11  C   -0.333259
    12  C   -0.111107
    13  C   -0.333804
    14  C   -0.304979
    15  C   -0.029340
    16  C    0.054895
    17  C   -0.368845
    18  C   -0.120908
    19  C   -0.076641
    20  C    0.040735
    21  C    0.224698
    22  C   -0.185736
    23  C    0.174371
    24  C   -0.178313
    25  C   -0.129847
    26  C   -0.297435
    27  C   -0.324111
    28  C   -0.282190
    29  C   -0.104167
    30  C    0.140840
    31  C    0.066617
    32  C   -0.287887
    33  C   -0.375674
    34  C   -0.099197
    35  C    0.164462
    36  C   -0.382090
    37  C   -0.133505
    38  C   -0.122553
    39  C   -0.099257
    40  C   -0.102775
    41  C   -0.032138
    42  C   -0.115243
    43  C    0.054145
    44  C   -0.365274
    45  H    0.106605
    46  H    0.101316
    47  H    0.113627
    48  H    0.105464
    49  H    0.105325
    50  H    0.095930
    51  H    0.121866
    52  H    0.122452
    53  H    0.109890
    54  H    0.092980
    55  H    0.104391
    56  H    0.110620
    57  H    0.131690
    58  H    0.102445
    59  H    0.076065
    60  H    0.300637
    61  H    0.053037
    62  H    0.135948
    63  H    0.123213
    64  H    0.098484
    65  H    0.089674
    66  H    0.089241
    67  H    0.082418
    68  H    0.093298
    69  H    0.081321
    70  H    0.102608
    71  H    0.110421
    72  H    0.087346
    73  H    0.113798
    74  H    0.105788
    75  H    0.136844
    76  H    0.092171
    77  H    0.099156
    78  H    0.117394
    79  H    0.083328
    80  H    0.115892
    81  H    0.080409
    82  H    0.297710
    83  H    0.305305
    84  H    0.107935
    85  H    0.133638
    86  H    0.134367
    87  H    0.098095
    88  H    0.057932
    89  H    0.104425
    90  H    0.133142
    91  H    0.100167
    92  H    0.083854
    93  H    0.083504
    94  H    0.084295
    95  H    0.099808
    96  H    0.061544
    97  H    0.097523
    98  H    0.093992
    99  H    0.124155
   100  H    0.135346
 Sum of Mulliken charges =  -0.00000

 Dipole moment (field-independent basis, Debye):
    X=              0.9690    Y=              0.1056    Z=              2.2841  Tot=              2.4834
 Quadrupole moment (field-independent basis, Debye-Ang):
   XX=           -260.8289   YY=           -260.3701   ZZ=           -278.8239
   XY=             -6.3740   XZ=             40.5397   YZ=              0.4922

 Normal termination of Gaussian 16 at Tue Jul 30 16:24:02 2019.
