 Gaussian 16, Revision A.03,
 Gaussian 16:  ES64L-G16RevA.03 25-Dec-2016

 -------------------------------------
 # td=(NStates=1) CAM-B3LYP/6-31G(d,p)
 -------------------------------------

 --
 TD
 --
 Symbolic Z-matrix:
 Charge =  0 Multiplicity = 1

                         Standard orientation:
 ---------------------------------------------------------------------
 Center     Atomic      Atomic             Coordinates (Angstroms)
 Number     Number       Type             X           Y           Z
 ---------------------------------------------------------------------
      1          8           0      -11.830313    0.785486   -1.102819
      2          8           0      -12.993599   -2.802216    0.738786
      3          8           0       10.575069   -0.700573   -2.136888
      4          8           0       14.419856   -0.865829   -0.132465
      5          6           0      -11.068743    0.037939   -0.154665
      6          6           0      -11.713207   -0.630030   -1.383757
      7          6           0      -11.646380   -0.044902    1.353875
      8          6           0      -13.099338   -1.314112   -1.318133
      9          6           0      -13.122317   -0.423094    1.230589
     10          6           0      -13.596825   -1.546519    0.261658
     11          6           0      -10.902148   -1.066001   -2.497325
     12          6           0       -9.627839    0.241338   -0.258652
     13          6           0      -10.870700   -1.015548    2.358201
     14          6           0      -11.595405    1.375507    1.926599
     15          6           0       -8.681061   -0.695598   -0.099212
     16          6           0       -7.235599   -0.606827   -0.150918
     17          6           0       -6.374934   -1.802696   -0.255496
     18          6           0       -6.601421    0.641492   -0.216852
     19          6           0       -5.211749    0.854331   -0.113851
     20          6           0       11.836381   -0.277339    1.408644
     21          6           0       11.728865   -0.382548   -1.182655
     22          6           0       12.636549   -1.693773    1.408300
     23          6           0       13.435879   -1.900182    0.074816
     24          6           0       12.491091   -1.657271   -1.133594
     25          6           0       11.065299   -0.048707    0.146091
     26          6           0       10.905313   -0.441047    2.609167
     27          6           0       12.817685    0.934134    1.719313
     28          6           0       12.419322    0.846663   -1.801665
     29          6           0       -4.649670    2.151051   -0.084380
     30          6           0        9.890176    0.580548    0.173524
     31          6           0       -3.331323    2.536917   -0.185341
     32          6           0        8.610021    1.039215    0.005916
     33          6           0       -3.028763    4.024447   -0.192584
     34          6           0       -2.269234    1.639460   -0.166840
     35          6           0        7.427702    0.213117   -0.008449
     36          6           0        7.593326   -1.275322   -0.203740
     37          6           0        6.183411    0.824052   -0.032060
     38          6           0       -0.962260    1.887983   -0.300496
     39          6           0        4.951651    0.193126   -0.029350
     40          6           0        0.066542    0.828054   -0.260118
     41          6           0        3.792920    0.929988   -0.054958
     42          6           0        1.368953    1.266732   -0.214593
     43          6           0        2.507398    0.367891   -0.039387
     44          6           0        2.379757   -1.183369   -0.153717
     45          1           0      -13.053727   -2.253439   -1.766507
     46          1           0      -13.831540   -0.546818   -1.864643
     47          1           0      -13.473995   -0.332884    2.210928
     48          1           0      -13.465644    0.550333    0.948186
     49          1           0      -14.717772   -1.631171    0.373435
     50          1           0      -10.473722   -2.048779   -2.533743
     51          1           0      -11.535524   -1.089497   -3.456774
     52          1           0      -10.060746   -0.391599   -2.711395
     53          1           0       -9.265007    1.253415   -0.727502
     54          1           0       -9.853334   -0.885537    2.407518
     55          1           0      -11.540159   -1.109249    3.299655
     56          1           0      -11.043830   -2.082653    1.897781
     57          1           0      -12.112961    2.150245    1.234913
     58          1           0      -12.187856    1.452332    2.889075
     59          1           0      -10.648730    1.541941    2.356050
     60          1           0      -12.073588   -2.806876    0.587982
     61          1           0       -9.016697   -1.816612   -0.095558
     62          1           0       -5.749424   -1.961395   -1.151937
     63          1           0       -5.656416   -1.696097    0.623178
     64          1           0       -6.995790   -2.747570   -0.212677
     65          1           0       -7.327926    1.496624   -0.392276
     66          1           0       -4.606509    0.049083   -0.060826
     67          1           0       13.331240   -1.649421    2.388429
     68          1           0       12.123580   -2.553009    1.802434
     69          1           0       13.857790   -2.931789   -0.076169
     70          1           0       13.234243   -1.666763   -2.094091
     71          1           0       11.908348   -2.381810   -1.212000
     72          1           0       11.441701   -0.761646    3.446507
     73          1           0       10.312344    0.522324    2.792330
     74          1           0       10.148555   -1.375045    2.398150
     75          1           0       13.407157    1.176322    0.719789
     76          1           0       12.371124    1.758326    1.789135
     77          1           0       13.614759    0.727151    2.497315
     78          1           0       12.858255    0.561772   -2.881162
     79          1           0       11.638897    1.782655   -1.872498
     80          1           0       13.288538    1.206680   -1.016408
     81          1           0       -5.215569    3.057167    0.042996
     82          1           0        9.978975   -0.072938   -2.175738
     83          1           0       14.910901   -0.881798    0.471139
     84          1           0        8.489300    2.022303   -0.034035
     85          1           0       -2.369819    3.923162    0.831037
     86          1           0       -2.391430    4.244647   -0.962983
     87          1           0       -3.967448    4.632590   -0.077356
     88          1           0       -2.470079    0.585925    0.312089
     89          1           0        6.568358   -1.735651   -0.633525
     90          1           0        8.562104   -1.327740   -0.925880
     91          1           0        7.998113   -1.547069    0.748693
     92          1           0        6.101035    2.007888    0.132026
     93          1           0       -0.605916    2.866630   -0.569495
     94          1           0        4.840416   -0.752315   -0.232058
     95          1           0       -0.174189   -0.176675   -0.190440
     96          1           0        3.818865    2.176199   -0.164509
     97          1           0        1.618263    2.275690   -0.424757
     98          1           0        1.364952   -1.465845    0.130499
     99          1           0        2.690342   -1.401916   -1.302686
    100          1           0        2.923136   -1.729330    0.452006
 ---------------------------------------------------------------------

 SCF Done:  E(RCAM-B3LYP) =  -1857.22645557     A.U. after   17 cycles

 Excitation energies and oscillator strengths:

 Excited State   1:      Singlet-A      1.6276 eV  761.76 nm  f=2.9864  <S**2>=0.000
     163 ->166        -0.11043
     164 ->165         0.71500
     164 <-165        -0.16701
 This state for optimization and/or second-order correction.
 Total Energy, E(TD-HF/TD-DFT) =  -1857.16664254
 Copying the excited state density for this state as the 1-particle RhoCI density.

 The electronic state is 1-A.
 Alpha  occ. eigenvalues --  -19.22754 -19.20529 -19.20424 -19.18824 -10.32683
 Alpha  occ. eigenvalues --  -10.32623 -10.32519 -10.32364 -10.32229 -10.28990
 Alpha  occ. eigenvalues --  -10.28176 -10.27891 -10.27876 -10.27692 -10.27677
 Alpha  occ. eigenvalues --  -10.27535 -10.27314 -10.27290 -10.27263 -10.27260
 Alpha  occ. eigenvalues --  -10.27125 -10.26867 -10.26834 -10.26697 -10.26650
 Alpha  occ. eigenvalues --  -10.26638 -10.26494 -10.26466 -10.26415 -10.26415
 Alpha  occ. eigenvalues --  -10.26389 -10.26340 -10.26251 -10.26162 -10.26061
 Alpha  occ. eigenvalues --  -10.25783 -10.25716 -10.25661 -10.25533 -10.24907
 Alpha  occ. eigenvalues --  -10.24736 -10.24692 -10.24643 -10.23808  -1.14934
 Alpha  occ. eigenvalues --   -1.14744  -1.08309  -1.08257  -0.93188  -0.92588
 Alpha  occ. eigenvalues --   -0.91864  -0.91177  -0.90136  -0.89849  -0.87565
 Alpha  occ. eigenvalues --   -0.86943  -0.86081  -0.85710  -0.84737  -0.83415
 Alpha  occ. eigenvalues --   -0.82134  -0.80501  -0.80082  -0.79070  -0.77073
 Alpha  occ. eigenvalues --   -0.76328  -0.76118  -0.75962  -0.75927  -0.75504
 Alpha  occ. eigenvalues --   -0.75499  -0.74431  -0.72389  -0.70731  -0.70141
 Alpha  occ. eigenvalues --   -0.68956  -0.67414  -0.65498  -0.65005  -0.64461
 Alpha  occ. eigenvalues --   -0.64040  -0.63477  -0.61064  -0.60837  -0.59558
 Alpha  occ. eigenvalues --   -0.59001  -0.58166  -0.57861  -0.57399  -0.56699
 Alpha  occ. eigenvalues --   -0.55695  -0.55593  -0.54842  -0.54474  -0.53832
 Alpha  occ. eigenvalues --   -0.53340  -0.52701  -0.52445  -0.52177  -0.51547
 Alpha  occ. eigenvalues --   -0.51354  -0.50994  -0.50599  -0.49785  -0.49583
 Alpha  occ. eigenvalues --   -0.49047  -0.48929  -0.48851  -0.48645  -0.48314
 Alpha  occ. eigenvalues --   -0.48100  -0.47948  -0.47853  -0.47098  -0.46851
 Alpha  occ. eigenvalues --   -0.46599  -0.46485  -0.46114  -0.45882  -0.45740
 Alpha  occ. eigenvalues --   -0.45474  -0.44975  -0.44420  -0.44338  -0.44216
 Alpha  occ. eigenvalues --   -0.44034  -0.43453  -0.43300  -0.43087  -0.42407
 Alpha  occ. eigenvalues --   -0.42271  -0.42076  -0.42053  -0.41428  -0.40970
 Alpha  occ. eigenvalues --   -0.40645  -0.40499  -0.40008  -0.39708  -0.39573
 Alpha  occ. eigenvalues --   -0.39257  -0.39193  -0.38886  -0.38858  -0.38600
 Alpha  occ. eigenvalues --   -0.38447  -0.38215  -0.38115  -0.37554  -0.37111
 Alpha  occ. eigenvalues --   -0.36464  -0.35969  -0.34934  -0.34516  -0.33526
 Alpha  occ. eigenvalues --   -0.33411  -0.32517  -0.32320  -0.31783  -0.30764
 Alpha  occ. eigenvalues --   -0.29948  -0.27352  -0.23977  -0.17579
 Alpha virt. eigenvalues --   -0.07751  -0.00785   0.02952   0.05646   0.06701
 Alpha virt. eigenvalues --    0.09706   0.10635   0.10782   0.11637   0.12335
 Alpha virt. eigenvalues --    0.12765   0.13308   0.13466   0.13736   0.14270

 Mulliken charges:
               1
     1  O   -0.511773
     2  O   -0.552939
     3  O   -0.561129
     4  O   -0.472178
     5  C    0.223228
     6  C    0.252984
     7  C   -0.003850
     8  C   -0.209452
     9  C   -0.172888
    10  C    0.143091
    11  C   -0.356838
    12  C   -0.128741
    13  C   -0.300693
    14  C   -0.320207
    15  C   -0.080289
    16  C    0.077429
    17  C   -0.376438
    18  C   -0.092080
    19  C   -0.070161
    20  C    0.020719
    21  C    0.246202
    22  C   -0.212794
    23  C    0.108302
    24  C   -0.143688
    25  C   -0.027468
    26  C   -0.291526
    27  C   -0.283549
    28  C   -0.267173
    29  C   -0.108780
    30  C    0.058391
    31  C    0.067869
    32  C   -0.220255
    33  C   -0.354209
    34  C   -0.110448
    35  C    0.102164
    36  C   -0.368196
    37  C   -0.110663
    38  C   -0.100259
    39  C   -0.067765
    40  C   -0.079105
    41  C   -0.104165
    42  C   -0.101726
    43  C    0.058000
    44  C   -0.355022
    45  H    0.117038
    46  H    0.109672
    47  H    0.096906
    48  H    0.105075
    49  H    0.107078
    50  H    0.122232
    51  H    0.101596
    52  H    0.128183
    53  H    0.103370
    54  H    0.125531
    55  H    0.109242
    56  H    0.061890
    57  H    0.119278
    58  H    0.090405
    59  H    0.114747
    60  H    0.303343
    61  H    0.062419
    62  H    0.131164
    63  H    0.119940
    64  H    0.096858
    65  H    0.075978
    66  H    0.081104
    67  H    0.067963
    68  H    0.114382
    69  H    0.088323
    70  H    0.097360
    71  H    0.117111
    72  H    0.103731
    73  H    0.103630
    74  H    0.078064
    75  H    0.090252
    76  H    0.115861
    77  H    0.091793
    78  H    0.105206
    79  H    0.079711
    80  H    0.104622
    81  H    0.069951
    82  H    0.284429
    83  H    0.253414
    84  H    0.099532
    85  H    0.115133
    86  H    0.137991
    87  H    0.110423
    88  H    0.073287
    89  H    0.100406
    90  H    0.123690
    91  H    0.135319
    92  H    0.067624
    93  H    0.082989
    94  H    0.072481
    95  H    0.087041
    96  H    0.064099
    97  H    0.085682
    98  H    0.105452
    99  H    0.115773
   100  H    0.132290
 Sum of Mulliken charges =  -0.00000

 Dipole moment (field-independent basis, Debye):
    X=              3.1187    Y=             -0.3913    Z=              1.4942  Tot=              3.4802
 Quadrupole moment (field-independent basis, Debye-Ang):
   XX=           -273.0134   YY=           -262.0981   ZZ=           -275.0590
   XY=            -10.9782   XZ=             34.1399   YZ=              0.4078

 Normal termination of Gaussian 16 at Wed Jul 31 07:46:58 2019.
