 Gaussian 16, Revision A.03,
 Gaussian 16:  ES64L-G16RevA.03 25-Dec-2016

 -------------------------------------
 # td=(NStates=1) CAM-B3LYP/6-31G(d,p)
 -------------------------------------

 --
 TD
 --
 Symbolic Z-matrix:
 Charge =  0 Multiplicity = 1

                         Standard orientation:
 ---------------------------------------------------------------------
 Center     Atomic      Atomic             Coordinates (Angstroms)
 Number     Number       Type             X           Y           Z
 ---------------------------------------------------------------------
      1          8           0      -11.764391    0.355428   -1.491855
      2          8           0      -12.629024   -2.697620    1.339290
      3          8           0       10.493472   -1.257339   -2.000986
      4          8           0       14.455497   -1.041255   -0.217703
      5          6           0      -11.057185   -0.070879   -0.318452
      6          6           0      -11.661549   -1.127961   -1.265581
      7          6           0      -11.831015    0.213305    1.001311
      8          6           0      -12.989864   -1.811273   -0.928559
      9          6           0      -13.131730   -0.256748    1.068325
     10          6           0      -13.352717   -1.732069    0.530848
     11          6           0      -10.889221   -1.840264   -2.166717
     12          6           0       -9.628490    0.185493   -0.411923
     13          6           0      -11.013399   -0.258747    2.281392
     14          6           0      -11.727041    1.774156    1.044946
     15          6           0       -8.706429   -0.687015   -0.008976
     16          6           0       -7.254487   -0.531008    0.031459
     17          6           0       -6.365968   -1.775848    0.211017
     18          6           0       -6.664109    0.733012    0.035453
     19          6           0       -5.264860    0.886484   -0.169353
     20          6           0       11.922006    0.074112    1.317949
     21          6           0       11.583869   -0.808735   -1.196939
     22          6           0       12.683870   -1.287705    1.425628
     23          6           0       13.414614   -1.849899    0.298846
     24          6           0       12.336503   -2.062783   -0.830909
     25          6           0       11.096035   -0.037097    0.009074
     26          6           0       11.109050    0.359887    2.579824
     27          6           0       12.980929    1.119759    1.141853
     28          6           0       12.338116    0.112681   -2.189673
     29          6           0       -4.780918    2.170692   -0.317291
     30          6           0        9.885735    0.556700    0.041433
     31          6           0       -3.370029    2.579933   -0.654562
     32          6           0        8.617649    0.939446   -0.083548
     33          6           0       -2.940656    3.924357   -0.752897
     34          6           0       -2.320677    1.628524   -0.421016
     35          6           0        7.361865    0.198226    0.154652
     36          6           0        7.564045   -1.247698    0.326850
     37          6           0        6.214045    0.856550    0.084734
     38          6           0       -1.012357    2.067336   -0.327084
     39          6           0        4.907355    0.176639   -0.054077
     40          6           0        0.006574    1.096255   -0.100333
     41          6           0        3.805412    1.076286   -0.053585
     42          6           0        1.379223    1.431209   -0.191102
     43          6           0        2.433621    0.567856    0.013560
     44          6           0        2.244143   -0.817398    0.481059
     45          1           0      -12.935160   -2.851960   -1.439644
     46          1           0      -13.800275   -1.364589   -1.574409
     47          1           0      -13.535997   -0.188896    2.090685
     48          1           0      -13.864366    0.279596    0.485274
     49          1           0      -14.440876   -2.045599    0.564774
     50          1           0      -10.510785   -2.914865   -1.875239
     51          1           0      -11.333094   -1.848371   -3.208926
     52          1           0       -9.784486   -1.227813   -2.401105
     53          1           0       -9.333645    1.073926   -0.739095
     54          1           0      -10.056855    0.206470    2.270029
     55          1           0      -11.511161    0.157668    3.414014
     56          1           0      -10.762814   -1.310063    2.371457
     57          1           0      -12.069129    2.208013    0.125386
     58          1           0      -12.307642    2.253390    1.919680
     59          1           0      -10.676146    2.120593    1.393313
     60          1           0      -11.547870   -2.608772    1.094583
     61          1           0       -9.111525   -1.648128    0.153771
     62          1           0       -5.962657   -1.990515   -0.829240
     63          1           0       -5.682404   -1.538824    1.003022
     64          1           0       -6.821393   -2.654886    0.748618
     65          1           0       -7.218944    1.694757    0.291104
     66          1           0       -4.463516    0.177846   -0.391883
     67          1           0       13.463645   -1.062309    2.299994
     68          1           0       12.100452   -1.995816    1.779188
     69          1           0       13.829439   -3.006489    0.399681
     70          1           0       12.778658   -2.552994   -1.709852
     71          1           0       11.442785   -2.641992   -0.464565
     72          1           0       11.894237    0.084767    3.487679
     73          1           0       10.573333    1.282317    2.590446
     74          1           0       10.227043   -0.413104    2.634177
     75          1           0       13.743130    0.971582    0.327377
     76          1           0       12.189882    1.941494    0.919715
     77          1           0       13.416887    1.333204    2.096259
     78          1           0       12.626326   -0.315234   -3.169038
     79          1           0       11.576754    0.890420   -2.386461
     80          1           0       13.268757    0.594162   -1.836280
     81          1           0       -5.355184    3.026154   -0.295987
     82          1           0        9.930011   -0.582621   -2.108687
     83          1           0       15.194433   -0.740982    0.464458
     84          1           0        8.686382    2.010599   -0.422932
     85          1           0       -2.598672    4.463517    0.217151
     86          1           0       -2.144905    3.926219   -1.819493
     87          1           0       -3.889571    4.488986   -1.317566
     88          1           0       -2.585101    0.589746   -0.110896
     89          1           0        6.674921   -1.825723   -0.125726
     90          1           0        8.533638   -1.465272   -0.121360
     91          1           0        7.851381   -1.556959    1.336116
     92          1           0        6.290662    1.912132   -0.053440
     93          1           0       -0.853118    3.143121   -0.176177
     94          1           0        4.641817   -0.993400    0.183682
     95          1           0       -0.260936    0.100572    0.212473
     96          1           0        4.037409    2.090805   -0.497274
     97          1           0        1.798520    2.316917   -0.432252
     98          1           0        1.345882   -1.194153    0.570639
     99          1           0        2.606942   -1.761568   -0.232348
    100          1           0        2.718707   -1.065427    1.439358
 ---------------------------------------------------------------------

 SCF Done:  E(RCAM-B3LYP) =  -1857.28383776     A.U. after   15 cycles

 Excitation energies and oscillator strengths:

 Excited State   1:      Singlet-A      2.1698 eV  571.40 nm  f=2.7338  <S**2>=0.000
     163 ->166         0.12940
     164 ->165         0.69623
 This state for optimization and/or second-order correction.
 Total Energy, E(TD-HF/TD-DFT) =  -1857.20409822
 Copying the excited state density for this state as the 1-particle RhoCI density.

 The electronic state is 1-A.
 Alpha  occ. eigenvalues --  -19.22711 -19.22027 -19.21851 -19.19870 -10.32481
 Alpha  occ. eigenvalues --  -10.31872 -10.31730 -10.31558 -10.31253 -10.29279
 Alpha  occ. eigenvalues --  -10.28568 -10.28082 -10.27861 -10.27824 -10.27759
 Alpha  occ. eigenvalues --  -10.27492 -10.27489 -10.27467 -10.27446 -10.27345
 Alpha  occ. eigenvalues --  -10.27332 -10.27321 -10.27206 -10.27131 -10.26992
 Alpha  occ. eigenvalues --  -10.26732 -10.26671 -10.26669 -10.26612 -10.26530
 Alpha  occ. eigenvalues --  -10.26208 -10.26120 -10.26018 -10.26007 -10.25803
 Alpha  occ. eigenvalues --  -10.25634 -10.25347 -10.25205 -10.25107 -10.25021
 Alpha  occ. eigenvalues --  -10.24754 -10.24311 -10.24269 -10.23700  -1.13072
 Alpha  occ. eigenvalues --   -1.11292  -1.09078  -1.06184  -0.93527  -0.92481
 Alpha  occ. eigenvalues --   -0.92022  -0.91668  -0.91072  -0.90384  -0.87560
 Alpha  occ. eigenvalues --   -0.87251  -0.86444  -0.86039  -0.85009  -0.83252
 Alpha  occ. eigenvalues --   -0.82358  -0.80962  -0.80579  -0.78988  -0.77009
 Alpha  occ. eigenvalues --   -0.76312  -0.76221  -0.76018  -0.75781  -0.75441
 Alpha  occ. eigenvalues --   -0.74911  -0.73739  -0.73152  -0.70006  -0.69670
 Alpha  occ. eigenvalues --   -0.68000  -0.66511  -0.65478  -0.64252  -0.63907
 Alpha  occ. eigenvalues --   -0.63597  -0.62406  -0.61039  -0.60426  -0.60072
 Alpha  occ. eigenvalues --   -0.59330  -0.58694  -0.58128  -0.56934  -0.56618
 Alpha  occ. eigenvalues --   -0.56301  -0.55034  -0.54891  -0.54560  -0.54366
 Alpha  occ. eigenvalues --   -0.53303  -0.52744  -0.52463  -0.52403  -0.51976
 Alpha  occ. eigenvalues --   -0.51618  -0.51322  -0.50904  -0.50056  -0.49986
 Alpha  occ. eigenvalues --   -0.49935  -0.49871  -0.49282  -0.48649  -0.48072
 Alpha  occ. eigenvalues --   -0.47980  -0.47783  -0.47612  -0.46951  -0.46703
 Alpha  occ. eigenvalues --   -0.46265  -0.45881  -0.45311  -0.45231  -0.44651
 Alpha  occ. eigenvalues --   -0.44603  -0.44333  -0.44298  -0.43993  -0.43962
 Alpha  occ. eigenvalues --   -0.43687  -0.43539  -0.43223  -0.42692  -0.42512
 Alpha  occ. eigenvalues --   -0.41924  -0.41587  -0.41401  -0.41164  -0.41001
 Alpha  occ. eigenvalues --   -0.40845  -0.40618  -0.40307  -0.39884  -0.39804
 Alpha  occ. eigenvalues --   -0.39502  -0.39418  -0.39352  -0.38665  -0.38460
 Alpha  occ. eigenvalues --   -0.38255  -0.37935  -0.37687  -0.37072  -0.36871
 Alpha  occ. eigenvalues --   -0.36364  -0.35880  -0.34782  -0.34004  -0.33348
 Alpha  occ. eigenvalues --   -0.32633  -0.32507  -0.32318  -0.31528  -0.30342
 Alpha  occ. eigenvalues --   -0.29229  -0.27672  -0.24645  -0.19907
 Alpha virt. eigenvalues --   -0.06122  -0.00765   0.02361   0.05822   0.06666
 Alpha virt. eigenvalues --    0.07578   0.08813   0.09135   0.10904   0.11603
 Alpha virt. eigenvalues --    0.11714   0.11976   0.12365   0.12870   0.13344

 Mulliken charges:
               1
     1  O   -0.522562
     2  O   -0.554509
     3  O   -0.540580
     4  O   -0.557051
     5  C    0.198738
     6  C    0.265533
     7  C    0.055993
     8  C   -0.213073
     9  C   -0.178288
    10  C    0.143426
    11  C   -0.363986
    12  C   -0.073054
    13  C   -0.295431
    14  C   -0.321951
    15  C   -0.066014
    16  C    0.040133
    17  C   -0.363784
    18  C   -0.120405
    19  C   -0.061741
    20  C   -0.000366
    21  C    0.237690
    22  C   -0.167881
    23  C    0.175257
    24  C   -0.193211
    25  C   -0.034293
    26  C   -0.293249
    27  C   -0.281706
    28  C   -0.282733
    29  C   -0.099060
    30  C    0.059518
    31  C    0.073083
    32  C   -0.279089
    33  C   -0.381071
    34  C   -0.093311
    35  C    0.160517
    36  C   -0.388189
    37  C   -0.114330
    38  C   -0.087669
    39  C   -0.105235
    40  C   -0.110016
    41  C   -0.139076
    42  C   -0.082366
    43  C    0.120077
    44  C   -0.384601
    45  H    0.103830
    46  H    0.120148
    47  H    0.110756
    48  H    0.102078
    49  H    0.096730
    50  H    0.106893
    51  H    0.120049
    52  H    0.092124
    53  H    0.089791
    54  H    0.113474
    55  H    0.065946
    56  H    0.092157
    57  H    0.132601
    58  H    0.087248
    59  H    0.093319
    60  H    0.297408
    61  H    0.056262
    62  H    0.128674
    63  H    0.131169
    64  H    0.107302
    65  H    0.102608
    66  H    0.096168
    67  H    0.047653
    68  H    0.105923
    69  H    0.063560
    70  H    0.114409
    71  H    0.113572
    72  H    0.084361
    73  H    0.124800
    74  H    0.093465
    75  H    0.123855
    76  H    0.080740
    77  H    0.093938
    78  H    0.107999
    79  H    0.075413
    80  H    0.110312
    81  H    0.071335
    82  H    0.289863
    83  H    0.317000
    84  H    0.108982
    85  H    0.135144
    86  H    0.097395
    87  H    0.082323
    88  H    0.081165
    89  H    0.108570
    90  H    0.129162
    91  H    0.122267
    92  H    0.088637
    93  H    0.111651
    94  H    0.102069
    95  H    0.096243
    96  H    0.093920
    97  H    0.069634
    98  H    0.115734
    99  H    0.081334
   100  H    0.130747
 Sum of Mulliken charges =  -0.00000

 Dipole moment (field-independent basis, Debye):
    X=              2.7642    Y=              0.3518    Z=              2.0778  Tot=              3.4759
 Quadrupole moment (field-independent basis, Debye-Ang):
   XX=           -285.8085   YY=           -264.8275   ZZ=           -279.5803
   XY=              2.5830   XZ=             29.8732   YZ=              1.2369

 Normal termination of Gaussian 16 at Wed Jul 31 08:07:17 2019.
