 Gaussian 16, Revision A.03,
 Gaussian 16:  ES64L-G16RevA.03 25-Dec-2016

 -------------------------------------
 # td=(NStates=1) CAM-B3LYP/6-31G(d,p)
 -------------------------------------

 --
 TD
 --
 Symbolic Z-matrix:
 Charge =  0 Multiplicity = 1

                         Standard orientation:
 ---------------------------------------------------------------------
 Center     Atomic      Atomic             Coordinates (Angstroms)
 Number     Number       Type             X           Y           Z
 ---------------------------------------------------------------------
      1          8           0      -11.726198    0.261941   -1.477721
      2          8           0      -13.091516   -2.545025    1.200263
      3          8           0       10.551571   -1.019740   -2.153077
      4          8           0       14.455122   -1.123008   -0.049381
      5          6           0      -11.027066   -0.112441   -0.255036
      6          6           0      -11.716321   -1.088205   -1.214672
      7          6           0      -11.796556    0.334291    1.026979
      8          6           0      -13.100702   -1.765365   -1.028977
      9          6           0      -13.321605   -0.064061    0.840998
     10          6           0      -13.587420   -1.541506    0.419433
     11          6           0      -10.822321   -1.946921   -2.126183
     12          6           0       -9.506212    0.096486   -0.429909
     13          6           0      -11.192279   -0.321440    2.250372
     14          6           0      -11.664084    1.913034    0.880871
     15          6           0       -8.587815   -0.691566    0.170231
     16          6           0       -7.209153   -0.616071    0.157299
     17          6           0       -6.371180   -1.689959    0.529748
     18          6           0       -6.671819    0.659332   -0.067845
     19          6           0       -5.227087    0.886661   -0.117884
     20          6           0       11.866242    0.032275    1.363649
     21          6           0       11.653562   -0.734952   -1.271440
     22          6           0       12.529212   -1.397097    1.438869
     23          6           0       13.278253   -1.905491    0.144379
     24          6           0       12.370791   -2.026803   -0.986194
     25          6           0       11.037544   -0.008407    0.115398
     26          6           0       10.968886    0.252078    2.525019
     27          6           0       12.975903    1.070267    1.196725
     28          6           0       12.506138    0.360657   -1.955250
     29          6           0       -4.693562    2.120591   -0.400668
     30          6           0        9.918304    0.602578    0.090220
     31          6           0       -3.314237    2.491864   -0.481053
     32          6           0        8.685520    1.063269   -0.019100
     33          6           0       -3.118480    3.975733   -0.698563
     34          6           0       -2.242020    1.592182   -0.196033
     35          6           0        7.510035    0.180239    0.069504
     36          6           0        7.799739   -1.250382    0.189274
     37          6           0        6.231231    0.804443   -0.135117
     38          6           0       -0.956656    1.870197   -0.257924
     39          6           0        5.056549    0.236544   -0.008353
     40          6           0        0.104969    0.925783   -0.025070
     41          6           0        3.867679    0.990394   -0.062202
     42          6           0        1.462391    1.354765   -0.144323
     43          6           0        2.582768    0.488349    0.105989
     44          6           0        2.300858   -0.923970    0.352804
     45          1           0      -13.091953   -2.656878   -1.210150
     46          1           0      -13.949262   -1.397733   -1.784354
     47          1           0      -13.751988    0.072078    1.952640
     48          1           0      -13.853622    0.654501    0.198031
     49          1           0      -14.763607   -1.832831    0.583815
     50          1           0      -10.951896   -3.035198   -1.742943
     51          1           0      -11.271423   -1.905117   -3.178722
     52          1           0       -9.643939   -1.636563   -2.117935
     53          1           0       -9.273758    0.938168   -1.141623
     54          1           0      -10.127540   -0.088994    2.445117
     55          1           0      -11.550210    0.156331    3.196918
     56          1           0      -11.372067   -1.339489    2.400301
     57          1           0      -11.950422    2.142870   -0.090504
     58          1           0      -12.436575    2.299541    1.538396
     59          1           0      -10.675810    2.289874    1.176880
     60          1           0      -12.221174   -2.681207    1.105938
     61          1           0       -9.073109   -1.437644    0.676683
     62          1           0       -5.618958   -2.099693   -0.380311
     63          1           0       -5.578740   -1.632110    1.291926
     64          1           0       -6.947884   -2.631602    0.623005
     65          1           0       -7.271867    1.580404   -0.448397
     66          1           0       -4.586472    0.168069    0.206250
     67          1           0       13.445977   -1.454095    2.122451
     68          1           0       11.734658   -2.053632    1.858823
     69          1           0       13.637530   -2.837337    0.555957
     70          1           0       12.943359   -2.461766   -1.964433
     71          1           0       11.567703   -2.760801   -0.694929
     72          1           0       11.636102    0.326050    3.507657
     73          1           0       10.366358    1.133600    2.403349
     74          1           0       10.354014   -0.521446    2.525168
     75          1           0       13.661929    0.819540    0.376958
     76          1           0       12.533985    2.138485    0.973253
     77          1           0       13.571848    1.533814    2.089015
     78          1           0       12.633610    0.080377   -3.031293
     79          1           0       12.217247    1.367676   -1.963420
     80          1           0       13.415976    0.524466   -1.602586
     81          1           0       -5.319207    2.737552   -0.291084
     82          1           0       10.146169   -0.121692   -2.537351
     83          1           0       15.101523   -1.249612    0.682121
     84          1           0        8.606151    2.091318   -0.405409
     85          1           0       -2.463670    4.633738   -0.154402
     86          1           0       -2.422277    4.257311   -1.613425
     87          1           0       -3.839752    4.472680   -0.970451
     88          1           0       -2.748373    0.548060   -0.141200
     89          1           0        6.815392   -1.829755    0.272495
     90          1           0        8.451836   -1.890297   -0.650611
     91          1           0        8.274461   -1.300288    1.206174
     92          1           0        6.270245    1.866314   -0.342157
     93          1           0       -0.716131    2.943164   -0.473828
     94          1           0        4.909107   -0.817376   -0.050125
     95          1           0       -0.233208   -0.007835    0.104069
     96          1           0        4.079623    2.035845   -0.179433
     97          1           0        1.583963    2.425293   -0.241348
     98          1           0        1.284211   -1.268530    0.567022
     99          1           0        2.652613   -1.730592   -0.507454
    100          1           0        2.817474   -1.454598    1.192996
 ---------------------------------------------------------------------

 SCF Done:  E(RCAM-B3LYP) =  -1857.25075177     A.U. after   16 cycles

 Excitation energies and oscillator strengths:

 Excited State   1:      Singlet-A      1.7613 eV  703.93 nm  f=3.1896  <S**2>=0.000
     163 ->166        -0.12520
     164 ->165         0.70382
     164 <-165        -0.13256
 This state for optimization and/or second-order correction.
 Total Energy, E(TD-HF/TD-DFT) =  -1857.18602441
 Copying the excited state density for this state as the 1-particle RhoCI density.

 The electronic state is 1-A.
 Alpha  occ. eigenvalues --  -19.22496 -19.22070 -19.21915 -19.20793 -10.33713
 Alpha  occ. eigenvalues --  -10.31794 -10.31750 -10.31682 -10.31575 -10.28325
 Alpha  occ. eigenvalues --  -10.28101 -10.27878 -10.27778 -10.27477 -10.27343
 Alpha  occ. eigenvalues --  -10.27208 -10.26974 -10.26901 -10.26834 -10.26784
 Alpha  occ. eigenvalues --  -10.26750 -10.26721 -10.26668 -10.26473 -10.26346
 Alpha  occ. eigenvalues --  -10.26340 -10.26280 -10.26224 -10.26157 -10.26143
 Alpha  occ. eigenvalues --  -10.25731 -10.25672 -10.25554 -10.25488 -10.25414
 Alpha  occ. eigenvalues --  -10.25138 -10.24849 -10.24457 -10.24452 -10.24199
 Alpha  occ. eigenvalues --  -10.24168 -10.23789 -10.23654 -10.23083  -1.15681
 Alpha  occ. eigenvalues --   -1.13001  -1.10448  -1.08019  -0.93452  -0.92870
 Alpha  occ. eigenvalues --   -0.92232  -0.91409  -0.90139  -0.89457  -0.87964
 Alpha  occ. eigenvalues --   -0.87367  -0.86024  -0.85756  -0.84218  -0.83054
 Alpha  occ. eigenvalues --   -0.82390  -0.80709  -0.79655  -0.79192  -0.77115
 Alpha  occ. eigenvalues --   -0.77107  -0.76556  -0.76490  -0.76208  -0.75477
 Alpha  occ. eigenvalues --   -0.75125  -0.74087  -0.72493  -0.70643  -0.70341
 Alpha  occ. eigenvalues --   -0.69054  -0.67671  -0.65976  -0.65070  -0.64148
 Alpha  occ. eigenvalues --   -0.63626  -0.62835  -0.61759  -0.61162  -0.60731
 Alpha  occ. eigenvalues --   -0.59219  -0.58908  -0.58197  -0.57462  -0.57162
 Alpha  occ. eigenvalues --   -0.55824  -0.55751  -0.54751  -0.54593  -0.54077
 Alpha  occ. eigenvalues --   -0.53588  -0.53515  -0.52900  -0.52717  -0.52682
 Alpha  occ. eigenvalues --   -0.52020  -0.51313  -0.50370  -0.50119  -0.49622
 Alpha  occ. eigenvalues --   -0.49365  -0.48759  -0.48584  -0.48416  -0.47857
 Alpha  occ. eigenvalues --   -0.47564  -0.47276  -0.47213  -0.46826  -0.46460
 Alpha  occ. eigenvalues --   -0.46247  -0.46021  -0.45926  -0.45340  -0.44863
 Alpha  occ. eigenvalues --   -0.44589  -0.44484  -0.44292  -0.44040  -0.44028
 Alpha  occ. eigenvalues --   -0.43553  -0.43195  -0.43088  -0.42724  -0.42669
 Alpha  occ. eigenvalues --   -0.42593  -0.42199  -0.42094  -0.41843  -0.41310
 Alpha  occ. eigenvalues --   -0.41220  -0.41070  -0.41024  -0.40435  -0.40325
 Alpha  occ. eigenvalues --   -0.40227  -0.39911  -0.39513  -0.39092  -0.38733
 Alpha  occ. eigenvalues --   -0.38434  -0.38281  -0.38220  -0.37833  -0.36907
 Alpha  occ. eigenvalues --   -0.36297  -0.35195  -0.34421  -0.34119  -0.33663
 Alpha  occ. eigenvalues --   -0.32602  -0.32041  -0.31414  -0.31008  -0.30524
 Alpha  occ. eigenvalues --   -0.30256  -0.27066  -0.23658  -0.17982
 Alpha virt. eigenvalues --   -0.07164  -0.01228   0.02758   0.06825   0.07577
 Alpha virt. eigenvalues --    0.09522   0.09797   0.10807   0.11326   0.11515
 Alpha virt. eigenvalues --    0.12538   0.12817   0.13286   0.13705   0.14279

 Mulliken charges:
               1
     1  O   -0.498394
     2  O   -0.510580
     3  O   -0.580969
     4  O   -0.551397
     5  C    0.153095
     6  C    0.256741
     7  C    0.038030
     8  C   -0.175410
     9  C   -0.195523
    10  C    0.158033
    11  C   -0.329955
    12  C   -0.112975
    13  C   -0.336781
    14  C   -0.328432
    15  C   -0.076533
    16  C    0.144443
    17  C   -0.401992
    18  C   -0.130344
    19  C   -0.068828
    20  C    0.030531
    21  C    0.291505
    22  C   -0.182100
    23  C    0.153436
    24  C   -0.182405
    25  C   -0.101459
    26  C   -0.296880
    27  C   -0.317825
    28  C   -0.342166
    29  C   -0.073451
    30  C    0.157816
    31  C    0.086929
    32  C   -0.271387
    33  C   -0.371359
    34  C   -0.097742
    35  C    0.099319
    36  C   -0.370208
    37  C   -0.097322
    38  C   -0.092177
    39  C   -0.061385
    40  C   -0.064320
    41  C   -0.133369
    42  C   -0.130176
    43  C    0.138935
    44  C   -0.393973
    45  H    0.099934
    46  H    0.094399
    47  H    0.080810
    48  H    0.115168
    49  H    0.071909
    50  H    0.082648
    51  H    0.109838
    52  H    0.107273
    53  H    0.104853
    54  H    0.110566
    55  H    0.099494
    56  H    0.107490
    57  H    0.141001
    58  H    0.097215
    59  H    0.106985
    60  H    0.287994
    61  H    0.073437
    62  H    0.090123
    63  H    0.137947
    64  H    0.111062
    65  H    0.089016
    66  H    0.074610
    67  H    0.059768
    68  H    0.091894
    69  H    0.091228
    70  H    0.102339
    71  H    0.125151
    72  H    0.078971
    73  H    0.115276
    74  H    0.109492
    75  H    0.139567
    76  H    0.069593
    77  H    0.081892
    78  H    0.099190
    79  H    0.107802
    80  H    0.142243
    81  H    0.049325
    82  H    0.320475
    83  H    0.317714
    84  H    0.102244
    85  H    0.125477
    86  H    0.085276
    87  H    0.114172
    88  H    0.070976
    89  H    0.094886
    90  H    0.137306
    91  H    0.120080
    92  H    0.078649
    93  H    0.079695
    94  H    0.086361
    95  H    0.080198
    96  H    0.076953
    97  H    0.088393
    98  H    0.119936
    99  H    0.094086
   100  H    0.118625
 Sum of Mulliken charges =  -0.00000

 Dipole moment (field-independent basis, Debye):
    X=              5.2248    Y=             -0.6634    Z=              1.3515  Tot=              5.4373
 Quadrupole moment (field-independent basis, Debye-Ang):
   XX=           -263.4771   YY=           -255.3153   ZZ=           -277.8635
   XY=             -5.7947   XZ=             13.2857   YZ=             -5.7346

 Normal termination of Gaussian 16 at Wed Jul 31 19:15:09 2019.
