 Gaussian 16, Revision A.03,
 Gaussian 16:  ES64L-G16RevA.03 25-Dec-2016

 -------------------------------------
 # td=(NStates=1) CAM-B3LYP/6-31G(d,p)
 -------------------------------------

 --
 TD
 --
 Symbolic Z-matrix:
 Charge =  0 Multiplicity = 1

                         Standard orientation:
 ---------------------------------------------------------------------
 Center     Atomic      Atomic             Coordinates (Angstroms)
 Number     Number       Type             X           Y           Z
 ---------------------------------------------------------------------
      1          8           0      -11.645516   -0.063971   -1.652521
      2          8           0      -13.222696   -2.261763    1.631553
      3          8           0       10.519684   -1.065502   -2.120432
      4          8           0       14.468646   -1.126897   -0.149056
      5          6           0      -11.066698   -0.186097   -0.345666
      6          6           0      -11.548221   -1.439048   -1.215579
      7          6           0      -11.868657    0.464557    0.729423
      8          6           0      -12.890729   -2.015484   -0.817267
      9          6           0      -13.304991    0.073181    0.607540
     10          6           0      -13.559738   -1.530164    0.490116
     11          6           0      -10.650567   -2.222791   -2.060137
     12          6           0       -9.565059    0.010483   -0.381795
     13          6           0      -11.197880    0.174657    1.972513
     14          6           0      -11.805787    2.081206    0.557878
     15          6           0       -8.626771   -0.744572    0.292695
     16          6           0       -7.195127   -0.531972    0.338904
     17          6           0       -6.284907   -1.718812    0.859903
     18          6           0       -6.562399    0.664879    0.038230
     19          6           0       -5.282686    0.991863   -0.056943
     20          6           0       11.988803    0.244558    1.299169
     21          6           0       11.661706   -0.656532   -1.291616
     22          6           0       12.677177   -1.111878    1.522932
     23          6           0       13.249220   -1.893235    0.317740
     24          6           0       12.320567   -2.024278   -0.761755
     25          6           0       11.173768    0.126135    0.014977
     26          6           0       11.002401    0.496832    2.484022
     27          6           0       13.023177    1.396468    1.094023
     28          6           0       12.536635    0.139094   -2.085335
     29          6           0       -4.709338    2.212467   -0.477764
     30          6           0        9.991311    0.531134   -0.060194
     31          6           0       -3.371048    2.636598   -0.422544
     32          6           0        8.680656    0.859261   -0.169006
     33          6           0       -3.076740    4.087709   -0.876355
     34          6           0       -2.304846    1.682610   -0.260898
     35          6           0        7.442321    0.081986    0.061131
     36          6           0        7.647120   -1.424615    0.340738
     37          6           0        6.268944    0.650495   -0.123960
     38          6           0       -0.964577    1.896532   -0.342199
     39          6           0        4.934482    0.017581    0.088384
     40          6           0        0.018087    0.963402   -0.135817
     41          6           0        3.760665    0.771082   -0.034637
     42          6           0        1.421799    1.202170   -0.117810
     43          6           0        2.429111    0.276769    0.101257
     44          6           0        2.205181   -1.124550    0.405034
     45          1           0      -12.913892   -3.141897   -0.844156
     46          1           0      -13.481845   -1.820968   -1.711644
     47          1           0      -13.762802    0.195854    1.717545
     48          1           0      -13.896757    0.528310   -0.170135
     49          1           0      -14.669079   -1.651351    0.626477
     50          1           0      -10.321407   -2.963823   -1.378148
     51          1           0      -10.983065   -2.467457   -3.037805
     52          1           0       -9.718574   -1.746683   -2.064680
     53          1           0       -9.189572    0.616778   -1.234512
     54          1           0      -10.197751    0.757626    2.192232
     55          1           0      -11.664847    0.462132    2.833244
     56          1           0      -10.892051   -0.932298    2.141684
     57          1           0      -12.008770    2.517955   -0.455142
     58          1           0      -12.436498    2.709985    1.335438
     59          1           0      -10.660845    2.444645    0.669371
     60          1           0      -12.087759   -2.272919    1.694336
     61          1           0       -8.833225   -1.672193    0.648528
     62          1           0       -5.498493   -2.065013   -0.024365
     63          1           0       -5.642703   -1.534742    1.701513
     64          1           0       -6.943161   -2.593229    0.983960
     65          1           0       -7.375818    1.358582   -0.151612
     66          1           0       -4.518155    0.362960    0.372537
     67          1           0       13.280513   -0.954190    2.444997
     68          1           0       12.030076   -1.832829    2.016960
     69          1           0       13.588447   -2.813478    0.549710
     70          1           0       12.898277   -2.517606   -1.496322
     71          1           0       11.328739   -2.657279   -0.541183
     72          1           0       11.624472    0.831611    3.236980
     73          1           0       10.180566    1.374844    2.190721
     74          1           0       10.505467   -0.374479    2.621878
     75          1           0       13.937182    1.129488    0.476287
     76          1           0       12.547468    2.468768    0.817371
     77          1           0       13.480342    1.400946    2.118317
     78          1           0       12.700327   -0.368335   -3.048217
     79          1           0       12.034035    1.277963   -2.155564
     80          1           0       13.502580    0.589559   -1.822095
     81          1           0       -5.314435    3.199801   -0.915690
     82          1           0       10.080255   -0.402570   -2.330773
     83          1           0       15.035161   -1.154586    0.635285
     84          1           0        8.609627    2.002613   -0.488252
     85          1           0       -2.717569    4.669029    0.140089
     86          1           0       -2.332791    3.848544   -1.592696
     87          1           0       -4.032228    4.546865   -1.369919
     88          1           0       -2.597948    0.663716   -0.126141
     89          1           0        6.704111   -1.940605    0.005395
     90          1           0        8.498983   -1.848467   -0.252993
     91          1           0        7.977541   -1.554444    1.363558
     92          1           0        6.121737    1.612540   -0.341038
     93          1           0       -0.803835    3.005975   -0.171762
     94          1           0        4.882767   -1.065373    0.175566
     95          1           0       -0.265964   -0.059148   -0.070668
     96          1           0        3.758423    1.822812   -0.281945
     97          1           0        1.707149    2.178560   -0.245957
     98          1           0        1.160825   -1.378820    0.435998
     99          1           0        2.321228   -1.870277   -0.340306
    100          1           0        2.726410   -1.436412    1.365404
 ---------------------------------------------------------------------

 SCF Done:  E(RCAM-B3LYP) =  -1857.29838153     A.U. after   15 cycles

 Excitation energies and oscillator strengths:

 Excited State   1:      Singlet-A      1.9832 eV  625.16 nm  f=2.8283  <S**2>=0.000
     163 ->166         0.12188
     164 ->165         0.70237
     164 <-165        -0.11591
 This state for optimization and/or second-order correction.
 Total Energy, E(TD-HF/TD-DFT) =  -1857.22549883
 Copying the excited state density for this state as the 1-particle RhoCI density.

 The electronic state is 1-A.
 Alpha  occ. eigenvalues --  -19.22446 -19.21561 -19.21437 -19.19968 -10.32930
 Alpha  occ. eigenvalues --  -10.32360 -10.32059 -10.31095 -10.31071 -10.28723
 Alpha  occ. eigenvalues --  -10.27893 -10.27855 -10.27789 -10.27620 -10.27592
 Alpha  occ. eigenvalues --  -10.27515 -10.27496 -10.27337 -10.26965 -10.26933
 Alpha  occ. eigenvalues --  -10.26926 -10.26908 -10.26598 -10.26471 -10.26441
 Alpha  occ. eigenvalues --  -10.26416 -10.26251 -10.26239 -10.26207 -10.26101
 Alpha  occ. eigenvalues --  -10.25989 -10.25892 -10.25791 -10.25734 -10.25692
 Alpha  occ. eigenvalues --  -10.25690 -10.25663 -10.25287 -10.25116 -10.25099
 Alpha  occ. eigenvalues --  -10.24910 -10.24868 -10.24757 -10.24087  -1.13957
 Alpha  occ. eigenvalues --   -1.11901  -1.08195  -1.07969  -0.93543  -0.92474
 Alpha  occ. eigenvalues --   -0.91940  -0.91490  -0.90444  -0.89889  -0.87685
 Alpha  occ. eigenvalues --   -0.87212  -0.86507  -0.86108  -0.84974  -0.83123
 Alpha  occ. eigenvalues --   -0.82072  -0.81098  -0.80246  -0.79379  -0.76788
 Alpha  occ. eigenvalues --   -0.76732  -0.76726  -0.76360  -0.75982  -0.75918
 Alpha  occ. eigenvalues --   -0.74641  -0.74025  -0.73280  -0.70365  -0.70063
 Alpha  occ. eigenvalues --   -0.68731  -0.67016  -0.65539  -0.65302  -0.63904
 Alpha  occ. eigenvalues --   -0.63200  -0.62194  -0.61511  -0.60657  -0.59514
 Alpha  occ. eigenvalues --   -0.59493  -0.58848  -0.58130  -0.57191  -0.56321
 Alpha  occ. eigenvalues --   -0.56166  -0.55872  -0.55333  -0.54822  -0.54773
 Alpha  occ. eigenvalues --   -0.53485  -0.53249  -0.52232  -0.52130  -0.52013
 Alpha  occ. eigenvalues --   -0.51837  -0.50951  -0.50715  -0.49976  -0.49894
 Alpha  occ. eigenvalues --   -0.49571  -0.49434  -0.49194  -0.48944  -0.48603
 Alpha  occ. eigenvalues --   -0.48308  -0.47990  -0.47427  -0.46980  -0.46821
 Alpha  occ. eigenvalues --   -0.46126  -0.45905  -0.45833  -0.45453  -0.44909
 Alpha  occ. eigenvalues --   -0.44611  -0.44449  -0.44159  -0.43876  -0.43675
 Alpha  occ. eigenvalues --   -0.43438  -0.43356  -0.42960  -0.42763  -0.42552
 Alpha  occ. eigenvalues --   -0.42431  -0.41924  -0.41551  -0.41404  -0.41250
 Alpha  occ. eigenvalues --   -0.41215  -0.40928  -0.40509  -0.40304  -0.40038
 Alpha  occ. eigenvalues --   -0.39673  -0.39486  -0.39316  -0.39224  -0.38733
 Alpha  occ. eigenvalues --   -0.38296  -0.38103  -0.38013  -0.37679  -0.36634
 Alpha  occ. eigenvalues --   -0.36111  -0.35592  -0.35388  -0.34443  -0.33970
 Alpha  occ. eigenvalues --   -0.32759  -0.32526  -0.32047  -0.31041  -0.30468
 Alpha  occ. eigenvalues --   -0.29669  -0.27585  -0.24135  -0.19137
 Alpha virt. eigenvalues --   -0.06703  -0.00670   0.03137   0.06511   0.07686
 Alpha virt. eigenvalues --    0.08580   0.09898   0.09929   0.11466   0.11804
 Alpha virt. eigenvalues --    0.12842   0.12918   0.13799   0.14195   0.14326

 Mulliken charges:
               1
     1  O   -0.518383
     2  O   -0.537530
     3  O   -0.530860
     4  O   -0.562385
     5  C    0.211672
     6  C    0.213018
     7  C    0.059633
     8  C   -0.209393
     9  C   -0.196530
    10  C    0.152680
    11  C   -0.326109
    12  C   -0.138781
    13  C   -0.303297
    14  C   -0.317677
    15  C   -0.065471
    16  C    0.056337
    17  C   -0.367952
    18  C   -0.082203
    19  C   -0.091232
    20  C    0.010514
    21  C    0.251648
    22  C   -0.216713
    23  C    0.160716
    24  C   -0.194661
    25  C   -0.133351
    26  C   -0.292273
    27  C   -0.303895
    28  C   -0.293077
    29  C   -0.098937
    30  C    0.204410
    31  C    0.049526
    32  C   -0.295224
    33  C   -0.355562
    34  C   -0.096651
    35  C    0.136183
    36  C   -0.378034
    37  C   -0.091994
    38  C   -0.087672
    39  C   -0.114929
    40  C   -0.091590
    41  C   -0.119273
    42  C   -0.124535
    43  C    0.147403
    44  C   -0.391163
    45  H    0.099173
    46  H    0.119466
    47  H    0.083545
    48  H    0.119979
    49  H    0.100023
    50  H    0.107284
    51  H    0.131125
    52  H    0.126613
    53  H    0.119419
    54  H    0.109734
    55  H    0.118268
    56  H    0.059262
    57  H    0.121126
    58  H    0.100108
    59  H    0.082334
    60  H    0.290074
    61  H    0.069183
    62  H    0.090328
    63  H    0.133001
    64  H    0.100787
    65  H    0.076341
    66  H    0.088115
    67  H    0.082031
    68  H    0.097744
    69  H    0.102513
    70  H    0.118512
    71  H    0.115591
    72  H    0.103027
    73  H    0.096878
    74  H    0.118431
    75  H    0.130244
    76  H    0.096695
    77  H    0.082319
    78  H    0.116452
    79  H    0.055852
    80  H    0.144029
    81  H    0.061052
    82  H    0.270948
    83  H    0.305207
    84  H    0.090226
    85  H    0.112202
    86  H    0.144863
    87  H    0.106862
    88  H    0.075658
    89  H    0.107798
    90  H    0.134535
    91  H    0.123423
    92  H    0.071403
    93  H    0.083239
    94  H    0.088613
    95  H    0.079155
    96  H    0.081256
    97  H    0.075249
    98  H    0.103912
    99  H    0.129923
   100  H    0.122471
 Sum of Mulliken charges =  -0.00000

 Dipole moment (field-independent basis, Debye):
    X=              4.4315    Y=             -0.9568    Z=              2.0336  Tot=              4.9688
 Quadrupole moment (field-independent basis, Debye-Ang):
   XX=           -273.3856   YY=           -258.2803   ZZ=           -276.6087
   XY=             -8.3669   XZ=             33.4021   YZ=             -3.0249

 Normal termination of Gaussian 16 at Mon Jul 29 14:55:44 2019.
