 Gaussian 16, Revision A.03,
 Gaussian 16:  ES64L-G16RevA.03 25-Dec-2016

 -------------------------------------
 # td=(NStates=1) CAM-B3LYP/6-31G(d,p)
 -------------------------------------

 --
 TD
 --
 Symbolic Z-matrix:
 Charge =  0 Multiplicity = 1

                         Standard orientation:
 ---------------------------------------------------------------------
 Center     Atomic      Atomic             Coordinates (Angstroms)
 Number     Number       Type             X           Y           Z
 ---------------------------------------------------------------------
      1          8           0      -11.829547   -0.023330   -1.687298
      2          8           0      -12.783849   -2.430078    1.593346
      3          8           0       10.683552   -1.219799   -2.028819
      4          8           0       14.564243   -0.999622   -0.068236
      5          6           0      -11.085933   -0.231075   -0.506029
      6          6           0      -11.660136   -1.311797   -1.144044
      7          6           0      -11.903777    0.410520    0.679111
      8          6           0      -13.065892   -1.920728   -0.749502
      9          6           0      -13.394514   -0.137176    0.816538
     10          6           0      -13.488270   -1.690042    0.615219
     11          6           0      -10.803092   -2.354822   -1.962039
     12          6           0       -9.618079    0.121665   -0.415048
     13          6           0      -11.145791    0.260976    2.007868
     14          6           0      -11.928591    1.984200    0.468456
     15          6           0       -8.732145   -0.627084    0.302562
     16          6           0       -7.242131   -0.469369    0.265937
     17          6           0       -6.450081   -1.680473    0.642650
     18          6           0       -6.641826    0.788958   -0.007881
     19          6           0       -5.255531    1.000511   -0.037672
     20          6           0       11.881717    0.072304    1.268457
     21          6           0       11.737308   -0.672152   -1.239737
     22          6           0       12.802349   -1.228149    1.633860
     23          6           0       13.463331   -1.837305    0.339476
     24          6           0       12.499668   -1.993188   -0.755485
     25          6           0       11.128205    0.049403    0.032465
     26          6           0       11.013867    0.438940    2.422412
     27          6           0       12.888625    1.233703    1.253923
     28          6           0       12.541325    0.197305   -2.020039
     29          6           0       -4.718631    2.225895   -0.154574
     30          6           0        9.892001    0.459853   -0.134404
     31          6           0       -3.313624    2.489878   -0.348460
     32          6           0        8.616317    0.894739   -0.305456
     33          6           0       -3.139844    4.054987   -0.598829
     34          6           0       -2.302448    1.633180   -0.233086
     35          6           0        7.418165    0.174638   -0.064873
     36          6           0        7.659054   -1.204140    0.390532
     37          6           0        6.261953    0.743937   -0.243997
     38          6           0       -0.975276    1.896447   -0.395186
     39          6           0        4.961525    0.155106   -0.112018
     40          6           0        0.077101    0.918278   -0.239287
     41          6           0        3.802263    0.838732   -0.309661
     42          6           0        1.404401    1.200399   -0.353807
     43          6           0        2.466702    0.401768   -0.036699
     44          6           0        2.301260   -1.049651    0.477134
     45          1           0      -13.134448   -3.017332   -0.961497
     46          1           0      -13.723724   -1.533617   -1.502135
     47          1           0      -13.739870    0.230439    1.647016
     48          1           0      -13.929899    0.456770    0.015973
     49          1           0      -14.502171   -2.084007    0.778489
     50          1           0      -10.089639   -3.060581   -1.251993
     51          1           0      -11.402567   -3.041200   -2.786133
     52          1           0       -9.981458   -1.620645   -2.576341
     53          1           0       -9.211331    0.796367   -1.247785
     54          1           0      -10.250264    0.923163    1.996065
     55          1           0      -11.599379    0.777258    2.844655
     56          1           0      -10.961639   -0.790750    2.678627
     57          1           0      -12.162057    2.478931   -0.537849
     58          1           0      -12.551890    2.413276    1.292287
     59          1           0      -10.734107    2.414548    0.850501
     60          1           0      -11.874163   -2.222598    1.443434
     61          1           0       -9.078264   -1.594084    0.719899
     62          1           0       -6.000229   -1.992494   -0.262066
     63          1           0       -5.666044   -1.551816    1.355611
     64          1           0       -6.899159   -2.607676    0.968448
     65          1           0       -7.324197    1.731310   -0.015516
     66          1           0       -4.532834    0.133381   -0.045268
     67          1           0       13.436210   -1.032939    2.497304
     68          1           0       12.089734   -1.955859    1.883613
     69          1           0       13.666997   -2.660197    0.761837
     70          1           0       12.886688   -2.271568   -1.650758
     71          1           0       11.847866   -2.821445   -0.602503
     72          1           0       11.676926    0.379650    3.326023
     73          1           0       10.463305    1.322354    2.453217
     74          1           0       10.051304   -0.153544    2.466434
     75          1           0       13.578460    0.935934    0.512340
     76          1           0       12.522456    2.298436    1.092253
     77          1           0       13.661901    1.235473    2.170811
     78          1           0       13.249702   -0.326409   -2.757748
     79          1           0       11.794454    0.996406   -2.491630
     80          1           0       13.360297    0.608387   -1.404985
     81          1           0       -5.324668    3.054483   -0.259915
     82          1           0        9.945421   -0.700329   -2.263193
     83          1           0       15.231014   -0.768550    0.647545
     84          1           0        8.548119    2.009773   -0.703906
     85          1           0       -2.543729    4.382572    0.274977
     86          1           0       -2.350953    4.110870   -1.373981
     87          1           0       -4.059170    4.673295   -0.851320
     88          1           0       -2.521560    0.729181    0.144672
     89          1           0        6.713256   -1.706394    0.700933
     90          1           0        8.021501   -1.883131   -0.393536
     91          1           0        8.227514   -1.501836    1.393671
     92          1           0        6.068576    1.757564   -0.722444
     93          1           0       -0.746439    2.944815   -0.684060
     94          1           0        4.892036   -0.951565    0.114343
     95          1           0       -0.374059    0.010114   -0.016682
     96          1           0        4.051079    1.857194   -0.730440
     97          1           0        1.650869    2.244475   -0.781055
     98          1           0        1.289671   -1.157837    0.782610
     99          1           0        2.696777   -1.882210   -0.196698
    100          1           0        2.863426   -1.068216    1.293180
 ---------------------------------------------------------------------

 SCF Done:  E(RCAM-B3LYP) =  -1857.32524440     A.U. after   15 cycles

 Excitation energies and oscillator strengths:

 Excited State   1:      Singlet-A      2.2811 eV  543.53 nm  f=3.1868  <S**2>=0.000
     163 ->166         0.13647
     164 ->165         0.69265
 This state for optimization and/or second-order correction.
 Total Energy, E(TD-HF/TD-DFT) =  -1857.24141586
 Copying the excited state density for this state as the 1-particle RhoCI density.

 The electronic state is 1-A.
 Alpha  occ. eigenvalues --  -19.22882 -19.22145 -19.21238 -19.19094 -10.32742
 Alpha  occ. eigenvalues --  -10.32250 -10.31430 -10.30472 -10.30055 -10.29848
 Alpha  occ. eigenvalues --  -10.29077 -10.28813 -10.27910 -10.27847 -10.27705
 Alpha  occ. eigenvalues --  -10.27591 -10.27499 -10.27462 -10.27322 -10.27110
 Alpha  occ. eigenvalues --  -10.26795 -10.26765 -10.26734 -10.26672 -10.26594
 Alpha  occ. eigenvalues --  -10.26392 -10.26338 -10.26216 -10.26126 -10.25984
 Alpha  occ. eigenvalues --  -10.25895 -10.25870 -10.25816 -10.25780 -10.25499
 Alpha  occ. eigenvalues --  -10.25490 -10.25280 -10.24757 -10.24532 -10.24382
 Alpha  occ. eigenvalues --  -10.24256 -10.24256 -10.23935 -10.23313  -1.18206
 Alpha  occ. eigenvalues --   -1.10572  -1.09004  -1.08516  -0.93161  -0.92772
 Alpha  occ. eigenvalues --   -0.92222  -0.91250  -0.90584  -0.89785  -0.87597
 Alpha  occ. eigenvalues --   -0.87112  -0.86500  -0.85618  -0.84812  -0.83743
 Alpha  occ. eigenvalues --   -0.82480  -0.80815  -0.79684  -0.79228  -0.76714
 Alpha  occ. eigenvalues --   -0.76666  -0.76474  -0.76284  -0.75653  -0.74994
 Alpha  occ. eigenvalues --   -0.74732  -0.73891  -0.73738  -0.70833  -0.70045
 Alpha  occ. eigenvalues --   -0.69177  -0.67607  -0.66013  -0.65429  -0.64670
 Alpha  occ. eigenvalues --   -0.64221  -0.62775  -0.61459  -0.60341  -0.60176
 Alpha  occ. eigenvalues --   -0.59802  -0.58926  -0.58609  -0.58002  -0.57477
 Alpha  occ. eigenvalues --   -0.56128  -0.55657  -0.54734  -0.54541  -0.54104
 Alpha  occ. eigenvalues --   -0.54017  -0.52836  -0.52561  -0.52057  -0.51501
 Alpha  occ. eigenvalues --   -0.51175  -0.51074  -0.50110  -0.49756  -0.49683
 Alpha  occ. eigenvalues --   -0.49609  -0.49216  -0.48841  -0.48545  -0.48434
 Alpha  occ. eigenvalues --   -0.48158  -0.47780  -0.47596  -0.47322  -0.46474
 Alpha  occ. eigenvalues --   -0.46254  -0.46130  -0.45776  -0.45612  -0.45292
 Alpha  occ. eigenvalues --   -0.45110  -0.44824  -0.44450  -0.44099  -0.43622
 Alpha  occ. eigenvalues --   -0.43442  -0.43136  -0.42812  -0.42662  -0.42339
 Alpha  occ. eigenvalues --   -0.41969  -0.41956  -0.41753  -0.41470  -0.40995
 Alpha  occ. eigenvalues --   -0.40802  -0.40628  -0.40117  -0.39815  -0.39766
 Alpha  occ. eigenvalues --   -0.39373  -0.39300  -0.38991  -0.38804  -0.38499
 Alpha  occ. eigenvalues --   -0.38335  -0.38092  -0.37960  -0.37670  -0.37061
 Alpha  occ. eigenvalues --   -0.35999  -0.35492  -0.35036  -0.34778  -0.34060
 Alpha  occ. eigenvalues --   -0.32825  -0.32553  -0.32259  -0.31868  -0.31410
 Alpha  occ. eigenvalues --   -0.28989  -0.27765  -0.24784  -0.19860
 Alpha virt. eigenvalues --   -0.05786  -0.00769   0.03035   0.06796   0.07139
 Alpha virt. eigenvalues --    0.10032   0.10367   0.10654   0.11711   0.12755
 Alpha virt. eigenvalues --    0.13145   0.13384   0.13482   0.13717   0.13863

 Mulliken charges:
               1
     1  O   -0.486432
     2  O   -0.537348
     3  O   -0.588466
     4  O   -0.569163
     5  C    0.258005
     6  C    0.209288
     7  C    0.005897
     8  C   -0.201159
     9  C   -0.176743
    10  C    0.147306
    11  C   -0.315204
    12  C   -0.131552
    13  C   -0.325851
    14  C   -0.302149
    15  C   -0.074266
    16  C    0.066681
    17  C   -0.392328
    18  C   -0.131353
    19  C   -0.056401
    20  C    0.013023
    21  C    0.265422
    22  C   -0.230107
    23  C    0.199877
    24  C   -0.198212
    25  C   -0.079613
    26  C   -0.293789
    27  C   -0.291092
    28  C   -0.276291
    29  C   -0.100578
    30  C    0.156308
    31  C    0.072447
    32  C   -0.298620
    33  C   -0.387041
    34  C   -0.087533
    35  C    0.167248
    36  C   -0.389518
    37  C   -0.115828
    38  C   -0.091922
    39  C   -0.090770
    40  C   -0.092141
    41  C   -0.113376
    42  C   -0.108935
    43  C    0.078091
    44  C   -0.360864
    45  H    0.096720
    46  H    0.131605
    47  H    0.099227
    48  H    0.103094
    49  H    0.097474
    50  H    0.093468
    51  H    0.105006
    52  H    0.093605
    53  H    0.116830
    54  H    0.114033
    55  H    0.105253
    56  H    0.076633
    57  H    0.125638
    58  H    0.110612
    59  H    0.052417
    60  H    0.297342
    61  H    0.081471
    62  H    0.138027
    63  H    0.130458
    64  H    0.116042
    65  H    0.094322
    66  H    0.089610
    67  H    0.096829
    68  H    0.105001
    69  H    0.092941
    70  H    0.123743
    71  H    0.118662
    72  H    0.082291
    73  H    0.116170
    74  H    0.080120
    75  H    0.116896
    76  H    0.098187
    77  H    0.056029
    78  H    0.100759
    79  H    0.080927
    80  H    0.128281
    81  H    0.074839
    82  H    0.296776
    83  H    0.313258
    84  H    0.097886
    85  H    0.132793
    86  H    0.119906
    87  H    0.116118
    88  H    0.067985
    89  H    0.098460
    90  H    0.135973
    91  H    0.112749
    92  H    0.079206
    93  H    0.069741
    94  H    0.077105
    95  H    0.079828
    96  H    0.071360
    97  H    0.083250
    98  H    0.108342
    99  H    0.117358
   100  H    0.136397
 Sum of Mulliken charges =  -0.00000

 Dipole moment (field-independent basis, Debye):
    X=              1.1502    Y=             -0.4443    Z=              1.7322  Tot=              2.1262
 Quadrupole moment (field-independent basis, Debye-Ang):
   XX=           -267.2586   YY=           -259.5225   ZZ=           -279.1317
   XY=            -10.2607   XZ=             29.1570   YZ=             -3.2580

 Normal termination of Gaussian 16 at Mon Jul 29 05:28:29 2019.
