 Gaussian 16, Revision A.03,
 Gaussian 16:  ES64L-G16RevA.03 25-Dec-2016

 -------------------------------------
 # td=(NStates=1) CAM-B3LYP/6-31G(d,p)
 -------------------------------------

 --
 TD
 --
 Symbolic Z-matrix:
 Charge =  0 Multiplicity = 1

                         Standard orientation:
 ---------------------------------------------------------------------
 Center     Atomic      Atomic             Coordinates (Angstroms)
 Number     Number       Type             X           Y           Z
 ---------------------------------------------------------------------
      1          8           0      -11.745093   -0.032768   -1.694411
      2          8           0      -12.987855   -2.213704    1.680719
      3          8           0       10.452180   -1.372580   -1.800880
      4          8           0       14.513414   -1.147855   -0.183399
      5          6           0      -10.954245   -0.194849   -0.465448
      6          6           0      -11.646806   -1.346405   -1.089286
      7          6           0      -11.832355    0.545122    0.697169
      8          6           0      -13.027151   -1.831109   -0.833885
      9          6           0      -13.278366    0.129697    0.728794
     10          6           0      -13.612704   -1.387166    0.564073
     11          6           0      -10.886845   -2.391592   -1.898857
     12          6           0       -9.597380   -0.017439   -0.552273
     13          6           0      -11.099664    0.249477    2.099199
     14          6           0      -11.762784    2.022198    0.510943
     15          6           0       -8.664465   -0.727422    0.234795
     16          6           0       -7.285489   -0.596761    0.226991
     17          6           0       -6.410687   -1.781299    0.779729
     18          6           0       -6.659820    0.556284    0.066415
     19          6           0       -5.234381    0.808566   -0.200416
     20          6           0       12.093988    0.170624    1.072316
     21          6           0       11.642357   -0.917457   -1.273809
     22          6           0       12.776222   -1.052552    1.491309
     23          6           0       13.413008   -1.859801    0.318703
     24          6           0       12.370985   -2.076835   -0.825268
     25          6           0       11.101356   -0.071618   -0.017965
     26          6           0       11.294435    0.743479    2.377787
     27          6           0       13.059619    1.437357    0.790458
     28          6           0       12.402055   -0.099927   -2.257717
     29          6           0       -4.728466    2.108296   -0.506970
     30          6           0        9.907937    0.521039   -0.059326
     31          6           0       -3.404841    2.444108   -0.479579
     32          6           0        8.694751    0.944235   -0.198368
     33          6           0       -2.978273    3.759327   -1.098030
     34          6           0       -2.313146    1.657953   -0.145431
     35          6           0        7.516756    0.231031    0.134374
     36          6           0        7.683249   -1.097162    0.852182
     37          6           0        6.235130    0.795546   -0.118380
     38          6           0       -1.002356    1.890661   -0.363589
     39          6           0        4.969527    0.252478    0.164695
     40          6           0       -0.018593    1.023357    0.056959
     41          6           0        3.778909    0.905122   -0.043174
     42          6           0        1.391651    1.244066   -0.108826
     43          6           0        2.344339    0.365756    0.138347
     44          6           0        2.284845   -1.064144    0.636482
     45          1           0      -13.138590   -2.878982   -0.953969
     46          1           0      -13.756707   -1.305021   -1.527653
     47          1           0      -13.785020    0.522047    1.602603
     48          1           0      -13.648747    0.621132   -0.190150
     49          1           0      -14.585086   -1.749647    0.715568
     50          1           0      -10.609814   -3.228161   -1.408894
     51          1           0      -11.681380   -2.422180   -2.625781
     52          1           0       -9.942189   -1.894008   -2.320023
     53          1           0       -9.245178    0.705721   -1.185860
     54          1           0      -10.260489    0.894006    2.215975
     55          1           0      -11.879307    0.555331    2.826133
     56          1           0      -10.775287   -0.842967    2.224774
     57          1           0      -12.189393    2.153089   -0.573449
     58          1           0      -12.388700    2.578695    1.127972
     59          1           0      -10.717942    2.304808    0.442585
     60          1           0      -12.175141   -2.607445    1.331313
     61          1           0       -9.158808   -1.493535    0.897730
     62          1           0       -6.108387   -2.522368    0.069121
     63          1           0       -5.721150   -1.310338    1.391511
     64          1           0       -7.160903   -2.404302    1.530195
     65          1           0       -7.406793    1.195827   -0.312540
     66          1           0       -4.599630   -0.010211   -0.027230
     67          1           0       13.715699   -0.611331    2.067946
     68          1           0       12.181398   -1.560970    2.240756
     69          1           0       13.901822   -2.720436    0.604764
     70          1           0       12.951917   -2.512869   -1.752116
     71          1           0       11.586810   -2.832067   -0.629125
     72          1           0       12.079260    1.586434    2.969916
     73          1           0       10.653689    1.647921    1.971755
     74          1           0       10.629312    0.043623    3.051145
     75          1           0       13.810543    1.191566   -0.007666
     76          1           0       12.457132    2.319316    0.542182
     77          1           0       13.814703    1.861197    1.627099
     78          1           0       12.510007   -0.761314   -3.069018
     79          1           0       11.733216    0.630317   -2.437384
     80          1           0       13.343679    0.233523   -1.849315
     81          1           0       -5.687833    2.765933   -0.600466
     82          1           0        9.819216   -0.721630   -2.223800
     83          1           0       15.274645   -1.258025    0.438114
     84          1           0        8.509759    1.769287   -0.694141
     85          1           0       -2.137201    4.536283   -0.656422
     86          1           0       -2.553112    3.515936   -2.123557
     87          1           0       -3.979657    4.255545   -1.002429
     88          1           0       -2.703215    0.734976    0.310100
     89          1           0        6.891432   -1.567283    0.898906
     90          1           0        8.260464   -1.834291    0.083782
     91          1           0        8.012158   -0.885597    1.887813
     92          1           0        6.355603    1.809186   -0.578647
     93          1           0       -0.736573    2.702018   -0.900652
     94          1           0        4.851965   -0.704123    0.670981
     95          1           0       -0.252422    0.046647    0.429401
     96          1           0        3.896627    2.023303   -0.344350
     97          1           0        1.640479    2.219980   -0.598058
     98          1           0        1.381325   -1.311449    0.767435
     99          1           0        2.695788   -1.701301   -0.203761
    100          1           0        2.791012   -1.389971    1.411925
 ---------------------------------------------------------------------

 SCF Done:  E(RCAM-B3LYP) =  -1857.28481046     A.U. after   15 cycles

 Excitation energies and oscillator strengths:

 Excited State   1:      Singlet-A      2.2633 eV  547.81 nm  f=2.9720  <S**2>=0.000
     163 ->166         0.13792
     164 ->165         0.69151
 This state for optimization and/or second-order correction.
 Total Energy, E(TD-HF/TD-DFT) =  -1857.20163752
 Copying the excited state density for this state as the 1-particle RhoCI density.

 The electronic state is 1-A.
 Alpha  occ. eigenvalues --  -19.21929 -19.21531 -19.20497 -19.19881 -10.31833
 Alpha  occ. eigenvalues --  -10.31440 -10.31083 -10.31019 -10.30774 -10.28483
 Alpha  occ. eigenvalues --  -10.28160 -10.27876 -10.27733 -10.27590 -10.27405
 Alpha  occ. eigenvalues --  -10.27246 -10.27240 -10.27238 -10.26893 -10.26859
 Alpha  occ. eigenvalues --  -10.26780 -10.26738 -10.26596 -10.26591 -10.26563
 Alpha  occ. eigenvalues --  -10.26389 -10.26331 -10.26321 -10.26115 -10.26098
 Alpha  occ. eigenvalues --  -10.25751 -10.25735 -10.25558 -10.25533 -10.25482
 Alpha  occ. eigenvalues --  -10.25406 -10.25168 -10.24941 -10.24867 -10.24393
 Alpha  occ. eigenvalues --  -10.24276 -10.23989 -10.23886 -10.22290  -1.13879
 Alpha  occ. eigenvalues --   -1.10925  -1.10277  -1.05829  -0.93131  -0.92567
 Alpha  occ. eigenvalues --   -0.92414  -0.91452  -0.90762  -0.90122  -0.87767
 Alpha  occ. eigenvalues --   -0.87293  -0.86524  -0.85987  -0.85298  -0.82888
 Alpha  occ. eigenvalues --   -0.82186  -0.81116  -0.80743  -0.80013  -0.77914
 Alpha  occ. eigenvalues --   -0.76670  -0.76386  -0.75875  -0.75698  -0.75024
 Alpha  occ. eigenvalues --   -0.74847  -0.73712  -0.72572  -0.71052  -0.70430
 Alpha  occ. eigenvalues --   -0.69292  -0.67320  -0.66366  -0.64948  -0.64275
 Alpha  occ. eigenvalues --   -0.63685  -0.62297  -0.61464  -0.60271  -0.59622
 Alpha  occ. eigenvalues --   -0.59078  -0.58587  -0.58330  -0.58261  -0.56912
 Alpha  occ. eigenvalues --   -0.56668  -0.56468  -0.55324  -0.54749  -0.53537
 Alpha  occ. eigenvalues --   -0.53179  -0.53043  -0.52898  -0.52508  -0.52179
 Alpha  occ. eigenvalues --   -0.51824  -0.51486  -0.50574  -0.50361  -0.50325
 Alpha  occ. eigenvalues --   -0.50041  -0.49895  -0.49453  -0.49144  -0.48805
 Alpha  occ. eigenvalues --   -0.48664  -0.48440  -0.47877  -0.47532  -0.47341
 Alpha  occ. eigenvalues --   -0.47135  -0.46885  -0.46679  -0.46555  -0.45197
 Alpha  occ. eigenvalues --   -0.44982  -0.44480  -0.44249  -0.43989  -0.43863
 Alpha  occ. eigenvalues --   -0.43770  -0.43105  -0.43025  -0.42518  -0.42391
 Alpha  occ. eigenvalues --   -0.42149  -0.41755  -0.41685  -0.41435  -0.40311
 Alpha  occ. eigenvalues --   -0.40151  -0.40121  -0.39875  -0.39841  -0.39698
 Alpha  occ. eigenvalues --   -0.39495  -0.39349  -0.38957  -0.38375  -0.38228
 Alpha  occ. eigenvalues --   -0.37927  -0.37432  -0.37136  -0.36721  -0.36489
 Alpha  occ. eigenvalues --   -0.36136  -0.36028  -0.35208  -0.35038  -0.33925
 Alpha  occ. eigenvalues --   -0.32554  -0.32158  -0.31605  -0.31367  -0.30681
 Alpha  occ. eigenvalues --   -0.29371  -0.27945  -0.24085  -0.20320
 Alpha virt. eigenvalues --   -0.06040  -0.01039   0.02105   0.06058   0.06681
 Alpha virt. eigenvalues --    0.09641   0.10147   0.10412   0.12185   0.12204
 Alpha virt. eigenvalues --    0.12695   0.13436   0.13736   0.13966   0.14303

 Mulliken charges:
               1
     1  O   -0.522017
     2  O   -0.579463
     3  O   -0.582372
     4  O   -0.552659
     5  C    0.235067
     6  C    0.203783
     7  C    0.028180
     8  C   -0.247412
     9  C   -0.188235
    10  C    0.154505
    11  C   -0.314837
    12  C   -0.129505
    13  C   -0.287159
    14  C   -0.305690
    15  C   -0.088090
    16  C    0.080715
    17  C   -0.365225
    18  C   -0.116485
    19  C   -0.086462
    20  C    0.031628
    21  C    0.275452
    22  C   -0.170550
    23  C    0.152787
    24  C   -0.195485
    25  C   -0.056198
    26  C   -0.306664
    27  C   -0.315059
    28  C   -0.277571
    29  C   -0.120798
    30  C    0.148445
    31  C    0.077137
    32  C   -0.276040
    33  C   -0.364138
    34  C   -0.085638
    35  C    0.096519
    36  C   -0.342159
    37  C   -0.123123
    38  C   -0.057632
    39  C   -0.084636
    40  C   -0.087541
    41  C   -0.128913
    42  C   -0.124594
    43  C    0.098665
    44  C   -0.354614
    45  H    0.106545
    46  H    0.131212
    47  H    0.103598
    48  H    0.108823
    49  H    0.108547
    50  H    0.114732
    51  H    0.125181
    52  H    0.109352
    53  H    0.109168
    54  H    0.103368
    55  H    0.096205
    56  H    0.081517
    57  H    0.101538
    58  H    0.113105
    59  H    0.101303
    60  H    0.297422
    61  H    0.080133
    62  H    0.131182
    63  H    0.134384
    64  H    0.075751
    65  H    0.068557
    66  H    0.089660
    67  H    0.069910
    68  H    0.105682
    69  H    0.081735
    70  H    0.089755
    71  H    0.124557
    72  H    0.064082
    73  H    0.098852
    74  H    0.097691
    75  H    0.119497
    76  H    0.105637
    77  H    0.079674
    78  H    0.110596
    79  H    0.089680
    80  H    0.133070
    81  H    0.098492
    82  H    0.313408
    83  H    0.312576
    84  H    0.090974
    85  H    0.095149
    86  H    0.123569
    87  H    0.100415
    88  H    0.061381
    89  H    0.110855
    90  H    0.112218
    91  H    0.122081
    92  H    0.074512
    93  H    0.081859
    94  H    0.083495
    95  H    0.082810
    96  H    0.072538
    97  H    0.086891
    98  H    0.111855
    99  H    0.121124
   100  H    0.136174
 Sum of Mulliken charges =  -0.00000

 Dipole moment (field-independent basis, Debye):
    X=              4.0796    Y=             -1.5390    Z=              0.2511  Tot=              4.3675
 Quadrupole moment (field-independent basis, Debye-Ang):
   XX=           -260.3481   YY=           -260.7768   ZZ=           -280.4861
   XY=             -1.5321   XZ=             22.2108   YZ=             -3.4914

 Normal termination of Gaussian 16 at Fri Aug  2 03:32:10 2019.
