 Gaussian 16, Revision A.03,
 Gaussian 16:  ES64L-G16RevA.03 25-Dec-2016

 -------------------------------------
 # td=(NStates=1) CAM-B3LYP/6-31G(d,p)
 -------------------------------------

 --
 TD
 --
 Symbolic Z-matrix:
 Charge =  0 Multiplicity = 1

                         Standard orientation:
 ---------------------------------------------------------------------
 Center     Atomic      Atomic             Coordinates (Angstroms)
 Number     Number       Type             X           Y           Z
 ---------------------------------------------------------------------
      1          8           0      -11.606716   -0.067249   -1.718270
      2          8           0      -13.308869   -2.032918    1.772638
      3          8           0       10.546159   -1.327840   -2.072237
      4          8           0       14.619634   -0.773531   -0.145998
      5          6           0      -11.029057   -0.226965   -0.450892
      6          6           0      -11.643721   -1.363961   -1.206258
      7          6           0      -11.774676    0.523012    0.606182
      8          6           0      -12.921981   -1.999174   -0.792022
      9          6           0      -13.261784    0.125648    0.653655
     10          6           0      -13.609244   -1.362997    0.528744
     11          6           0      -10.784411   -2.371463   -1.961533
     12          6           0       -9.540754    0.044826   -0.430842
     13          6           0      -11.248187    0.212767    2.140551
     14          6           0      -11.678608    2.028204    0.425266
     15          6           0       -8.630832   -0.790767    0.118916
     16          6           0       -7.219458   -0.555830    0.403998
     17          6           0       -6.322056   -1.611905    0.883196
     18          6           0       -6.568792    0.606174   -0.157759
     19          6           0       -5.181845    0.886232    0.047020
     20          6           0       11.892027    0.136551    1.298944
     21          6           0       11.745002   -0.741911   -1.267443
     22          6           0       12.797688   -1.082808    1.546767
     23          6           0       13.574356   -1.625074    0.294604
     24          6           0       12.570571   -1.821669   -0.825559
     25          6           0       11.086113   -0.020670   -0.025581
     26          6           0       10.913548    0.176338    2.566164
     27          6           0       12.755288    1.387805    1.232306
     28          6           0       12.341013    0.385684   -2.015939
     29          6           0       -4.711135    2.186920   -0.325914
     30          6           0        9.866507    0.432387   -0.071157
     31          6           0       -3.346752    2.513428   -0.465666
     32          6           0        8.694035    0.809927   -0.197882
     33          6           0       -2.987251    3.895602   -0.997077
     34          6           0       -2.282067    1.616004   -0.162948
     35          6           0        7.470225    0.092430   -0.012956
     36          6           0        7.567816   -1.349786    0.130228
     37          6           0        6.245282    0.619854   -0.070931
     38          6           0       -0.893035    1.894803   -0.324616
     39          6           0        4.957136    0.161078    0.121702
     40          6           0        0.060661    0.972093   -0.046480
     41          6           0        3.777176    0.824114    0.032817
     42          6           0        1.390623    1.244830   -0.152205
     43          6           0        2.409164    0.349980    0.145535
     44          6           0        2.244496   -1.191775    0.336595
     45          1           0      -12.854540   -3.052573   -0.628106
     46          1           0      -13.540803   -1.863676   -1.765176
     47          1           0      -13.547283    0.500256    1.656011
     48          1           0      -13.889572    0.673443   -0.101010
     49          1           0      -14.589568   -1.575551    0.314485
     50          1           0      -10.363691   -3.289619   -1.340196
     51          1           0      -11.303620   -2.789348   -2.966404
     52          1           0       -9.921140   -1.965108   -2.357181
     53          1           0       -9.350584    0.974828   -1.092185
     54          1           0      -10.171301    0.223990    2.016798
     55          1           0      -11.819461    0.957623    2.744535
     56          1           0      -11.326155   -0.831951    2.503743
     57          1           0      -11.917445    2.202160   -0.642106
     58          1           0      -12.500497    2.500141    1.101089
     59          1           0      -10.806065    2.517428    0.615047
     60          1           0      -12.241163   -2.359431    1.491268
     61          1           0       -8.945505   -1.692917    0.808292
     62          1           0       -5.589471   -2.065875    0.112092
     63          1           0       -5.998752   -1.280157    1.877025
     64          1           0       -6.770955   -2.508881    1.252194
     65          1           0       -7.308566    1.351411   -0.294509
     66          1           0       -4.335172    0.027412    0.467288
     67          1           0       13.566110   -0.793778    2.353137
     68          1           0       12.051683   -2.036308    1.775659
     69          1           0       13.895116   -2.759722    0.697073
     70          1           0       12.952788   -2.480146   -1.750037
     71          1           0       11.815280   -2.568794   -0.509673
     72          1           0       11.466803    0.312090    3.378274
     73          1           0       10.236731    0.976679    2.237062
     74          1           0       10.286356   -0.845479    2.344800
     75          1           0       13.250915    1.379752    0.170459
     76          1           0       12.228418    2.146876    1.346398
     77          1           0       13.605158    1.165862    1.900703
     78          1           0       12.880403   -0.198039   -2.916325
     79          1           0       11.639901    1.053946   -2.621985
     80          1           0       13.256660    1.062179   -1.509010
     81          1           0       -5.503609    2.905312   -0.505105
     82          1           0        9.856435   -0.792136   -2.411600
     83          1           0       15.134407   -0.722861    0.651870
     84          1           0        8.572648    1.802820   -0.239842
     85          1           0       -2.625058    4.502923   -0.096022
     86          1           0       -2.138185    3.861055   -1.753955
     87          1           0       -3.846686    4.441629   -1.370897
     88          1           0       -2.574426    0.593497    0.113443
     89          1           0        6.690752   -2.077593   -0.007648
     90          1           0        8.399815   -1.754564   -0.438678
     91          1           0        8.073215   -1.587659    1.114749
     92          1           0        6.347116    1.915065   -0.395225
     93          1           0       -0.680480    2.903706   -0.323536
     94          1           0        4.738278   -0.907728    0.222745
     95          1           0       -0.354555   -0.109881    0.196914
     96          1           0        3.719311    1.857653   -0.102946
     97          1           0        1.591960    2.285826   -0.384702
     98          1           0        1.114957   -1.360159    0.047423
     99          1           0        2.760476   -1.763628   -0.425373
    100          1           0        2.342458   -1.509278    1.440604
 ---------------------------------------------------------------------

 SCF Done:  E(RCAM-B3LYP) =  -1857.26831749     A.U. after   15 cycles

 Excitation energies and oscillator strengths:

 Excited State   1:      Singlet-A      2.0620 eV  601.29 nm  f=2.7828  <S**2>=0.000
     163 ->166        -0.13054
     164 ->165         0.69735
     164 <-165        -0.10118
 This state for optimization and/or second-order correction.
 Total Energy, E(TD-HF/TD-DFT) =  -1857.19254172
 Copying the excited state density for this state as the 1-particle RhoCI density.

 The electronic state is 1-A.
 Alpha  occ. eigenvalues --  -19.23496 -19.22827 -19.22794 -19.20171 -10.33627
 Alpha  occ. eigenvalues --  -10.33575 -10.32463 -10.31472 -10.30284 -10.28763
 Alpha  occ. eigenvalues --  -10.28062 -10.28041 -10.27929 -10.27840 -10.27718
 Alpha  occ. eigenvalues --  -10.27599 -10.27502 -10.27252 -10.27251 -10.27193
 Alpha  occ. eigenvalues --  -10.27112 -10.27065 -10.26897 -10.26798 -10.26735
 Alpha  occ. eigenvalues --  -10.26715 -10.26525 -10.26406 -10.26358 -10.26347
 Alpha  occ. eigenvalues --  -10.26304 -10.26297 -10.26053 -10.25699 -10.25690
 Alpha  occ. eigenvalues --  -10.25637 -10.25430 -10.25171 -10.24840 -10.24790
 Alpha  occ. eigenvalues --  -10.24774 -10.24595 -10.24441 -10.23756  -1.17828
 Alpha  occ. eigenvalues --   -1.12257  -1.06840  -1.06333  -0.93837  -0.92521
 Alpha  occ. eigenvalues --   -0.92012  -0.91331  -0.90391  -0.89694  -0.88133
 Alpha  occ. eigenvalues --   -0.87790  -0.86578  -0.85876  -0.84498  -0.83209
 Alpha  occ. eigenvalues --   -0.82018  -0.81071  -0.79897  -0.78240  -0.77563
 Alpha  occ. eigenvalues --   -0.76357  -0.76189  -0.76019  -0.75963  -0.75841
 Alpha  occ. eigenvalues --   -0.75297  -0.74426  -0.73098  -0.70451  -0.70009
 Alpha  occ. eigenvalues --   -0.68949  -0.66947  -0.65101  -0.64859  -0.64169
 Alpha  occ. eigenvalues --   -0.63405  -0.62207  -0.61320  -0.59545  -0.59230
 Alpha  occ. eigenvalues --   -0.58694  -0.57956  -0.57538  -0.57386  -0.56511
 Alpha  occ. eigenvalues --   -0.56264  -0.56045  -0.55244  -0.54524  -0.54027
 Alpha  occ. eigenvalues --   -0.53460  -0.53179  -0.52981  -0.52489  -0.52267
 Alpha  occ. eigenvalues --   -0.51361  -0.51013  -0.50583  -0.50353  -0.50038
 Alpha  occ. eigenvalues --   -0.49604  -0.49332  -0.48747  -0.48654  -0.48455
 Alpha  occ. eigenvalues --   -0.48214  -0.47927  -0.47655  -0.47400  -0.46860
 Alpha  occ. eigenvalues --   -0.46597  -0.46327  -0.46044  -0.45840  -0.45342
 Alpha  occ. eigenvalues --   -0.45007  -0.44882  -0.44465  -0.44014  -0.43781
 Alpha  occ. eigenvalues --   -0.43539  -0.43210  -0.43056  -0.42761  -0.42430
 Alpha  occ. eigenvalues --   -0.42311  -0.41869  -0.41708  -0.41307  -0.41227
 Alpha  occ. eigenvalues --   -0.40886  -0.40710  -0.40584  -0.40444  -0.40051
 Alpha  occ. eigenvalues --   -0.39428  -0.38964  -0.38789  -0.38631  -0.38398
 Alpha  occ. eigenvalues --   -0.38177  -0.38015  -0.37740  -0.36858  -0.36502
 Alpha  occ. eigenvalues --   -0.36161  -0.35369  -0.34809  -0.34466  -0.33743
 Alpha  occ. eigenvalues --   -0.33147  -0.32683  -0.32350  -0.31574  -0.31340
 Alpha  occ. eigenvalues --   -0.29381  -0.28003  -0.24241  -0.19503
 Alpha virt. eigenvalues --   -0.06365  -0.01151   0.03237   0.06392   0.07124
 Alpha virt. eigenvalues --    0.07439   0.08539   0.10427   0.11015   0.11132
 Alpha virt. eigenvalues --    0.12132   0.12594   0.12800   0.13220   0.13675

 Mulliken charges:
               1
     1  O   -0.491485
     2  O   -0.531649
     3  O   -0.602440
     4  O   -0.516218
     5  C    0.168831
     6  C    0.273780
     7  C    0.016978
     8  C   -0.259113
     9  C   -0.163973
    10  C    0.149450
    11  C   -0.329821
    12  C   -0.111429
    13  C   -0.309333
    14  C   -0.313089
    15  C   -0.070860
    16  C    0.046577
    17  C   -0.377531
    18  C   -0.112666
    19  C   -0.065817
    20  C   -0.011819
    21  C    0.297039
    22  C   -0.182461
    23  C    0.144786
    24  C   -0.200753
    25  C   -0.128865
    26  C   -0.278520
    27  C   -0.259074
    28  C   -0.294407
    29  C   -0.132200
    30  C    0.260650
    31  C    0.094746
    32  C   -0.337459
    33  C   -0.379447
    34  C   -0.116024
    35  C    0.191869
    36  C   -0.412892
    37  C   -0.118876
    38  C   -0.086395
    39  C   -0.093258
    40  C   -0.063422
    41  C   -0.084904
    42  C   -0.122560
    43  C    0.083449
    44  C   -0.373303
    45  H    0.118933
    46  H    0.113122
    47  H    0.099194
    48  H    0.089664
    49  H    0.106066
    50  H    0.089315
    51  H    0.089792
    52  H    0.130893
    53  H    0.114172
    54  H    0.102515
    55  H    0.106065
    56  H    0.092340
    57  H    0.118546
    58  H    0.089898
    59  H    0.113802
    60  H    0.292957
    61  H    0.068199
    62  H    0.127430
    63  H    0.129827
    64  H    0.099910
    65  H    0.092077
    66  H    0.093153
    67  H    0.073618
    68  H    0.079693
    69  H    0.062708
    70  H    0.108105
    71  H    0.130521
    72  H    0.108383
    73  H    0.109588
    74  H    0.090341
    75  H    0.095908
    76  H    0.107552
    77  H    0.078728
    78  H    0.083767
    79  H    0.108893
    80  H    0.122223
    81  H    0.093844
    82  H    0.309451
    83  H    0.309479
    84  H    0.099703
    85  H    0.117884
    86  H    0.121684
    87  H    0.112798
    88  H    0.065213
    89  H    0.110370
    90  H    0.132684
    91  H    0.106730
    92  H    0.025642
    93  H    0.089259
    94  H    0.079082
    95  H    0.081856
    96  H    0.065203
    97  H    0.092005
    98  H    0.091471
    99  H    0.135946
   100  H    0.125710
 Sum of Mulliken charges =  -0.00000

 Dipole moment (field-independent basis, Debye):
    X=              3.2574    Y=             -0.2422    Z=              1.3041  Tot=              3.5171
 Quadrupole moment (field-independent basis, Debye-Ang):
   XX=           -277.0250   YY=           -257.5919   ZZ=           -280.6634
   XY=              5.0851   XZ=             35.0195   YZ=             -2.9146

 Normal termination of Gaussian 16 at Mon Jul 29 05:35:13 2019.
