 Gaussian 16, Revision A.03,
 Gaussian 16:  ES64L-G16RevA.03 25-Dec-2016

 -------------------------------------
 # td=(NStates=1) CAM-B3LYP/6-31G(d,p)
 -------------------------------------

 --
 TD
 --
 Symbolic Z-matrix:
 Charge =  0 Multiplicity = 1

                         Standard orientation:
 ---------------------------------------------------------------------
 Center     Atomic      Atomic             Coordinates (Angstroms)
 Number     Number       Type             X           Y           Z
 ---------------------------------------------------------------------
      1          8           0      -11.572693    0.167402   -1.525075
      2          8           0      -13.067069   -2.507550    1.407634
      3          8           0       10.401581   -1.047828   -2.053067
      4          8           0       14.405376   -1.364344   -0.212326
      5          6           0      -11.009346   -0.127900   -0.336129
      6          6           0      -11.463978   -1.238964   -1.232080
      7          6           0      -11.783674    0.322694    0.942046
      8          6           0      -12.882355   -1.903475   -0.970000
      9          6           0      -13.312434   -0.196766    0.735582
     10          6           0      -13.493529   -1.634989    0.343212
     11          6           0      -10.693468   -1.890060   -2.249842
     12          6           0       -9.542858    0.145446   -0.301586
     13          6           0      -11.188067   -0.164206    2.191779
     14          6           0      -11.874313    1.851003    0.989330
     15          6           0       -8.575216   -0.752492    0.208936
     16          6           0       -7.191996   -0.626624    0.235595
     17          6           0       -6.296904   -1.829349    0.565032
     18          6           0       -6.696794    0.641106   -0.036828
     19          6           0       -5.298370    0.884506   -0.261962
     20          6           0       11.959051    0.040296    1.258107
     21          6           0       11.549726   -0.706360   -1.243160
     22          6           0       12.535562   -1.365211    1.436704
     23          6           0       13.165100   -2.013013    0.188288
     24          6           0       12.167328   -2.033800   -0.928825
     25          6           0       11.092917    0.110907    0.018752
     26          6           0       11.007535    0.311298    2.500823
     27          6           0       13.095034    1.019649    1.301953
     28          6           0       12.506891    0.226483   -1.893581
     29          6           0       -4.680864    2.193985   -0.384465
     30          6           0        9.903803    0.640144   -0.023746
     31          6           0       -3.338878    2.533472   -0.461270
     32          6           0        8.688150    1.049763   -0.128398
     33          6           0       -2.992871    4.030639   -0.623903
     34          6           0       -2.224023    1.740679   -0.297799
     35          6           0        7.465024    0.248831   -0.011784
     36          6           0        7.521417   -1.160402    0.277023
     37          6           0        6.231548    0.899740   -0.133565
     38          6           0       -0.840112    1.977787   -0.467943
     39          6           0        4.980293    0.294120    0.103960
     40          6           0        0.020451    1.074099   -0.149724
     41          6           0        3.803485    1.016722   -0.104657
     42          6           0        1.384441    1.368639   -0.192959
     43          6           0        2.464232    0.479066   -0.016770
     44          6           0        2.360161   -0.900281    0.530639
     45          1           0      -12.795223   -2.876620   -1.136989
     46          1           0      -13.610289   -1.432276   -1.597612
     47          1           0      -13.985782    0.057560    1.700925
     48          1           0      -13.596244    0.435074   -0.171757
     49          1           0      -14.513030   -1.550040    0.451299
     50          1           0       -9.977342   -2.865666   -1.836130
     51          1           0      -11.409024   -2.163792   -3.091204
     52          1           0       -9.800199   -1.310673   -2.650489
     53          1           0       -8.982343    1.108857   -0.619687
     54          1           0      -10.070143    0.105121    2.258827
     55          1           0      -11.769562    0.159218    2.992606
     56          1           0      -11.190356   -1.351197    2.316564
     57          1           0      -12.260200    2.197041    0.125721
     58          1           0      -12.600447    2.197990    1.768664
     59          1           0      -10.967207    2.255699    1.201779
     60          1           0      -12.158880   -2.370609    1.233665
     61          1           0       -8.781374   -1.795198    0.641537
     62          1           0       -6.144967   -2.398988   -0.393548
     63          1           0       -5.422764   -1.487867    1.254685
     64          1           0       -6.986983   -2.561781    1.232675
     65          1           0       -7.408922    1.579195    0.114429
     66          1           0       -4.473181    0.138008   -0.296554
     67          1           0       13.251494   -1.340927    2.283574
     68          1           0       11.791107   -2.109576    1.719428
     69          1           0       13.440994   -3.071376    0.376504
     70          1           0       12.671362   -2.553714   -1.829916
     71          1           0       11.395860   -2.496015   -0.485705
     72          1           0       11.562835    0.530528    3.456853
     73          1           0       10.610052    1.387636    2.466383
     74          1           0       10.329027   -0.541639    2.637684
     75          1           0       13.759742    0.713263    0.469693
     76          1           0       12.770935    2.138019    1.115157
     77          1           0       13.498527    0.944747    2.378646
     78          1           0       12.856554   -0.098598   -2.760120
     79          1           0       12.082604    1.111329   -2.191091
     80          1           0       13.378009    0.318388   -1.226484
     81          1           0       -5.524467    3.007073   -0.586602
     82          1           0        9.945080   -0.222085   -2.329475
     83          1           0       14.988755   -1.363252    0.551743
     84          1           0        8.461482    2.035616   -0.513309
     85          1           0       -2.299277    4.294065   -0.006262
     86          1           0       -2.498405    4.293430   -1.419575
     87          1           0       -3.989785    4.566702   -0.550398
     88          1           0       -2.514670    0.617382    0.172527
     89          1           0        6.675838   -1.797710   -0.062623
     90          1           0        8.400070   -1.511513   -0.409230
     91          1           0        7.820562   -1.429829    1.301867
     92          1           0        6.410412    1.961439   -0.328939
     93          1           0       -0.503996    3.041017   -0.821475
     94          1           0        4.885518   -0.666518    0.263960
     95          1           0       -0.089131    0.038378    0.165728
     96          1           0        4.010753    2.257004   -0.353107
     97          1           0        1.841650    2.453398   -0.352940
     98          1           0        1.421535   -1.124435    1.049267
     99          1           0        2.543025   -1.761143   -0.237236
    100          1           0        3.050276   -1.014673    1.358036
 ---------------------------------------------------------------------

 SCF Done:  E(RCAM-B3LYP) =  -1857.33232060     A.U. after   15 cycles

 Excitation energies and oscillator strengths:

 Excited State   1:      Singlet-A      2.1164 eV  585.81 nm  f=2.9773  <S**2>=0.000
     163 ->166         0.14724
     164 ->165         0.69076
 This state for optimization and/or second-order correction.
 Total Energy, E(TD-HF/TD-DFT) =  -1857.25454269
 Copying the excited state density for this state as the 1-particle RhoCI density.

 The electronic state is 1-A.
 Alpha  occ. eigenvalues --  -19.22528 -19.21993 -19.21120 -19.20413 -10.32615
 Alpha  occ. eigenvalues --  -10.32527 -10.31487 -10.31454 -10.28990 -10.28635
 Alpha  occ. eigenvalues --  -10.28130 -10.27868 -10.27813 -10.27685 -10.27677
 Alpha  occ. eigenvalues --  -10.27669 -10.27476 -10.27442 -10.27387 -10.27324
 Alpha  occ. eigenvalues --  -10.27198 -10.27106 -10.27104 -10.27091 -10.26952
 Alpha  occ. eigenvalues --  -10.26947 -10.26694 -10.26495 -10.26362 -10.26287
 Alpha  occ. eigenvalues --  -10.26084 -10.26070 -10.26011 -10.25842 -10.25608
 Alpha  occ. eigenvalues --  -10.25586 -10.25290 -10.25127 -10.24928 -10.24893
 Alpha  occ. eigenvalues --  -10.24800 -10.23063 -10.22963 -10.21542  -1.18411
 Alpha  occ. eigenvalues --   -1.10203  -1.09789  -1.08753  -0.93783  -0.92657
 Alpha  occ. eigenvalues --   -0.91870  -0.91439  -0.90612  -0.90154  -0.88179
 Alpha  occ. eigenvalues --   -0.88035  -0.87460  -0.85835  -0.84221  -0.83531
 Alpha  occ. eigenvalues --   -0.82803  -0.81251  -0.80939  -0.78615  -0.77482
 Alpha  occ. eigenvalues --   -0.76960  -0.76819  -0.76536  -0.76436  -0.75536
 Alpha  occ. eigenvalues --   -0.75340  -0.74586  -0.73119  -0.70590  -0.70178
 Alpha  occ. eigenvalues --   -0.68852  -0.66515  -0.65719  -0.64817  -0.64484
 Alpha  occ. eigenvalues --   -0.63339  -0.62114  -0.60558  -0.60294  -0.59358
 Alpha  occ. eigenvalues --   -0.58761  -0.58200  -0.57664  -0.57259  -0.56889
 Alpha  occ. eigenvalues --   -0.55865  -0.55599  -0.54950  -0.54751  -0.54588
 Alpha  occ. eigenvalues --   -0.54164  -0.53954  -0.52999  -0.52369  -0.51828
 Alpha  occ. eigenvalues --   -0.51310  -0.50634  -0.50493  -0.50245  -0.49894
 Alpha  occ. eigenvalues --   -0.49661  -0.49228  -0.48987  -0.48910  -0.48668
 Alpha  occ. eigenvalues --   -0.48517  -0.48338  -0.48114  -0.47787  -0.47677
 Alpha  occ. eigenvalues --   -0.47388  -0.47232  -0.46540  -0.45763  -0.45502
 Alpha  occ. eigenvalues --   -0.45245  -0.44716  -0.44421  -0.44278  -0.44191
 Alpha  occ. eigenvalues --   -0.43313  -0.42933  -0.42822  -0.42512  -0.42215
 Alpha  occ. eigenvalues --   -0.42111  -0.41892  -0.41852  -0.41788  -0.41587
 Alpha  occ. eigenvalues --   -0.41008  -0.40844  -0.40737  -0.40308  -0.40209
 Alpha  occ. eigenvalues --   -0.40101  -0.40053  -0.39455  -0.39116  -0.38874
 Alpha  occ. eigenvalues --   -0.38695  -0.38531  -0.38078  -0.37853  -0.37272
 Alpha  occ. eigenvalues --   -0.36704  -0.35801  -0.35094  -0.34455  -0.34079
 Alpha  occ. eigenvalues --   -0.32971  -0.32234  -0.32132  -0.31320  -0.30646
 Alpha  occ. eigenvalues --   -0.29768  -0.28019  -0.23501  -0.19597
 Alpha virt. eigenvalues --   -0.06171  -0.01311   0.03288   0.06549   0.07232
 Alpha virt. eigenvalues --    0.10509   0.10781   0.10926   0.11467   0.11883
 Alpha virt. eigenvalues --    0.12402   0.12823   0.13457   0.13560   0.13810

 Mulliken charges:
               1
     1  O   -0.488891
     2  O   -0.535516
     3  O   -0.574819
     4  O   -0.554080
     5  C    0.270986
     6  C    0.213786
     7  C   -0.004850
     8  C   -0.201092
     9  C   -0.213174
    10  C    0.129646
    11  C   -0.334445
    12  C   -0.144065
    13  C   -0.290732
    14  C   -0.301679
    15  C   -0.075813
    16  C    0.097130
    17  C   -0.356575
    18  C   -0.134910
    19  C   -0.089220
    20  C    0.022856
    21  C    0.240894
    22  C   -0.202982
    23  C    0.133432
    24  C   -0.160695
    25  C   -0.098309
    26  C   -0.305534
    27  C   -0.293335
    28  C   -0.294742
    29  C   -0.145101
    30  C    0.211782
    31  C    0.103967
    32  C   -0.328664
    33  C   -0.361400
    34  C   -0.136329
    35  C    0.146035
    36  C   -0.403531
    37  C   -0.111947
    38  C   -0.074071
    39  C   -0.068729
    40  C   -0.039464
    41  C   -0.117007
    42  C   -0.132063
    43  C    0.101751
    44  C   -0.391528
    45  H    0.117890
    46  H    0.129469
    47  H    0.082021
    48  H    0.104162
    49  H    0.109009
    50  H    0.071733
    51  H    0.117572
    52  H    0.135088
    53  H    0.097040
    54  H    0.101513
    55  H    0.115333
    56  H    0.067744
    57  H    0.122543
    58  H    0.097039
    59  H    0.105578
    60  H    0.297662
    61  H    0.056810
    62  H    0.137950
    63  H    0.129349
    64  H    0.093984
    65  H    0.098510
    66  H    0.088678
    67  H    0.086181
    68  H    0.101515
    69  H    0.086665
    70  H    0.116412
    71  H    0.119786
    72  H    0.083328
    73  H    0.105431
    74  H    0.108449
    75  H    0.119127
    76  H    0.089975
    77  H    0.089030
    78  H    0.106446
    79  H    0.091719
    80  H    0.133550
    81  H    0.073836
    82  H    0.306033
    83  H    0.308241
    84  H    0.100068
    85  H    0.127439
    86  H    0.124690
    87  H    0.099436
    88  H    0.050829
    89  H    0.113165
    90  H    0.123040
    91  H    0.120111
    92  H    0.071209
    93  H    0.091542
    94  H    0.078348
    95  H    0.095434
    96  H    0.063179
    97  H    0.073240
    98  H    0.112300
    99  H    0.114568
   100  H    0.132029
 Sum of Mulliken charges =  -0.00000

 Dipole moment (field-independent basis, Debye):
    X=              3.6831    Y=             -0.1835    Z=              1.5273  Tot=              3.9914
 Quadrupole moment (field-independent basis, Debye-Ang):
   XX=           -269.4078   YY=           -262.0710   ZZ=           -276.9735
   XY=             -9.9969   XZ=             34.0719   YZ=             -2.2652

 Normal termination of Gaussian 16 at Thu Aug  1 06:53:52 2019.
