 Gaussian 16, Revision A.03,
 Gaussian 16:  ES64L-G16RevA.03 25-Dec-2016

 -------------------------------------
 # td=(NStates=1) CAM-B3LYP/6-31G(d,p)
 -------------------------------------

 --
 TD
 --
 Symbolic Z-matrix:
 Charge =  0 Multiplicity = 1

                         Standard orientation:
 ---------------------------------------------------------------------
 Center     Atomic      Atomic             Coordinates (Angstroms)
 Number     Number       Type             X           Y           Z
 ---------------------------------------------------------------------
      1          8           0      -11.632667    0.266017   -1.422846
      2          8           0      -13.018350   -2.598349    1.317272
      3          8           0       10.597257   -1.084722   -2.205292
      4          8           0       14.388314   -1.309614    0.037152
      5          6           0      -10.947176   -0.212334   -0.190389
      6          6           0      -11.551559   -1.116257   -1.246960
      7          6           0      -11.748600    0.298429    0.999857
      8          6           0      -13.029899   -1.827310   -1.038476
      9          6           0      -13.211364   -0.111255    0.874732
     10          6           0      -13.473955   -1.592983    0.420035
     11          6           0      -10.707515   -1.843924   -2.192447
     12          6           0       -9.498489    0.178056   -0.370849
     13          6           0      -11.078919   -0.366539    2.232028
     14          6           0      -11.576248    1.880204    1.077100
     15          6           0       -8.539985   -0.797553    0.021876
     16          6           0       -7.167513   -0.685205    0.079351
     17          6           0       -6.313259   -1.819440    0.424920
     18          6           0       -6.634250    0.606716   -0.043638
     19          6           0       -5.259936    0.827611   -0.287309
     20          6           0       11.922048   -0.039922    1.341588
     21          6           0       11.651096   -0.724442   -1.311886
     22          6           0       12.570975   -1.385702    1.578754
     23          6           0       13.196441   -1.962330    0.333135
     24          6           0       12.328962   -1.967796   -0.852760
     25          6           0       11.005450    0.029632    0.029820
     26          6           0       10.999181    0.273519    2.548440
     27          6           0       12.878331    1.127920    1.244555
     28          6           0       12.537122    0.281502   -2.071919
     29          6           0       -4.793438    2.231158   -0.358018
     30          6           0        9.850435    0.577842   -0.028067
     31          6           0       -3.393667    2.570548   -0.444372
     32          6           0        8.644601    1.085411   -0.226712
     33          6           0       -3.101246    4.094765   -0.665839
     34          6           0       -2.337962    1.704721   -0.291287
     35          6           0        7.402895    0.214781   -0.008609
     36          6           0        7.620987   -1.238933    0.117842
     37          6           0        6.241120    0.980739   -0.122248
     38          6           0       -1.022663    1.928804   -0.260069
     39          6           0        5.052132    0.331171    0.091370
     40          6           0        0.069178    1.131644   -0.137219
     41          6           0        3.824235    1.005984    0.024278
     42          6           0        1.453274    1.397250   -0.006206
     43          6           0        2.415050    0.482984    0.102912
     44          6           0        2.215841   -0.953008    0.201400
     45          1           0      -13.105497   -3.028959   -1.123173
     46          1           0      -13.615548   -1.360679   -1.828429
     47          1           0      -13.569783    0.025740    1.938156
     48          1           0      -13.716954    0.553045    0.239760
     49          1           0      -14.501053   -1.658914    0.415721
     50          1           0      -10.225085   -2.845248   -1.701243
     51          1           0      -11.380120   -1.995953   -3.117714
     52          1           0       -9.867328   -1.204353   -2.804525
     53          1           0       -9.204237    1.273895   -0.431241
     54          1           0      -10.075207   -0.104032    2.438351
     55          1           0      -11.522238   -0.075358    3.140401
     56          1           0      -11.126898   -1.442733    2.272962
     57          1           0      -12.030714    2.407589    0.202130
     58          1           0      -12.127453    2.312565    2.022239
     59          1           0      -10.513889    2.014904    1.257788
     60          1           0      -11.958999   -2.557144    1.309183
     61          1           0       -8.947431   -1.867372    0.502162
     62          1           0       -5.877733   -2.176570   -0.565508
     63          1           0       -5.640829   -1.521396    1.247065
     64          1           0       -7.062667   -2.677871    0.615507
     65          1           0       -7.136720    1.449935   -0.316978
     66          1           0       -4.720821   -0.087827   -0.245913
     67          1           0       13.235541   -1.369425    2.317251
     68          1           0       11.648970   -2.083015    1.917665
     69          1           0       13.428981   -3.081059    0.399598
     70          1           0       12.898100   -2.309123   -1.655231
     71          1           0       11.505295   -2.682987   -0.809711
     72          1           0       11.700393    0.472057    3.446820
     73          1           0       10.551549    1.161741    2.496229
     74          1           0       10.289961   -0.459506    2.779537
     75          1           0       13.531379    1.019357    0.390577
     76          1           0       12.298206    2.120649    1.112458
     77          1           0       13.478304    1.127725    2.193435
     78          1           0       12.865674   -0.235712   -2.933408
     79          1           0       11.982925    1.150268   -2.319242
     80          1           0       13.215958    0.724447   -1.271831
     81          1           0       -5.712266    2.929489   -0.343469
     82          1           0       10.292689   -0.191873   -2.507921
     83          1           0       14.749587   -1.450740    0.912374
     84          1           0        8.415348    2.197294   -0.626213
     85          1           0       -2.585938    4.246905    0.171394
     86          1           0       -2.518047    4.461476   -1.606000
     87          1           0       -4.000124    4.720674   -0.705262
     88          1           0       -2.409252    0.496402   -0.242681
     89          1           0        6.901571   -2.036581    0.005590
     90          1           0        8.416724   -1.616169   -0.462726
     91          1           0        7.995206   -1.274721    1.350562
     92          1           0        6.120692    2.146415   -0.204453
     93          1           0       -0.825931    3.141149   -0.308085
     94          1           0        5.027214   -0.857125    0.135842
     95          1           0       -0.228797   -0.018307   -0.012798
     96          1           0        3.715209    2.068728   -0.440876
     97          1           0        1.599733    2.512931   -0.310699
     98          1           0        1.194930   -1.214845    0.548715
     99          1           0        2.368768   -1.227619   -0.988925
    100          1           0        3.151938   -1.787556    0.762209
 ---------------------------------------------------------------------

 SCF Done:  E(RCAM-B3LYP) =  -1857.27481993     A.U. after   15 cycles

 Excitation energies and oscillator strengths:

 Excited State   1:      Singlet-A      2.0365 eV  608.80 nm  f=2.8047  <S**2>=0.000
     163 ->166        -0.13491
     164 ->165         0.69704
     164 <-165        -0.10352
 This state for optimization and/or second-order correction.
 Total Energy, E(TD-HF/TD-DFT) =  -1857.19997878
 Copying the excited state density for this state as the 1-particle RhoCI density.

 The electronic state is 1-A.
 Alpha  occ. eigenvalues --  -19.22685 -19.22053 -19.21804 -19.21180 -10.32444
 Alpha  occ. eigenvalues --  -10.32337 -10.31317 -10.31195 -10.29863 -10.29410
 Alpha  occ. eigenvalues --  -10.29016 -10.28587 -10.28448 -10.28409 -10.28270
 Alpha  occ. eigenvalues --  -10.28034 -10.27842 -10.27700 -10.27389 -10.27183
 Alpha  occ. eigenvalues --  -10.27141 -10.27087 -10.27027 -10.26987 -10.26983
 Alpha  occ. eigenvalues --  -10.26894 -10.26881 -10.26733 -10.26712 -10.26650
 Alpha  occ. eigenvalues --  -10.26592 -10.26487 -10.26465 -10.26329 -10.26095
 Alpha  occ. eigenvalues --  -10.25816 -10.25355 -10.25316 -10.25050 -10.24566
 Alpha  occ. eigenvalues --  -10.24448 -10.24223 -10.23733 -10.23698  -1.14214
 Alpha  occ. eigenvalues --   -1.13380  -1.09973  -1.07997  -0.93010  -0.92541
 Alpha  occ. eigenvalues --   -0.92095  -0.91095  -0.90262  -0.89992  -0.87323
 Alpha  occ. eigenvalues --   -0.86598  -0.85727  -0.84736  -0.83874  -0.83029
 Alpha  occ. eigenvalues --   -0.82064  -0.80849  -0.80220  -0.78506  -0.78220
 Alpha  occ. eigenvalues --   -0.76661  -0.76499  -0.76485  -0.76068  -0.75207
 Alpha  occ. eigenvalues --   -0.74939  -0.74259  -0.72563  -0.70575  -0.69943
 Alpha  occ. eigenvalues --   -0.67879  -0.66271  -0.64920  -0.64359  -0.63633
 Alpha  occ. eigenvalues --   -0.63061  -0.61910  -0.60130  -0.59375  -0.58858
 Alpha  occ. eigenvalues --   -0.58531  -0.58175  -0.57592  -0.57024  -0.55724
 Alpha  occ. eigenvalues --   -0.55331  -0.54780  -0.54478  -0.54212  -0.53909
 Alpha  occ. eigenvalues --   -0.53858  -0.52836  -0.52522  -0.52180  -0.51865
 Alpha  occ. eigenvalues --   -0.51696  -0.51458  -0.50601  -0.50416  -0.50002
 Alpha  occ. eigenvalues --   -0.49770  -0.49395  -0.49204  -0.48853  -0.48542
 Alpha  occ. eigenvalues --   -0.47979  -0.47789  -0.47691  -0.47478  -0.46858
 Alpha  occ. eigenvalues --   -0.46460  -0.46318  -0.46128  -0.45149  -0.44733
 Alpha  occ. eigenvalues --   -0.44304  -0.44164  -0.44063  -0.43921  -0.43448
 Alpha  occ. eigenvalues --   -0.43397  -0.43378  -0.43125  -0.42943  -0.42244
 Alpha  occ. eigenvalues --   -0.42191  -0.42084  -0.41894  -0.41726  -0.41258
 Alpha  occ. eigenvalues --   -0.41116  -0.40822  -0.40339  -0.40153  -0.39990
 Alpha  occ. eigenvalues --   -0.39893  -0.39550  -0.39185  -0.38808  -0.38706
 Alpha  occ. eigenvalues --   -0.38632  -0.38105  -0.37995  -0.37786  -0.37486
 Alpha  occ. eigenvalues --   -0.35940  -0.35534  -0.34671  -0.33925  -0.33285
 Alpha  occ. eigenvalues --   -0.33116  -0.32366  -0.31775  -0.30994  -0.30746
 Alpha  occ. eigenvalues --   -0.30253  -0.27288  -0.23473  -0.19261
 Alpha virt. eigenvalues --   -0.06312  -0.01238   0.02758   0.06845   0.07079
 Alpha virt. eigenvalues --    0.08855   0.08969   0.09614   0.10214   0.11193
 Alpha virt. eigenvalues --    0.11816   0.12285   0.12688   0.13011   0.13240

 Mulliken charges:
               1
     1  O   -0.511550
     2  O   -0.548855
     3  O   -0.557236
     4  O   -0.514095
     5  C    0.164632
     6  C    0.277080
     7  C    0.019628
     8  C   -0.212199
     9  C   -0.186925
    10  C    0.157027
    11  C   -0.321820
    12  C   -0.103646
    13  C   -0.320974
    14  C   -0.312216
    15  C   -0.089342
    16  C    0.091267
    17  C   -0.380067
    18  C   -0.091901
    19  C   -0.063592
    20  C    0.013861
    21  C    0.237451
    22  C   -0.175081
    23  C    0.127497
    24  C   -0.188436
    25  C   -0.155041
    26  C   -0.292109
    27  C   -0.300762
    28  C   -0.301260
    29  C   -0.152623
    30  C    0.209676
    31  C    0.055591
    32  C   -0.296052
    33  C   -0.366292
    34  C   -0.079868
    35  C    0.101061
    36  C   -0.362065
    37  C   -0.094390
    38  C   -0.061354
    39  C   -0.080261
    40  C   -0.109607
    41  C   -0.146557
    42  C   -0.120552
    43  C    0.143721
    44  C   -0.347482
    45  H    0.098954
    46  H    0.120437
    47  H    0.092712
    48  H    0.111359
    49  H    0.105777
    50  H    0.092106
    51  H    0.100742
    52  H    0.107214
    53  H    0.111722
    54  H    0.114753
    55  H    0.108533
    56  H    0.075784
    57  H    0.126058
    58  H    0.087221
    59  H    0.105914
    60  H    0.306265
    61  H    0.051623
    62  H    0.131006
    63  H    0.141031
    64  H    0.100235
    65  H    0.072460
    66  H    0.088175
    67  H    0.091683
    68  H    0.088246
    69  H    0.071527
    70  H    0.116719
    71  H    0.120719
    72  H    0.070675
    73  H    0.120041
    74  H    0.105586
    75  H    0.127425
    76  H    0.099285
    77  H    0.085567
    78  H    0.122961
    79  H    0.095849
    80  H    0.109102
    81  H    0.098581
    82  H    0.312035
    83  H    0.306704
    84  H    0.105677
    85  H    0.144533
    86  H    0.112643
    87  H    0.108200
    88  H    0.062647
    89  H    0.122168
    90  H    0.157061
    91  H    0.087932
    92  H    0.096078
    93  H    0.046657
    94  H    0.082464
    95  H    0.052126
    96  H    0.073992
    97  H    0.084110
    98  H    0.121823
    99  H    0.117617
   100  H    0.077210
 Sum of Mulliken charges =  -0.00000

 Dipole moment (field-independent basis, Debye):
    X=              4.5021    Y=             -0.2965    Z=              1.3951  Tot=              4.7226
 Quadrupole moment (field-independent basis, Debye-Ang):
   XX=           -276.9831   YY=           -260.5788   ZZ=           -275.9270
   XY=            -11.9675   XZ=             21.6906   YZ=             -3.5964

 Normal termination of Gaussian 16 at Wed Jul 31 03:10:08 2019.
