 Gaussian 16, Revision A.03,
 Gaussian 16:  ES64L-G16RevA.03 25-Dec-2016

 -------------------------------------
 # td=(NStates=1) CAM-B3LYP/6-31G(d,p)
 -------------------------------------

 --
 TD
 --
 Symbolic Z-matrix:
 Charge =  0 Multiplicity = 1

                         Standard orientation:
 ---------------------------------------------------------------------
 Center     Atomic      Atomic             Coordinates (Angstroms)
 Number     Number       Type             X           Y           Z
 ---------------------------------------------------------------------
      1          8           0      -11.889305    0.571696   -1.267880
      2          8           0      -13.054377   -2.637189    1.068240
      3          8           0       10.529527   -0.819732   -2.088976
      4          8           0       14.532308   -1.107727   -0.194944
      5          6           0      -11.025371   -0.068725   -0.277736
      6          6           0      -11.691709   -0.890779   -1.334839
      7          6           0      -11.732506    0.165356    1.136054
      8          6           0      -13.102268   -1.579716   -1.079582
      9          6           0      -13.239605   -0.177193    0.975681
     10          6           0      -13.595711   -1.489924    0.302418
     11          6           0      -10.896445   -1.495181   -2.443982
     12          6           0       -9.587039    0.108431   -0.301062
     13          6           0      -11.103676   -0.595503    2.291682
     14          6           0      -11.631504    1.623404    1.360086
     15          6           0       -8.698782   -0.698163   -0.106005
     16          6           0       -7.226607   -0.558047    0.020607
     17          6           0       -6.405045   -1.772241    0.462546
     18          6           0       -6.551588    0.602397   -0.149573
     19          6           0       -5.174423    0.818525   -0.149946
     20          6           0       11.952820   -0.122407    1.392711
     21          6           0       11.594642   -0.444621   -1.264777
     22          6           0       12.728500   -1.455953    1.444453
     23          6           0       13.338876   -1.880737    0.027519
     24          6           0       12.396616   -1.834966   -1.129517
     25          6           0       11.131249    0.066466    0.134581
     26          6           0       11.187973   -0.021481    2.619015
     27          6           0       12.981795    1.059801    1.369850
     28          6           0       12.428908    0.760688   -1.975694
     29          6           0       -4.716576    2.158199   -0.259833
     30          6           0        9.911254    0.549738    0.057495
     31          6           0       -3.394762    2.535306   -0.322331
     32          6           0        8.703874    1.026055   -0.128367
     33          6           0       -3.028581    4.011936   -0.442277
     34          6           0       -2.291344    1.598715   -0.167479
     35          6           0        7.521741    0.219058    0.117090
     36          6           0        7.758827   -1.288413    0.164491
     37          6           0        6.265223    0.824013    0.093130
     38          6           0       -0.981520    1.911037   -0.220273
     39          6           0        4.989875    0.134350    0.113960
     40          6           0        0.047889    0.921368   -0.139535
     41          6           0        3.821323    0.870248    0.034162
     42          6           0        1.413204    1.179050   -0.155894
     43          6           0        2.471465    0.243427   -0.160782
     44          6           0        2.198632   -1.223883   -0.023312
     45          1           0      -13.130879   -2.583317   -1.316152
     46          1           0      -13.747058   -1.055765   -1.817618
     47          1           0      -13.612733   -0.124498    1.990239
     48          1           0      -13.725033    0.654856    0.576181
     49          1           0      -14.702838   -1.593087    0.239546
     50          1           0      -10.630823   -2.413602   -2.362058
     51          1           0      -11.468922   -1.469495   -3.395321
     52          1           0      -10.101199   -0.779214   -2.838364
     53          1           0       -9.445534    1.180372   -0.656848
     54          1           0      -10.079247   -0.360996    2.311906
     55          1           0      -11.666427   -0.334564    3.014918
     56          1           0      -11.120425   -1.662292    2.333973
     57          1           0      -12.122969    1.909460    0.642469
     58          1           0      -12.119841    2.003317    2.184310
     59          1           0      -10.557159    1.971630    1.458184
     60          1           0      -12.036325   -2.628320    0.954112
     61          1           0       -9.015941   -1.800843    0.206991
     62          1           0       -5.691767   -1.997218   -0.373567
     63          1           0       -5.862992   -1.570511    1.316513
     64          1           0       -7.063735   -2.640215    0.525179
     65          1           0       -6.988954    1.589050   -0.324268
     66          1           0       -4.669246   -0.054669    0.271000
     67          1           0       13.491669   -1.517558    1.980117
     68          1           0       12.011745   -2.257191    1.476011
     69          1           0       13.494960   -3.106171    0.048608
     70          1           0       13.119851   -2.276389   -2.032785
     71          1           0       11.648856   -2.465932   -0.910812
     72          1           0       11.804066   -0.185271    3.451263
     73          1           0       10.547163    0.878779    2.496362
     74          1           0       10.440734   -0.763305    2.642852
     75          1           0       13.587170    1.025630    0.477314
     76          1           0       12.453738    2.130294    1.329899
     77          1           0       13.508846    0.935530    2.242967
     78          1           0       12.756433    0.655457   -3.045695
     79          1           0       11.835055    1.766084   -1.959638
     80          1           0       13.429692    0.725023   -1.334043
     81          1           0       -5.580800    2.804354   -0.477582
     82          1           0        9.808712   -0.041006   -1.941187
     83          1           0       15.042930   -1.290337    0.587378
     84          1           0        8.404681    1.999622   -0.258963
     85          1           0       -2.269323    4.289209    0.246193
     86          1           0       -2.842437    4.337302   -1.498588
     87          1           0       -3.942001    4.477291   -0.199604
     88          1           0       -2.527864    0.474367   -0.306964
     89          1           0        6.836168   -1.900784    0.053167
     90          1           0        8.549621   -1.471160   -0.510519
     91          1           0        7.979280   -1.506400    1.088648
     92          1           0        6.381467    1.880977   -0.032229
     93          1           0       -0.661298    2.995792   -0.200470
     94          1           0        4.782760   -0.907429    0.214182
     95          1           0       -0.264234   -0.005087   -0.058444
     96          1           0        3.823426    1.914722    0.217039
     97          1           0        1.779703    2.165219   -0.224025
     98          1           0        1.244787   -1.291714    0.400933
     99          1           0        2.393358   -1.690442   -1.152578
    100          1           0        2.928167   -1.813743    0.809938
 ---------------------------------------------------------------------

 SCF Done:  E(RCAM-B3LYP) =  -1857.29365737     A.U. after   15 cycles

 Excitation energies and oscillator strengths:

 Excited State   1:      Singlet-A      1.9405 eV  638.93 nm  f=2.7987  <S**2>=0.000
     163 ->166        -0.11261
     164 ->165         0.70783
     164 <-165        -0.13423
 This state for optimization and/or second-order correction.
 Total Energy, E(TD-HF/TD-DFT) =  -1857.22234594
 Copying the excited state density for this state as the 1-particle RhoCI density.

 The electronic state is 1-A.
 Alpha  occ. eigenvalues --  -19.22585 -19.22141 -19.21131 -19.20925 -10.32843
 Alpha  occ. eigenvalues --  -10.32356 -10.32170 -10.31327 -10.30453 -10.28557
 Alpha  occ. eigenvalues --  -10.28256 -10.27975 -10.27951 -10.27942 -10.27547
 Alpha  occ. eigenvalues --  -10.27512 -10.27505 -10.27277 -10.27229 -10.26983
 Alpha  occ. eigenvalues --  -10.26857 -10.26714 -10.26711 -10.26708 -10.26581
 Alpha  occ. eigenvalues --  -10.26565 -10.26465 -10.25989 -10.25932 -10.25894
 Alpha  occ. eigenvalues --  -10.25707 -10.25638 -10.25260 -10.25259 -10.25186
 Alpha  occ. eigenvalues --  -10.24941 -10.24879 -10.24764 -10.24450 -10.23711
 Alpha  occ. eigenvalues --  -10.23681 -10.23484 -10.21897 -10.21648  -1.13158
 Alpha  occ. eigenvalues --   -1.10790  -1.08775  -1.06531  -0.94031  -0.92832
 Alpha  occ. eigenvalues --   -0.92059  -0.91739  -0.91176  -0.90393  -0.88228
 Alpha  occ. eigenvalues --   -0.86912  -0.86597  -0.85874  -0.85469  -0.83643
 Alpha  occ. eigenvalues --   -0.82688  -0.82044  -0.80263  -0.78831  -0.78825
 Alpha  occ. eigenvalues --   -0.77938  -0.77477  -0.76840  -0.76682  -0.76430
 Alpha  occ. eigenvalues --   -0.75398  -0.75068  -0.73073  -0.70394  -0.68999
 Alpha  occ. eigenvalues --   -0.68438  -0.66873  -0.65590  -0.65253  -0.64327
 Alpha  occ. eigenvalues --   -0.63757  -0.62326  -0.61248  -0.60963  -0.60066
 Alpha  occ. eigenvalues --   -0.59073  -0.58586  -0.57956  -0.57529  -0.57076
 Alpha  occ. eigenvalues --   -0.56696  -0.55858  -0.55434  -0.55093  -0.54618
 Alpha  occ. eigenvalues --   -0.53807  -0.53584  -0.53430  -0.53073  -0.52302
 Alpha  occ. eigenvalues --   -0.51820  -0.51176  -0.51085  -0.50499  -0.50270
 Alpha  occ. eigenvalues --   -0.50031  -0.49696  -0.49662  -0.49381  -0.48998
 Alpha  occ. eigenvalues --   -0.48647  -0.48475  -0.48293  -0.47855  -0.47234
 Alpha  occ. eigenvalues --   -0.47089  -0.46854  -0.45761  -0.45583  -0.45356
 Alpha  occ. eigenvalues --   -0.45189  -0.44973  -0.44949  -0.44577  -0.44214
 Alpha  occ. eigenvalues --   -0.44105  -0.43855  -0.43783  -0.43654  -0.43119
 Alpha  occ. eigenvalues --   -0.42761  -0.42209  -0.42188  -0.41639  -0.41367
 Alpha  occ. eigenvalues --   -0.41161  -0.40849  -0.40450  -0.40352  -0.40177
 Alpha  occ. eigenvalues --   -0.40074  -0.39943  -0.39614  -0.39316  -0.38963
 Alpha  occ. eigenvalues --   -0.38723  -0.38342  -0.38026  -0.37885  -0.37645
 Alpha  occ. eigenvalues --   -0.36941  -0.36272  -0.35325  -0.34552  -0.33602
 Alpha  occ. eigenvalues --   -0.32617  -0.31985  -0.31897  -0.31671  -0.31128
 Alpha  occ. eigenvalues --   -0.30067  -0.28475  -0.24801  -0.18999
 Alpha virt. eigenvalues --   -0.07050  -0.00402   0.03389   0.05669   0.07094
 Alpha virt. eigenvalues --    0.09785   0.10130   0.10633   0.12117   0.12596
 Alpha virt. eigenvalues --    0.12726   0.13259   0.13547   0.13927   0.14282

 Mulliken charges:
               1
     1  O   -0.524593
     2  O   -0.568637
     3  O   -0.564199
     4  O   -0.530708
     5  C    0.188449
     6  C    0.222185
     7  C   -0.016314
     8  C   -0.191870
     9  C   -0.177152
    10  C    0.145034
    11  C   -0.345884
    12  C   -0.102544
    13  C   -0.287872
    14  C   -0.290765
    15  C   -0.045970
    16  C    0.048875
    17  C   -0.384232
    18  C   -0.104030
    19  C   -0.051136
    20  C    0.011000
    21  C    0.254780
    22  C   -0.155601
    23  C    0.111501
    24  C   -0.169252
    25  C   -0.065372
    26  C   -0.292686
    27  C   -0.289609
    28  C   -0.311731
    29  C   -0.138644
    30  C    0.148969
    31  C    0.067667
    32  C   -0.305572
    33  C   -0.370832
    34  C   -0.112223
    35  C    0.101498
    36  C   -0.364374
    37  C   -0.120898
    38  C   -0.069563
    39  C   -0.086904
    40  C   -0.082106
    41  C   -0.107523
    42  C   -0.109616
    43  C    0.085044
    44  C   -0.352260
    45  H    0.113663
    46  H    0.113304
    47  H    0.092600
    48  H    0.105993
    49  H    0.100736
    50  H    0.125795
    51  H    0.108871
    52  H    0.119148
    53  H    0.107446
    54  H    0.104558
    55  H    0.112921
    56  H    0.081918
    57  H    0.129185
    58  H    0.099377
    59  H    0.091407
    60  H    0.305421
    61  H    0.052067
    62  H    0.122187
    63  H    0.140695
    64  H    0.106611
    65  H    0.067414
    66  H    0.086299
    67  H    0.075590
    68  H    0.103028
    69  H    0.046771
    70  H    0.104554
    71  H    0.123704
    72  H    0.102921
    73  H    0.105531
    74  H    0.105126
    75  H    0.128490
    76  H    0.082944
    77  H    0.093017
    78  H    0.109360
    79  H    0.082362
    80  H    0.115933
    81  H    0.091901
    82  H    0.303386
    83  H    0.309537
    84  H    0.105506
    85  H    0.128008
    86  H    0.124004
    87  H    0.113218
    88  H    0.081905
    89  H    0.099594
    90  H    0.130389
    91  H    0.133888
    92  H    0.076830
    93  H    0.082398
    94  H    0.088285
    95  H    0.067390
    96  H    0.087325
    97  H    0.077378
    98  H    0.131748
    99  H    0.114739
   100  H    0.091293
 Sum of Mulliken charges =  -0.00000

 Dipole moment (field-independent basis, Debye):
    X=              2.5092    Y=             -0.2535    Z=              2.2546  Tot=              3.3828
 Quadrupole moment (field-independent basis, Debye-Ang):
   XX=           -294.1243   YY=           -260.3328   ZZ=           -276.8137
   XY=            -11.0401   XZ=             42.0381   YZ=             -0.7437

 Normal termination of Gaussian 16 at Mon Jul 29 07:54:59 2019.
