 Gaussian 16, Revision A.03,
 Gaussian 16:  ES64L-G16RevA.03 25-Dec-2016

 -------------------------------------
 # td=(NStates=1) CAM-B3LYP/6-31G(d,p)
 -------------------------------------

 --
 TD
 --
 Symbolic Z-matrix:
 Charge =  0 Multiplicity = 1

                         Standard orientation:
 ---------------------------------------------------------------------
 Center     Atomic      Atomic             Coordinates (Angstroms)
 Number     Number       Type             X           Y           Z
 ---------------------------------------------------------------------
      1          8           0      -11.741961    0.322798   -1.571280
      2          8           0      -13.204939   -2.286430    1.541957
      3          8           0       10.652483   -0.837995   -2.198820
      4          8           0       14.674818   -0.843151   -0.188162
      5          6           0      -11.059437   -0.111176   -0.317043
      6          6           0      -11.743323   -1.158148   -1.176836
      7          6           0      -11.818741    0.523345    0.877090
      8          6           0      -13.128470   -1.781512   -0.884156
      9          6           0      -13.327866    0.216590    0.899588
     10          6           0      -13.679400   -1.231193    0.557040
     11          6           0      -10.793490   -2.022703   -1.981380
     12          6           0       -9.610990    0.077127   -0.356587
     13          6           0      -11.175758    0.165923    2.319903
     14          6           0      -11.645618    2.072922    0.693706
     15          6           0       -8.726462   -0.822267    0.059344
     16          6           0       -7.284786   -0.765718    0.175658
     17          6           0       -6.433064   -1.965708    0.408203
     18          6           0       -6.684189    0.412020   -0.118191
     19          6           0       -5.283486    0.735002   -0.222362
     20          6           0       12.061095    0.047392    1.352142
     21          6           0       11.722514   -0.381015   -1.352879
     22          6           0       12.918719   -1.300284    1.471337
     23          6           0       13.543691   -1.596210    0.038853
     24          6           0       12.507979   -1.684257   -1.065434
     25          6           0       11.149291    0.094358    0.077472
     26          6           0       11.135168    0.107407    2.611356
     27          6           0       12.950489    1.302780    1.417706
     28          6           0       12.511886    0.743372   -1.993655
     29          6           0       -4.764052    1.997890   -0.417328
     30          6           0        9.923728    0.432059    0.210191
     31          6           0       -3.411529    2.342935   -0.465007
     32          6           0        8.668307    0.828848    0.073941
     33          6           0       -3.071697    3.837300   -0.695141
     34          6           0       -2.379350    1.436327   -0.310042
     35          6           0        7.517630    0.038929    0.106057
     36          6           0        7.574414   -1.546162    0.364988
     37          6           0        6.264351    0.625978    0.036904
     38          6           0       -1.005883    1.747031   -0.275996
     39          6           0        4.951567    0.086552    0.094692
     40          6           0        0.011461    0.682845   -0.266782
     41          6           0        3.670582    0.776290   -0.033420
     42          6           0        1.357880    1.096042   -0.195850
     43          6           0        2.459002    0.233393   -0.006841
     44          6           0        2.429495   -1.309090    0.102945
     45          1           0      -12.957881   -2.887710   -0.955436
     46          1           0      -13.861232   -1.286893   -1.546613
     47          1           0      -13.571877    0.551378    1.868050
     48          1           0      -13.699536    0.815527    0.040374
     49          1           0      -14.880885   -1.447461    0.457893
     50          1           0      -10.569902   -2.930297   -1.448908
     51          1           0      -11.281966   -2.319559   -3.008956
     52          1           0       -9.919906   -1.468899   -2.287516
     53          1           0       -9.224604    0.972607   -0.870145
     54          1           0      -10.114537    0.571359    2.517170
     55          1           0      -11.832374    0.652930    2.998016
     56          1           0      -11.122374   -0.893190    2.429578
     57          1           0      -12.326708    2.447920   -0.108619
     58          1           0      -12.303921    2.645505    1.521102
     59          1           0      -10.522364    2.579559    0.512630
     60          1           0      -12.170933   -2.216340    1.610968
     61          1           0       -9.371849   -1.600949    0.528220
     62          1           0       -6.274059   -2.419298   -0.648079
     63          1           0       -5.448296   -1.709464    0.980915
     64          1           0       -7.031361   -2.812961    0.729569
     65          1           0       -7.364726    1.373414   -0.499851
     66          1           0       -4.583304   -0.045720   -0.256619
     67          1           0       13.540134   -1.079490    2.287508
     68          1           0       12.363662   -2.305214    1.698362
     69          1           0       13.827059   -2.753888    0.211640
     70          1           0       12.942733   -1.792208   -2.119027
     71          1           0       11.747567   -2.526759   -0.797274
     72          1           0       11.881737   -0.362238    3.420274
     73          1           0       10.603271    1.016151    2.735530
     74          1           0       10.252683   -0.615079    2.492024
     75          1           0       13.744434    1.471483    0.777043
     76          1           0       12.350582    2.206632    1.618091
     77          1           0       13.414285    1.268766    2.377418
     78          1           0       12.794933    0.441544   -3.127295
     79          1           0       11.984389    1.761414   -1.935932
     80          1           0       13.241653    1.029501   -1.506129
     81          1           0       -5.512650    2.698806   -0.635471
     82          1           0       10.047575    0.031441   -2.377323
     83          1           0       15.303854   -0.943889    0.538937
     84          1           0        8.245158    1.875476    0.036041
     85          1           0       -2.351694    4.178441   -0.131596
     86          1           0       -2.526027    4.032423   -1.535199
     87          1           0       -3.978550    4.633007   -0.607881
     88          1           0       -2.463962    0.356346   -0.131520
     89          1           0        6.811979   -2.004829   -0.210449
     90          1           0        8.189036   -2.061614   -0.414161
     91          1           0        7.828189   -1.848114    1.334540
     92          1           0        6.346220    1.821196    0.024861
     93          1           0       -0.807800    2.910685   -0.176471
     94          1           0        4.900056   -0.936700    0.209944
     95          1           0       -0.305935   -0.403618   -0.370934
     96          1           0        4.059307    1.843468   -0.026304
     97          1           0        1.737698    2.057049   -0.224580
     98          1           0        1.501775   -1.915389    0.491524
     99          1           0        2.777560   -1.767794   -0.968495
    100          1           0        3.090528   -1.641525    0.923889
 ---------------------------------------------------------------------

 SCF Done:  E(RCAM-B3LYP) =  -1857.27803078     A.U. after   15 cycles

 Excitation energies and oscillator strengths:

 Excited State   1:      Singlet-A      1.9210 eV  645.40 nm  f=3.3239  <S**2>=0.000
     163 ->166        -0.12802
     164 ->165         0.70082
     164 <-165        -0.11778
 This state for optimization and/or second-order correction.
 Total Energy, E(TD-HF/TD-DFT) =  -1857.20743388
 Copying the excited state density for this state as the 1-particle RhoCI density.

 The electronic state is 1-A.
 Alpha  occ. eigenvalues --  -19.22632 -19.21843 -19.21479 -19.21139 -10.33215
 Alpha  occ. eigenvalues --  -10.32555 -10.32519 -10.32479 -10.31721 -10.28650
 Alpha  occ. eigenvalues --  -10.28560 -10.28545 -10.28332 -10.28037 -10.27857
 Alpha  occ. eigenvalues --  -10.27804 -10.27642 -10.27391 -10.27366 -10.27345
 Alpha  occ. eigenvalues --  -10.27307 -10.27031 -10.26956 -10.26949 -10.26733
 Alpha  occ. eigenvalues --  -10.26721 -10.26701 -10.26431 -10.26385 -10.26277
 Alpha  occ. eigenvalues --  -10.26259 -10.26127 -10.26097 -10.26044 -10.25983
 Alpha  occ. eigenvalues --  -10.25912 -10.25851 -10.25667 -10.25618 -10.25442
 Alpha  occ. eigenvalues --  -10.25149 -10.24727 -10.24515 -10.24098  -1.11836
 Alpha  occ. eigenvalues --   -1.10421  -1.07658  -1.05060  -0.92518  -0.92214
 Alpha  occ. eigenvalues --   -0.91888  -0.91186  -0.90118  -0.89956  -0.86998
 Alpha  occ. eigenvalues --   -0.85921  -0.85695  -0.85462  -0.84614  -0.83103
 Alpha  occ. eigenvalues --   -0.81876  -0.80476  -0.80318  -0.78635  -0.77631
 Alpha  occ. eigenvalues --   -0.76973  -0.76605  -0.76290  -0.75693  -0.75482
 Alpha  occ. eigenvalues --   -0.75211  -0.74330  -0.72852  -0.70643  -0.69592
 Alpha  occ. eigenvalues --   -0.68448  -0.67139  -0.64853  -0.64253  -0.63835
 Alpha  occ. eigenvalues --   -0.63246  -0.62503  -0.60818  -0.59866  -0.59445
 Alpha  occ. eigenvalues --   -0.59352  -0.58134  -0.57358  -0.56740  -0.56487
 Alpha  occ. eigenvalues --   -0.56218  -0.55494  -0.54584  -0.54314  -0.53681
 Alpha  occ. eigenvalues --   -0.52966  -0.52874  -0.52608  -0.52001  -0.51711
 Alpha  occ. eigenvalues --   -0.51044  -0.50757  -0.50599  -0.49969  -0.49391
 Alpha  occ. eigenvalues --   -0.49234  -0.49150  -0.48837  -0.48463  -0.48155
 Alpha  occ. eigenvalues --   -0.48072  -0.47867  -0.47524  -0.47290  -0.46556
 Alpha  occ. eigenvalues --   -0.46384  -0.45538  -0.45385  -0.44929  -0.44667
 Alpha  occ. eigenvalues --   -0.44479  -0.44300  -0.43923  -0.43806  -0.43509
 Alpha  occ. eigenvalues --   -0.43154  -0.42994  -0.42886  -0.42831  -0.42591
 Alpha  occ. eigenvalues --   -0.42481  -0.41964  -0.41658  -0.41623  -0.41021
 Alpha  occ. eigenvalues --   -0.40676  -0.40465  -0.40347  -0.40068  -0.39732
 Alpha  occ. eigenvalues --   -0.39660  -0.39493  -0.39163  -0.38712  -0.38340
 Alpha  occ. eigenvalues --   -0.37967  -0.37844  -0.37354  -0.37110  -0.36950
 Alpha  occ. eigenvalues --   -0.36921  -0.36381  -0.35561  -0.34511  -0.33921
 Alpha  occ. eigenvalues --   -0.32867  -0.32012  -0.31758  -0.31163  -0.30595
 Alpha  occ. eigenvalues --   -0.29636  -0.27981  -0.24247  -0.18689
 Alpha virt. eigenvalues --   -0.06929  -0.01046   0.03274   0.06873   0.07332
 Alpha virt. eigenvalues --    0.08873   0.09804   0.10143   0.10984   0.11739
 Alpha virt. eigenvalues --    0.12242   0.12720   0.13120   0.13360   0.13730

 Mulliken charges:
               1
     1  O   -0.528398
     2  O   -0.573575
     3  O   -0.571832
     4  O   -0.537088
     5  C    0.179797
     6  C    0.239202
     7  C    0.004046
     8  C   -0.204764
     9  C   -0.174141
    10  C    0.134983
    11  C   -0.337774
    12  C   -0.081914
    13  C   -0.301202
    14  C   -0.300854
    15  C   -0.087574
    16  C    0.098145
    17  C   -0.372344
    18  C   -0.110579
    19  C   -0.067992
    20  C   -0.003830
    21  C    0.252032
    22  C   -0.196916
    23  C    0.172134
    24  C   -0.178437
    25  C   -0.078284
    26  C   -0.296209
    27  C   -0.312888
    28  C   -0.294336
    29  C   -0.116401
    30  C    0.164344
    31  C    0.097282
    32  C   -0.295559
    33  C   -0.380750
    34  C   -0.110863
    35  C    0.134183
    36  C   -0.377099
    37  C   -0.124005
    38  C   -0.086952
    39  C   -0.105713
    40  C   -0.119388
    41  C   -0.113849
    42  C   -0.092541
    43  C    0.111042
    44  C   -0.372996
    45  H    0.121986
    46  H    0.125844
    47  H    0.117309
    48  H    0.124382
    49  H    0.090087
    50  H    0.110298
    51  H    0.096002
    52  H    0.135718
    53  H    0.099876
    54  H    0.109346
    55  H    0.113822
    56  H    0.080209
    57  H    0.120337
    58  H    0.072680
    59  H    0.094832
    60  H    0.301894
    61  H    0.059604
    62  H    0.120289
    63  H    0.124195
    64  H    0.115705
    65  H    0.064400
    66  H    0.081500
    67  H    0.095634
    68  H    0.090330
    69  H    0.044114
    70  H    0.115977
    71  H    0.122028
    72  H    0.076503
    73  H    0.117006
    74  H    0.100679
    75  H    0.126177
    76  H    0.105814
    77  H    0.094521
    78  H    0.097368
    79  H    0.086274
    80  H    0.134811
    81  H    0.079194
    82  H    0.310434
    83  H    0.317676
    84  H    0.095710
    85  H    0.130635
    86  H    0.132274
    87  H    0.098789
    88  H    0.083693
    89  H    0.116199
    90  H    0.114715
    91  H    0.133754
    92  H    0.050981
    93  H    0.078722
    94  H    0.073921
    95  H    0.107576
    96  H    0.081064
    97  H    0.088426
    98  H    0.096187
    99  H    0.113329
   100  H    0.129024
 Sum of Mulliken charges =  -0.00000

 Dipole moment (field-independent basis, Debye):
    X=              4.1487    Y=              0.0293    Z=              1.6063  Tot=              4.4489
 Quadrupole moment (field-independent basis, Debye-Ang):
   XX=           -267.7798   YY=           -258.0271   ZZ=           -281.3618
   XY=             -1.8529   XZ=             28.4353   YZ=             -0.1259

 Normal termination of Gaussian 16 at Mon Jul 29 06:20:52 2019.
