 Gaussian 16, Revision A.03,
 Gaussian 16:  ES64L-G16RevA.03 25-Dec-2016

 -------------------------------------
 # td=(NStates=1) CAM-B3LYP/6-31G(d,p)
 -------------------------------------

 --
 TD
 --
 Symbolic Z-matrix:
 Charge =  0 Multiplicity = 1

                         Standard orientation:
 ---------------------------------------------------------------------
 Center     Atomic      Atomic             Coordinates (Angstroms)
 Number     Number       Type             X           Y           Z
 ---------------------------------------------------------------------
      1          8           0      -11.877616    0.237854   -1.464495
      2          8           0      -12.933568   -2.565880    1.346991
      3          8           0       10.587686   -1.072421   -2.118074
      4          8           0       14.522314   -1.059704   -0.223808
      5          6           0      -11.036203   -0.162055   -0.338279
      6          6           0      -11.700844   -1.213539   -1.223025
      7          6           0      -11.731527    0.285842    0.981643
      8          6           0      -13.046792   -1.689271   -0.870069
      9          6           0      -13.237693   -0.132745    0.993434
     10          6           0      -13.514736   -1.589011    0.603425
     11          6           0      -10.936339   -1.912310   -2.297827
     12          6           0       -9.620762    0.047942   -0.441594
     13          6           0      -10.930690   -0.254667    2.203637
     14          6           0      -11.744517    1.843692    1.045604
     15          6           0       -8.687443   -0.849275   -0.021740
     16          6           0       -7.233153   -0.665472    0.030716
     17          6           0       -6.378152   -1.864532    0.256765
     18          6           0       -6.621569    0.607144   -0.087380
     19          6           0       -5.261664    0.909027   -0.048707
     20          6           0       11.965957   -0.126036    1.374923
     21          6           0       11.615549   -0.705214   -1.331701
     22          6           0       12.705128   -1.365520    1.413572
     23          6           0       13.397270   -1.756194    0.171256
     24          6           0       12.464274   -1.919199   -0.989074
     25          6           0       11.064392   -0.090726    0.045099
     26          6           0       11.024284    0.027821    2.504280
     27          6           0       12.853625    1.110183    1.452578
     28          6           0       12.543414    0.359163   -2.018972
     29          6           0       -4.799591    2.193485   -0.428230
     30          6           0        9.943843    0.493841    0.056534
     31          6           0       -3.447629    2.661184   -0.473779
     32          6           0        8.698696    1.060769    0.033704
     33          6           0       -3.137433    4.047654   -0.872971
     34          6           0       -2.289100    1.712612   -0.163244
     35          6           0        7.458255    0.274767    0.121533
     36          6           0        7.644493   -1.254571    0.164858
     37          6           0        6.265876    0.817030    0.038202
     38          6           0       -0.950174    2.075708   -0.241490
     39          6           0        4.975793    0.257453    0.114559
     40          6           0        0.101939    1.170477   -0.146219
     41          6           0        3.852321    1.057701   -0.039291
     42          6           0        1.524646    1.393740   -0.002067
     43          6           0        2.439259    0.520428    0.047079
     44          6           0        2.279711   -1.005714    0.243348
     45          1           0      -13.138381   -2.865700   -0.925805
     46          1           0      -13.877149   -1.109213   -1.509972
     47          1           0      -13.552309    0.023943    2.077936
     48          1           0      -13.684904    0.590599    0.496936
     49          1           0      -14.602862   -1.803787    0.674257
     50          1           0      -10.776529   -2.801403   -1.928629
     51          1           0      -11.645238   -1.849575   -3.366273
     52          1           0       -9.993351   -1.382962   -2.352108
     53          1           0       -9.412264    0.955501   -0.933403
     54          1           0      -10.111168    0.228114    2.334805
     55          1           0      -11.488474    0.112410    3.233395
     56          1           0      -11.251625   -1.346570    2.104012
     57          1           0      -12.144476    2.307891   -0.053781
     58          1           0      -12.349418    2.122031    1.874428
     59          1           0      -10.722825    2.124895    1.462631
     60          1           0      -12.049423   -2.654382    0.933308
     61          1           0       -8.957580   -1.762461    0.454385
     62          1           0       -6.038196   -2.178474   -0.728326
     63          1           0       -5.467045   -1.844466    0.980067
     64          1           0       -6.895140   -2.693879    0.812796
     65          1           0       -7.361265    1.184499   -0.312917
     66          1           0       -4.476011    0.052099   -0.286045
     67          1           0       13.549272   -1.518315    2.010548
     68          1           0       12.057003   -2.335245    1.680578
     69          1           0       13.633297   -2.833744    0.384756
     70          1           0       12.978953   -1.961204   -2.101332
     71          1           0       11.725260   -2.804348   -0.640162
     72          1           0       11.325882   -0.282085    3.636734
     73          1           0       10.513772    0.936662    2.649978
     74          1           0       10.251469   -0.603992    2.477244
     75          1           0       13.444869    1.171995    0.629683
     76          1           0       12.341468    2.002744    1.420614
     77          1           0       13.684038    1.071363    2.328686
     78          1           0       12.558450   -0.071892   -3.158385
     79          1           0       12.304054    1.475548   -1.941915
     80          1           0       13.699631    0.344804   -1.671153
     81          1           0       -5.708295    2.995755   -0.434141
     82          1           0        9.971333   -0.305410   -2.173740
     83          1           0       15.272090   -1.184000    0.474335
     84          1           0        8.652874    2.088808   -0.011302
     85          1           0       -2.595307    4.671092   -0.120010
     86          1           0       -2.408218    4.231159   -1.774104
     87          1           0       -4.036422    4.726707   -1.004369
     88          1           0       -2.799707    0.687513    0.081664
     89          1           0        6.662815   -1.825320   -0.069940
     90          1           0        8.380505   -1.782914   -0.646795
     91          1           0        8.075626   -1.670350    1.046184
     92          1           0        6.447966    2.093669   -0.337449
     93          1           0       -0.684139    3.043107   -0.278933
     94          1           0        5.218682   -0.784512   -0.016294
     95          1           0       -0.208670    0.141246   -0.105033
     96          1           0        3.932850    2.161750    0.057089
     97          1           0        1.710044    2.424603   -0.055728
     98          1           0        1.293562   -1.378876    0.331458
     99          1           0        2.789101   -1.682849   -0.518493
    100          1           0        2.494700   -1.201045    1.316590
 ---------------------------------------------------------------------

 SCF Done:  E(RCAM-B3LYP) =  -1857.21597869     A.U. after   15 cycles

 Excitation energies and oscillator strengths:

 Excited State   1:      Singlet-A      2.1002 eV  590.33 nm  f=2.3967  <S**2>=0.000
     163 ->166         0.11417
     164 ->165         0.70090
     164 <-165        -0.10805
 This state for optimization and/or second-order correction.
 Total Energy, E(TD-HF/TD-DFT) =  -1857.13879644
 Copying the excited state density for this state as the 1-particle RhoCI density.

 The electronic state is 1-A.
 Alpha  occ. eigenvalues --  -19.23416 -19.22732 -19.22038 -19.21371 -10.32322
 Alpha  occ. eigenvalues --  -10.31797 -10.31701 -10.30754 -10.30454 -10.28926
 Alpha  occ. eigenvalues --  -10.28588 -10.28402 -10.28173 -10.27908 -10.27695
 Alpha  occ. eigenvalues --  -10.27664 -10.27660 -10.27549 -10.27401 -10.27250
 Alpha  occ. eigenvalues --  -10.27178 -10.27044 -10.26848 -10.26764 -10.26739
 Alpha  occ. eigenvalues --  -10.26731 -10.26722 -10.26696 -10.26694 -10.26591
 Alpha  occ. eigenvalues --  -10.26532 -10.26248 -10.26219 -10.26209 -10.26157
 Alpha  occ. eigenvalues --  -10.25785 -10.25706 -10.25669 -10.25235 -10.25100
 Alpha  occ. eigenvalues --  -10.24585 -10.24022 -10.23501 -10.23369  -1.13363
 Alpha  occ. eigenvalues --   -1.12663  -1.12534  -1.11345  -0.94072  -0.92573
 Alpha  occ. eigenvalues --   -0.91863  -0.91264  -0.90228  -0.89482  -0.87371
 Alpha  occ. eigenvalues --   -0.86782  -0.86369  -0.86074  -0.85131  -0.83564
 Alpha  occ. eigenvalues --   -0.82353  -0.81061  -0.80655  -0.78765  -0.77355
 Alpha  occ. eigenvalues --   -0.76846  -0.76516  -0.76426  -0.75850  -0.75017
 Alpha  occ. eigenvalues --   -0.74767  -0.74618  -0.73227  -0.70697  -0.70260
 Alpha  occ. eigenvalues --   -0.69093  -0.67275  -0.66202  -0.66008  -0.64050
 Alpha  occ. eigenvalues --   -0.63863  -0.61825  -0.61611  -0.59995  -0.59881
 Alpha  occ. eigenvalues --   -0.59100  -0.58891  -0.58442  -0.57952  -0.56547
 Alpha  occ. eigenvalues --   -0.56029  -0.55528  -0.55026  -0.54705  -0.54419
 Alpha  occ. eigenvalues --   -0.53997  -0.53850  -0.53565  -0.53010  -0.52190
 Alpha  occ. eigenvalues --   -0.51818  -0.51519  -0.51380  -0.50714  -0.49839
 Alpha  occ. eigenvalues --   -0.49689  -0.49511  -0.49061  -0.48880  -0.48756
 Alpha  occ. eigenvalues --   -0.48366  -0.47428  -0.46903  -0.46696  -0.46538
 Alpha  occ. eigenvalues --   -0.46215  -0.46043  -0.45913  -0.45854  -0.45375
 Alpha  occ. eigenvalues --   -0.44769  -0.44486  -0.44253  -0.43566  -0.43514
 Alpha  occ. eigenvalues --   -0.43301  -0.43196  -0.43012  -0.42619  -0.42444
 Alpha  occ. eigenvalues --   -0.42226  -0.42211  -0.41798  -0.41454  -0.41138
 Alpha  occ. eigenvalues --   -0.40717  -0.40518  -0.39880  -0.39734  -0.39492
 Alpha  occ. eigenvalues --   -0.39406  -0.39078  -0.39043  -0.38886  -0.38285
 Alpha  occ. eigenvalues --   -0.37921  -0.37549  -0.37376  -0.36708  -0.36595
 Alpha  occ. eigenvalues --   -0.36259  -0.35992  -0.35280  -0.34930  -0.34150
 Alpha  occ. eigenvalues --   -0.33048  -0.32893  -0.31813  -0.31514  -0.30915
 Alpha  occ. eigenvalues --   -0.30436  -0.27706  -0.24493  -0.19977
 Alpha virt. eigenvalues --   -0.06421  -0.00994   0.02312   0.05983   0.07743
 Alpha virt. eigenvalues --    0.08290   0.08666   0.09398   0.11076   0.11324
 Alpha virt. eigenvalues --    0.11920   0.12568   0.12790   0.13198   0.14018

 Mulliken charges:
               1
     1  O   -0.524424
     2  O   -0.509797
     3  O   -0.539095
     4  O   -0.537823
     5  C    0.233225
     6  C    0.190613
     7  C   -0.005260
     8  C   -0.226153
     9  C   -0.168983
    10  C    0.153370
    11  C   -0.288944
    12  C   -0.128737
    13  C   -0.283616
    14  C   -0.315098
    15  C   -0.067975
    16  C    0.039444
    17  C   -0.385949
    18  C   -0.045995
    19  C   -0.091210
    20  C    0.048935
    21  C    0.288336
    22  C   -0.160627
    23  C    0.147043
    24  C   -0.167702
    25  C   -0.138864
    26  C   -0.305359
    27  C   -0.293114
    28  C   -0.342507
    29  C   -0.121544
    30  C    0.140232
    31  C    0.096472
    32  C   -0.259411
    33  C   -0.392259
    34  C   -0.104949
    35  C    0.145386
    36  C   -0.395397
    37  C   -0.108261
    38  C   -0.071374
    39  C   -0.073332
    40  C   -0.093291
    41  C   -0.133147
    42  C   -0.113876
    43  C    0.129593
    44  C   -0.375062
    45  H    0.076942
    46  H    0.115232
    47  H    0.082425
    48  H    0.114763
    49  H    0.092721
    50  H    0.112473
    51  H    0.097108
    52  H    0.123354
    53  H    0.118764
    54  H    0.119593
    55  H    0.064595
    56  H    0.095612
    57  H    0.106083
    58  H    0.112999
    59  H    0.086090
    60  H    0.305600
    61  H    0.082485
    62  H    0.134173
    63  H    0.110400
    64  H    0.099507
    65  H    0.055606
    66  H    0.092685
    67  H    0.087733
    68  H    0.085528
    69  H    0.073520
    70  H    0.094274
    71  H    0.089398
    72  H    0.065582
    73  H    0.113767
    74  H    0.111092
    75  H    0.119779
    76  H    0.110148
    77  H    0.074888
    78  H    0.089727
    79  H    0.097154
    80  H    0.136517
    81  H    0.082188
    82  H    0.313502
    83  H    0.313092
    84  H    0.105345
    85  H    0.121795
    86  H    0.115902
    87  H    0.107697
    88  H    0.082592
    89  H    0.094733
    90  H    0.117124
    91  H    0.132441
    92  H    0.031800
    93  H    0.080953
    94  H    0.091030
    95  H    0.072294
    96  H    0.100287
    97  H    0.077001
    98  H    0.116298
    99  H    0.122094
   100  H    0.130003
 Sum of Mulliken charges =  -0.00000

 Dipole moment (field-independent basis, Debye):
    X=              4.5625    Y=             -0.5100    Z=              1.6781  Tot=              4.8880
 Quadrupole moment (field-independent basis, Debye-Ang):
   XX=           -270.9386   YY=           -259.0207   ZZ=           -282.8253
   XY=             -3.4124   XZ=             29.1298   YZ=             -2.3728

 Normal termination of Gaussian 16 at Mon Jul 29 19:04:23 2019.
