 Gaussian 16, Revision A.03,
 Gaussian 16:  ES64L-G16RevA.03 25-Dec-2016

 -------------------------------------
 # td=(NStates=1) CAM-B3LYP/6-31G(d,p)
 -------------------------------------

 --
 TD
 --
 Symbolic Z-matrix:
 Charge =  0 Multiplicity = 1

                         Standard orientation:
 ---------------------------------------------------------------------
 Center     Atomic      Atomic             Coordinates (Angstroms)
 Number     Number       Type             X           Y           Z
 ---------------------------------------------------------------------
      1          8           0      -11.733208    0.414324   -1.421841
      2          8           0      -13.041782   -2.582994    1.422498
      3          8           0       10.699240   -1.114177   -2.011267
      4          8           0       14.494831   -0.867137   -0.194622
      5          6           0      -11.112340   -0.078782   -0.316982
      6          6           0      -11.708631   -1.051646   -1.163024
      7          6           0      -11.808685    0.308543    1.048701
      8          6           0      -13.035926   -1.718019   -0.889851
      9          6           0      -13.278004   -0.118420    1.041966
     10          6           0      -13.512645   -1.548188    0.579312
     11          6           0      -10.908692   -1.813590   -2.227820
     12          6           0       -9.638308    0.268878   -0.360167
     13          6           0      -10.969894   -0.273864    2.238043
     14          6           0      -11.642578    1.845434    1.158428
     15          6           0       -8.609509   -0.632929   -0.210066
     16          6           0       -7.321752   -0.482781    0.014285
     17          6           0       -6.346796   -1.732662    0.207484
     18          6           0       -6.666417    0.745768   -0.208793
     19          6           0       -5.283571    0.957904   -0.221962
     20          6           0       11.947228    0.214494    1.385761
     21          6           0       11.746805   -0.567400   -1.140417
     22          6           0       12.770762   -1.236157    1.520175
     23          6           0       13.430095   -1.699821    0.262768
     24          6           0       12.452972   -1.836915   -0.922606
     25          6           0       11.049743    0.019055    0.045701
     26          6           0       10.944627    0.256533    2.643457
     27          6           0       12.824789    1.316865    1.265909
     28          6           0       12.525386    0.374141   -2.081741
     29          6           0       -4.733068    2.235123   -0.421343
     30          6           0        9.924971    0.471565    0.078626
     31          6           0       -3.304368    2.529793   -0.515096
     32          6           0        8.634189    0.896198   -0.236526
     33          6           0       -2.957366    3.984677   -0.738038
     34          6           0       -2.307119    1.489579   -0.205567
     35          6           0        7.411158    0.050048   -0.047075
     36          6           0        7.667037   -1.417199    0.108389
     37          6           0        6.183744    0.620825    0.005786
     38          6           0       -0.904731    1.817140   -0.350629
     39          6           0        4.924928   -0.036633    0.089192
     40          6           0       -0.006803    0.719177   -0.116217
     41          6           0        3.787897    0.762296    0.132127
     42          6           0        1.364813    1.078622   -0.087991
     43          6           0        2.441424    0.182802    0.154364
     44          6           0        2.228608   -1.199793    0.224567
     45          1           0      -13.226217   -2.806786   -0.995084
     46          1           0      -13.758823   -1.228726   -1.716941
     47          1           0      -13.696262   -0.059290    1.900103
     48          1           0      -13.677678    0.448709    0.299952
     49          1           0      -14.631754   -1.637563    0.446638
     50          1           0      -10.367166   -2.663367   -1.740446
     51          1           0      -11.605091   -2.097086   -2.994939
     52          1           0      -10.204177   -0.960298   -2.603121
     53          1           0       -9.368586    1.601163   -0.546487
     54          1           0      -10.167542    0.007316    2.062332
     55          1           0      -11.564872   -0.001600    3.206133
     56          1           0      -10.827211   -1.359643    2.103815
     57          1           0      -11.973816    2.230145    0.066725
     58          1           0      -12.376991    2.229299    1.887810
     59          1           0      -10.699817    2.187905    1.360422
     60          1           0      -12.073502   -2.669529    1.327233
     61          1           0       -8.963844   -1.634569   -0.251444
     62          1           0       -5.356958   -1.673310   -0.501630
     63          1           0       -6.009573   -1.670461    1.358570
     64          1           0       -6.888349   -2.779131    0.071367
     65          1           0       -7.273917    1.599550   -0.498250
     66          1           0       -4.579346    0.120089    0.108422
     67          1           0       13.579340   -1.286933    2.262763
     68          1           0       12.021114   -1.997543    1.687158
     69          1           0       13.844325   -2.699528    0.488960
     70          1           0       13.062865   -2.207291   -1.832893
     71          1           0       11.634575   -2.585719   -0.628384
     72          1           0       11.378760    0.432591    3.700238
     73          1           0       10.375489    1.208754    2.425400
     74          1           0       10.217080   -0.559171    2.600704
     75          1           0       13.696990    1.225730    0.467998
     76          1           0       12.308652    2.232791    1.322892
     77          1           0       13.813128    1.460688    2.241656
     78          1           0       12.475835   -0.101041   -3.083359
     79          1           0       11.933898    1.270647   -2.180792
     80          1           0       13.617465    0.659831   -1.511047
     81          1           0       -5.335865    3.054458   -0.823747
     82          1           0       10.291940   -0.337007   -2.401126
     83          1           0       14.956734   -0.738305    0.475182
     84          1           0        8.552037    1.939227   -0.456815
     85          1           0       -2.585995    4.524225    0.146006
     86          1           0       -1.959001    4.150182   -1.234496
     87          1           0       -3.820840    4.371325   -1.235558
     88          1           0       -2.631823    0.479295   -0.098380
     89          1           0        6.676966   -1.997835    0.058508
     90          1           0        8.424258   -1.785585   -0.707574
     91          1           0        8.113289   -1.519021    1.051133
     92          1           0        6.211532    1.750757    0.157317
     93          1           0       -0.583343    2.974368   -0.764340
     94          1           0        4.912723   -1.111316    0.231825
     95          1           0       -0.472950   -0.081168    0.042155
     96          1           0        3.843144    1.852490    0.164214
     97          1           0        1.621331    2.133720   -0.540924
     98          1           0        1.105598   -1.594730   -0.014173
     99          1           0        2.924975   -1.717706   -0.533904
    100          1           0        2.510777   -1.588105    1.355294
 ---------------------------------------------------------------------

 SCF Done:  E(RCAM-B3LYP) =  -1857.19330866     A.U. after   16 cycles

 Excitation energies and oscillator strengths:

 Excited State   1:      Singlet-A      1.9233 eV  644.65 nm  f=2.8122  <S**2>=0.000
     163 ->166         0.12940
     164 ->165         0.69894
     164 <-165        -0.10703
 This state for optimization and/or second-order correction.
 Total Energy, E(TD-HF/TD-DFT) =  -1857.12262963
 Copying the excited state density for this state as the 1-particle RhoCI density.

 The electronic state is 1-A.
 Alpha  occ. eigenvalues --  -19.22141 -19.21928 -19.21054 -19.20198 -10.32097
 Alpha  occ. eigenvalues --  -10.31571 -10.31332 -10.30665 -10.30466 -10.29545
 Alpha  occ. eigenvalues --  -10.29359 -10.29027 -10.28602 -10.28555 -10.28003
 Alpha  occ. eigenvalues --  -10.27842 -10.27424 -10.27370 -10.27368 -10.27326
 Alpha  occ. eigenvalues --  -10.27284 -10.27269 -10.27265 -10.27140 -10.26972
 Alpha  occ. eigenvalues --  -10.26778 -10.26770 -10.26561 -10.26522 -10.26402
 Alpha  occ. eigenvalues --  -10.26310 -10.26306 -10.26123 -10.26105 -10.26078
 Alpha  occ. eigenvalues --  -10.25985 -10.25906 -10.25874 -10.25568 -10.25464
 Alpha  occ. eigenvalues --  -10.25423 -10.24178 -10.23155 -10.22327  -1.16860
 Alpha  occ. eigenvalues --   -1.14141  -1.09804  -1.09141  -0.93130  -0.92275
 Alpha  occ. eigenvalues --   -0.91930  -0.90734  -0.90399  -0.89716  -0.87391
 Alpha  occ. eigenvalues --   -0.86853  -0.86658  -0.85635  -0.84704  -0.83025
 Alpha  occ. eigenvalues --   -0.82463  -0.80883  -0.79884  -0.78222  -0.77174
 Alpha  occ. eigenvalues --   -0.76643  -0.76111  -0.75993  -0.75659  -0.75487
 Alpha  occ. eigenvalues --   -0.75288  -0.74145  -0.72298  -0.71107  -0.70275
 Alpha  occ. eigenvalues --   -0.68004  -0.66624  -0.65738  -0.64605  -0.63872
 Alpha  occ. eigenvalues --   -0.63605  -0.63351  -0.60564  -0.59855  -0.59528
 Alpha  occ. eigenvalues --   -0.58523  -0.58277  -0.57601  -0.57312  -0.57173
 Alpha  occ. eigenvalues --   -0.55871  -0.55196  -0.54813  -0.54126  -0.53696
 Alpha  occ. eigenvalues --   -0.53307  -0.53177  -0.52887  -0.52400  -0.52217
 Alpha  occ. eigenvalues --   -0.51711  -0.50843  -0.50327  -0.50200  -0.50060
 Alpha  occ. eigenvalues --   -0.49504  -0.49001  -0.48753  -0.48421  -0.48255
 Alpha  occ. eigenvalues --   -0.47805  -0.47726  -0.47402  -0.47237  -0.46818
 Alpha  occ. eigenvalues --   -0.46398  -0.46143  -0.45958  -0.45688  -0.45385
 Alpha  occ. eigenvalues --   -0.45257  -0.45169  -0.44943  -0.44157  -0.44105
 Alpha  occ. eigenvalues --   -0.43776  -0.43579  -0.43467  -0.43069  -0.42855
 Alpha  occ. eigenvalues --   -0.42331  -0.42169  -0.42025  -0.41634  -0.41197
 Alpha  occ. eigenvalues --   -0.41064  -0.40799  -0.40659  -0.40413  -0.40112
 Alpha  occ. eigenvalues --   -0.39408  -0.39127  -0.38921  -0.38656  -0.38486
 Alpha  occ. eigenvalues --   -0.38017  -0.37841  -0.37635  -0.37211  -0.36801
 Alpha  occ. eigenvalues --   -0.35955  -0.35622  -0.35076  -0.34230  -0.33343
 Alpha  occ. eigenvalues --   -0.33265  -0.32630  -0.32283  -0.31449  -0.31340
 Alpha  occ. eigenvalues --   -0.30536  -0.26913  -0.23656  -0.19022
 Alpha virt. eigenvalues --   -0.06664  -0.01410   0.02270   0.05997   0.07925
 Alpha virt. eigenvalues --    0.08716   0.09353   0.10178   0.10386   0.10682
 Alpha virt. eigenvalues --    0.12131   0.12197   0.12863   0.12957   0.12992

 Mulliken charges:
               1
     1  O   -0.494399
     2  O   -0.543967
     3  O   -0.558310
     4  O   -0.497847
     5  C    0.229228
     6  C    0.195037
     7  C   -0.008395
     8  C   -0.241449
     9  C   -0.148511
    10  C    0.133942
    11  C   -0.321711
    12  C   -0.105906
    13  C   -0.241636
    14  C   -0.314464
    15  C   -0.094695
    16  C    0.099005
    17  C   -0.356639
    18  C   -0.098759
    19  C   -0.069955
    20  C    0.025617
    21  C    0.221834
    22  C   -0.192721
    23  C    0.108816
    24  C   -0.162124
    25  C   -0.050159
    26  C   -0.311203
    27  C   -0.274504
    28  C   -0.315472
    29  C   -0.120758
    30  C    0.120300
    31  C    0.063151
    32  C   -0.243078
    33  C   -0.363893
    34  C   -0.119533
    35  C    0.102957
    36  C   -0.374685
    37  C   -0.110643
    38  C   -0.079427
    39  C   -0.098437
    40  C   -0.045245
    41  C   -0.106125
    42  C   -0.139695
    43  C    0.137298
    44  C   -0.379347
    45  H    0.120360
    46  H    0.109240
    47  H    0.095999
    48  H    0.112749
    49  H    0.093854
    50  H    0.104750
    51  H    0.116571
    52  H    0.125429
    53  H    0.068849
    54  H    0.103843
    55  H    0.098502
    56  H    0.048101
    57  H    0.100783
    58  H    0.095565
    59  H    0.114523
    60  H    0.309366
    61  H    0.069822
    62  H    0.109899
    63  H    0.111870
    64  H    0.097321
    65  H    0.082090
    66  H    0.086139
    67  H    0.086544
    68  H    0.105752
    69  H    0.078166
    70  H    0.113037
    71  H    0.106595
    72  H    0.100369
    73  H    0.101515
    74  H    0.114299
    75  H    0.118551
    76  H    0.115687
    77  H    0.015385
    78  H    0.122432
    79  H    0.090745
    80  H    0.124944
    81  H    0.081888
    82  H    0.293193
    83  H    0.274534
    84  H    0.107296
    85  H    0.135738
    86  H    0.104716
    87  H    0.116253
    88  H    0.090007
    89  H    0.092049
    90  H    0.134696
    91  H    0.131900
    92  H    0.075834
    93  H    0.079384
    94  H    0.096903
    95  H    0.068276
    96  H    0.090589
    97  H    0.084242
    98  H    0.097759
    99  H    0.122893
   100  H    0.098704
 Sum of Mulliken charges =  -0.00000

 Dipole moment (field-independent basis, Debye):
    X=              2.7847    Y=              0.1885    Z=              1.1175  Tot=              3.0065
 Quadrupole moment (field-independent basis, Debye-Ang):
   XX=           -286.8374   YY=           -260.4473   ZZ=           -279.5299
   XY=              7.4389   XZ=             26.5995   YZ=             -2.1047

 Normal termination of Gaussian 16 at Tue Jul 30 08:23:48 2019.
