 Gaussian 16, Revision A.03,
 Gaussian 16:  ES64L-G16RevA.03 25-Dec-2016

 -------------------------------------
 # td=(NStates=1) CAM-B3LYP/6-31G(d,p)
 -------------------------------------

 --
 TD
 --
 Symbolic Z-matrix:
 Charge =  0 Multiplicity = 1

                         Standard orientation:
 ---------------------------------------------------------------------
 Center     Atomic      Atomic             Coordinates (Angstroms)
 Number     Number       Type             X           Y           Z
 ---------------------------------------------------------------------
      1          8           0      -11.855741    0.025169   -1.637524
      2          8           0      -13.074425   -2.292755    1.551117
      3          8           0       10.472159   -1.162401   -2.089882
      4          8           0       14.486028   -1.113845   -0.128106
      5          6           0      -11.082119   -0.205193   -0.402242
      6          6           0      -11.669825   -1.261271   -1.201800
      7          6           0      -11.764791    0.409828    0.880534
      8          6           0      -13.031354   -1.890360   -0.736246
      9          6           0      -13.293210   -0.000078    0.943348
     10          6           0      -13.614799   -1.439125    0.608932
     11          6           0      -10.787157   -2.108752   -2.144262
     12          6           0       -9.609800    0.095934   -0.559881
     13          6           0      -11.085946   -0.002615    2.154886
     14          6           0      -11.698118    1.940408    0.790872
     15          6           0       -8.677315   -0.774227    0.093162
     16          6           0       -7.251442   -0.578442    0.182416
     17          6           0       -6.441259   -1.829770    0.505100
     18          6           0       -6.688916    0.670479   -0.146436
     19          6           0       -5.332205    1.019260   -0.109951
     20          6           0       12.014626    0.083149    1.277138
     21          6           0       11.583186   -0.789360   -1.287542
     22          6           0       12.658382   -1.355654    1.481477
     23          6           0       13.287765   -1.907079    0.184538
     24          6           0       12.388740   -1.961465   -1.025630
     25          6           0       11.166334    0.026957   -0.031162
     26          6           0       11.076830    0.205259    2.609264
     27          6           0       12.980353    1.187038    1.248851
     28          6           0       12.463285    0.293101   -2.044781
     29          6           0       -4.731742    2.170553   -0.341691
     30          6           0        9.916197    0.531240   -0.010037
     31          6           0       -3.345323    2.524961   -0.495443
     32          6           0        8.724016    1.075205   -0.156802
     33          6           0       -3.073201    3.961310   -0.768421
     34          6           0       -2.336051    1.643805   -0.352463
     35          6           0        7.520595    0.303120    0.144602
     36          6           0        7.750250   -1.121710    0.587423
     37          6           0        6.319556    0.951170    0.000432
     38          6           0       -0.943146    1.882246   -0.430034
     39          6           0        5.080725    0.237031   -0.054455
     40          6           0        0.089397    0.947911   -0.037828
     41          6           0        3.868531    0.929078   -0.117483
     42          6           0        1.432604    1.199928   -0.180380
     43          6           0        2.543520    0.336830    0.021609
     44          6           0        2.391143   -1.069809    0.364148
     45          1           0      -13.101140   -3.040925   -0.469016
     46          1           0      -13.606665   -1.735876   -1.628205
     47          1           0      -13.671580    0.179238    1.915282
     48          1           0      -14.016080    0.507691    0.262827
     49          1           0      -14.696501   -1.705821    0.630443
     50          1           0      -10.672616   -3.163148   -1.629431
     51          1           0      -11.469407   -2.431012   -3.123344
     52          1           0       -9.847029   -1.665499   -2.625954
     53          1           0       -9.157612    1.010027   -1.115458
     54          1           0      -10.079462    0.719169    2.103176
     55          1           0      -11.461586    0.266744    2.940441
     56          1           0      -10.987267   -1.043293    2.247695
     57          1           0      -12.134422    2.328730   -0.208442
     58          1           0      -12.349397    2.626218    1.561114
     59          1           0      -10.668298    2.507904    0.800610
     60          1           0      -12.088103   -2.523730    1.412288
     61          1           0       -9.053022   -1.635133    0.701568
     62          1           0       -6.019681   -2.158908   -0.431082
     63          1           0       -5.618246   -1.823568    1.235902
     64          1           0       -7.054121   -2.645765    0.778283
     65          1           0       -7.482804    1.370180   -0.281791
     66          1           0       -4.785377   -0.009212    0.292677
     67          1           0       13.398725   -1.284214    2.316130
     68          1           0       11.858629   -2.141695    1.835437
     69          1           0       13.789230   -2.770620    0.505083
     70          1           0       12.765862   -2.481960   -2.005322
     71          1           0       11.549151   -2.729419   -0.808567
     72          1           0       11.616678    0.407529    3.515230
     73          1           0       10.441105    1.188426    2.380729
     74          1           0       10.375221   -0.719803    2.616476
     75          1           0       13.825759    0.948553    0.566082
     76          1           0       12.563716    2.183530    1.030341
     77          1           0       13.447905    1.045029    2.392348
     78          1           0       12.742336    0.109255   -3.164454
     79          1           0       11.782901    1.194841   -2.092846
     80          1           0       13.288034    0.651348   -1.621438
     81          1           0       -5.351598    2.852524   -0.533062
     82          1           0       10.031344   -0.296822   -2.227153
     83          1           0       14.851598   -0.862180    0.727882
     84          1           0        8.634664    2.044011   -0.655181
     85          1           0       -2.727930    4.541815    0.176492
     86          1           0       -1.897979    3.974311   -1.229032
     87          1           0       -3.971422    4.477401   -0.963409
     88          1           0       -2.704716    0.674619   -0.058005
     89          1           0        6.768510   -1.585107    0.885235
     90          1           0        8.130219   -1.756196   -0.306724
     91          1           0        8.716312   -1.109735    1.374970
     92          1           0        6.432339    1.899724   -0.392152
     93          1           0       -0.562637    2.969932   -0.768523
     94          1           0        4.943494   -0.812446   -0.107840
     95          1           0       -0.355149   -0.034010    0.246118
     96          1           0        3.869043    1.936432   -0.103450
     97          1           0        1.768454    2.302385   -0.484870
     98          1           0        1.273746   -1.488679    0.220440
     99          1           0        3.118135   -1.676413   -0.377530
    100          1           0        2.594671   -1.221097    1.513591
 ---------------------------------------------------------------------

 SCF Done:  E(RCAM-B3LYP) =  -1857.30019698     A.U. after   15 cycles

 Excitation energies and oscillator strengths:

 Excited State   1:      Singlet-A      2.2030 eV  562.81 nm  f=3.0852  <S**2>=0.000
     163 ->166         0.14144
     164 ->165         0.69183
 This state for optimization and/or second-order correction.
 Total Energy, E(TD-HF/TD-DFT) =  -1857.21924002
 Copying the excited state density for this state as the 1-particle RhoCI density.

 The electronic state is 1-A.
 Alpha  occ. eigenvalues --  -19.22341 -19.22129 -19.21193 -19.20991 -10.32869
 Alpha  occ. eigenvalues --  -10.32700 -10.32582 -10.31193 -10.30700 -10.29123
 Alpha  occ. eigenvalues --  -10.28912 -10.28451 -10.28447 -10.28303 -10.28240
 Alpha  occ. eigenvalues --  -10.28071 -10.28053 -10.27946 -10.27833 -10.27639
 Alpha  occ. eigenvalues --  -10.27517 -10.27342 -10.27321 -10.27298 -10.27294
 Alpha  occ. eigenvalues --  -10.27237 -10.27157 -10.26946 -10.26910 -10.26806
 Alpha  occ. eigenvalues --  -10.26711 -10.26657 -10.26375 -10.26327 -10.26294
 Alpha  occ. eigenvalues --  -10.26121 -10.25770 -10.25531 -10.25478 -10.25343
 Alpha  occ. eigenvalues --  -10.24750 -10.24653 -10.23953 -10.23703  -1.16664
 Alpha  occ. eigenvalues --   -1.10728  -1.10118  -1.08921  -0.92908  -0.92680
 Alpha  occ. eigenvalues --   -0.91726  -0.91204  -0.90523  -0.90146  -0.87172
 Alpha  occ. eigenvalues --   -0.86944  -0.85723  -0.84940  -0.84168  -0.82819
 Alpha  occ. eigenvalues --   -0.82213  -0.80276  -0.80081  -0.78450  -0.77413
 Alpha  occ. eigenvalues --   -0.76665  -0.76546  -0.76175  -0.75737  -0.75717
 Alpha  occ. eigenvalues --   -0.75213  -0.74453  -0.73100  -0.70552  -0.70243
 Alpha  occ. eigenvalues --   -0.69019  -0.66980  -0.65404  -0.64825  -0.64357
 Alpha  occ. eigenvalues --   -0.63486  -0.62075  -0.60444  -0.60107  -0.59777
 Alpha  occ. eigenvalues --   -0.58785  -0.58615  -0.57880  -0.56783  -0.56581
 Alpha  occ. eigenvalues --   -0.56023  -0.55504  -0.55373  -0.54601  -0.54505
 Alpha  occ. eigenvalues --   -0.53809  -0.53696  -0.53048  -0.52684  -0.52226
 Alpha  occ. eigenvalues --   -0.51693  -0.51347  -0.50638  -0.50146  -0.49902
 Alpha  occ. eigenvalues --   -0.49861  -0.49498  -0.48996  -0.48900  -0.48285
 Alpha  occ. eigenvalues --   -0.47927  -0.47513  -0.46975  -0.46906  -0.46502
 Alpha  occ. eigenvalues --   -0.46304  -0.46190  -0.45550  -0.45333  -0.45119
 Alpha  occ. eigenvalues --   -0.44829  -0.44686  -0.44438  -0.43931  -0.43884
 Alpha  occ. eigenvalues --   -0.43584  -0.43468  -0.43215  -0.42984  -0.42626
 Alpha  occ. eigenvalues --   -0.42567  -0.42228  -0.42075  -0.41651  -0.41217
 Alpha  occ. eigenvalues --   -0.40907  -0.40785  -0.40467  -0.39962  -0.39705
 Alpha  occ. eigenvalues --   -0.39305  -0.39200  -0.39017  -0.38998  -0.38640
 Alpha  occ. eigenvalues --   -0.38148  -0.37993  -0.37554  -0.37513  -0.37240
 Alpha  occ. eigenvalues --   -0.36680  -0.35600  -0.35219  -0.34873  -0.34229
 Alpha  occ. eigenvalues --   -0.32873  -0.32488  -0.31855  -0.31482  -0.31289
 Alpha  occ. eigenvalues --   -0.29633  -0.27468  -0.24518  -0.19666
 Alpha virt. eigenvalues --   -0.05900  -0.01312   0.02485   0.05595   0.06752
 Alpha virt. eigenvalues --    0.09155   0.09282   0.09935   0.10736   0.11772
 Alpha virt. eigenvalues --    0.12015   0.12835   0.12992   0.13207   0.13540

 Mulliken charges:
               1
     1  O   -0.491571
     2  O   -0.552700
     3  O   -0.560924
     4  O   -0.562398
     5  C    0.187346
     6  C    0.258159
     7  C    0.017157
     8  C   -0.221724
     9  C   -0.171444
    10  C    0.156358
    11  C   -0.317623
    12  C   -0.129771
    13  C   -0.248762
    14  C   -0.319973
    15  C   -0.086820
    16  C    0.076927
    17  C   -0.391629
    18  C   -0.101419
    19  C   -0.056412
    20  C    0.021265
    21  C    0.273844
    22  C   -0.222139
    23  C    0.167252
    24  C   -0.194515
    25  C   -0.079628
    26  C   -0.295842
    27  C   -0.291827
    28  C   -0.307103
    29  C   -0.102413
    30  C    0.122194
    31  C    0.142760
    32  C   -0.265682
    33  C   -0.382241
    34  C   -0.113789
    35  C    0.119788
    36  C   -0.361833
    37  C   -0.103772
    38  C   -0.097936
    39  C   -0.097962
    40  C   -0.090415
    41  C   -0.096925
    42  C   -0.122791
    43  C    0.119242
    44  C   -0.370424
    45  H    0.092816
    46  H    0.115713
    47  H    0.105611
    48  H    0.098912
    49  H    0.101200
    50  H    0.089578
    51  H    0.084061
    52  H    0.131236
    53  H    0.114770
    54  H    0.081759
    55  H    0.116096
    56  H    0.073482
    57  H    0.115246
    58  H    0.087751
    59  H    0.091530
    60  H    0.307053
    61  H    0.080173
    62  H    0.140302
    63  H    0.125300
    64  H    0.112734
    65  H    0.073575
    66  H    0.062242
    67  H    0.089125
    68  H    0.096787
    69  H    0.099288
    70  H    0.122780
    71  H    0.106922
    72  H    0.108506
    73  H    0.093764
    74  H    0.099894
    75  H    0.123125
    76  H    0.116052
    77  H    0.056726
    78  H    0.091655
    79  H    0.068601
    80  H    0.140497
    81  H    0.053374
    82  H    0.310681
    83  H    0.301665
    84  H    0.112295
    85  H    0.115374
    86  H    0.101997
    87  H    0.119057
    88  H    0.076404
    89  H    0.106569
    90  H    0.131875
    91  H    0.100355
    92  H    0.085278
    93  H    0.070405
    94  H    0.083532
    95  H    0.088118
    96  H    0.073443
    97  H    0.074103
    98  H    0.098913
    99  H    0.106786
   100  H    0.123029
 Sum of Mulliken charges =  -0.00000

 Dipole moment (field-independent basis, Debye):
    X=              1.7857    Y=             -0.3009    Z=              2.3971  Tot=              3.0043
 Quadrupole moment (field-independent basis, Debye-Ang):
   XX=           -283.7326   YY=           -258.9420   ZZ=           -279.9863
   XY=              6.4784   XZ=             23.3007   YZ=             -3.8477

 Normal termination of Gaussian 16 at Mon Jul 29 03:17:14 2019.
