 Gaussian 16, Revision A.03,
 Gaussian 16:  ES64L-G16RevA.03 25-Dec-2016

 -------------------------------------
 # td=(NStates=1) CAM-B3LYP/6-31G(d,p)
 -------------------------------------

 --
 TD
 --
 Symbolic Z-matrix:
 Charge =  0 Multiplicity = 1

                         Standard orientation:
 ---------------------------------------------------------------------
 Center     Atomic      Atomic             Coordinates (Angstroms)
 Number     Number       Type             X           Y           Z
 ---------------------------------------------------------------------
      1          8           0      -11.740943    0.255361   -1.474615
      2          8           0      -12.923286   -2.502927    1.355066
      3          8           0       10.514364   -1.240044   -1.932092
      4          8           0       14.535039   -1.078474   -0.058606
      5          6           0      -11.081914   -0.100681   -0.304751
      6          6           0      -11.675722   -1.170600   -1.202036
      7          6           0      -11.681473    0.354224    0.935912
      8          6           0      -13.052892   -1.720895   -1.010429
      9          6           0      -13.203487   -0.085989    0.964148
     10          6           0      -13.466537   -1.513845    0.460902
     11          6           0      -10.845615   -2.021904   -2.042585
     12          6           0       -9.634558    0.049658   -0.450287
     13          6           0      -11.056289   -0.012720    2.227267
     14          6           0      -11.782334    1.991201    0.895912
     15          6           0       -8.681163   -0.774723    0.121080
     16          6           0       -7.200295   -0.590893    0.176303
     17          6           0       -6.383312   -1.877977    0.458264
     18          6           0       -6.669322    0.633042   -0.118960
     19          6           0       -5.298754    0.831169   -0.111328
     20          6           0       11.875720    0.091355    1.317156
     21          6           0       11.645390   -0.698608   -1.234001
     22          6           0       12.700519   -1.233496    1.408370
     23          6           0       13.398290   -1.792564    0.258048
     24          6           0       12.456388   -1.876548   -0.906505
     25          6           0       11.060999    0.077213    0.058596
     26          6           0       11.089799    0.330547    2.524371
     27          6           0       12.850825    1.233592    1.194952
     28          6           0       12.382230    0.341977   -2.213668
     29          6           0       -4.570775    2.081635   -0.364999
     30          6           0        9.919467    0.508168   -0.003218
     31          6           0       -3.292346    2.439754   -0.422209
     32          6           0        8.612489    0.981848   -0.195408
     33          6           0       -3.000088    4.011126   -0.754809
     34          6           0       -2.307342    1.501895   -0.329748
     35          6           0        7.407687    0.253703    0.096024
     36          6           0        7.662923   -1.279806    0.498786
     37          6           0        6.221137    0.854678   -0.069677
     38          6           0       -0.955423    1.856314   -0.323975
     39          6           0        4.955883    0.221876    0.126673
     40          6           0        0.052442    0.976533   -0.254019
     41          6           0        3.738735    0.893693   -0.133562
     42          6           0        1.355999    1.248411   -0.322234
     43          6           0        2.457288    0.333896   -0.063574
     44          6           0        2.284473   -1.135362    0.416265
     45          1           0      -13.215959   -2.859392   -1.366647
     46          1           0      -13.690142   -1.103904   -1.716124
     47          1           0      -13.463995   -0.112106    2.027207
     48          1           0      -13.957086    0.766842    0.649381
     49          1           0      -14.461559   -1.410735    0.520670
     50          1           0      -10.673660   -2.959625   -1.683332
     51          1           0      -11.196870   -2.123298   -3.119123
     52          1           0       -9.888612   -1.742682   -2.189841
     53          1           0       -9.276186    1.035147   -0.841001
     54          1           0       -9.883028    0.388279    2.368178
     55          1           0      -11.712053    0.506574    2.999933
     56          1           0      -10.815390   -0.948700    2.487677
     57          1           0      -12.271202    2.189285   -0.071503
     58          1           0      -12.479217    2.241681    1.616924
     59          1           0      -10.832552    2.347134    0.954633
     60          1           0      -11.871253   -2.033031    1.436088
     61          1           0       -9.097505   -1.574203    0.757685
     62          1           0       -5.982865   -2.165392   -0.444507
     63          1           0       -5.816371   -1.843001    1.305194
     64          1           0       -7.169518   -2.751350    0.455475
     65          1           0       -7.143409    1.724338   -0.152699
     66          1           0       -4.545187   -0.094113   -0.198219
     67          1           0       13.300498   -1.156286    2.351378
     68          1           0       12.027526   -2.048512    1.773393
     69          1           0       13.714694   -2.861679    0.478443
     70          1           0       12.894519   -2.430913   -1.857281
     71          1           0       11.837283   -2.654326   -0.494117
     72          1           0       11.958080    0.340698    3.231231
     73          1           0       10.206798    1.222887    2.483952
     74          1           0       10.455277   -0.614335    2.570653
     75          1           0       13.623781    1.136450    0.409049
     76          1           0       12.208769    2.126808    0.887323
     77          1           0       13.475408    1.893587    2.215483
     78          1           0       12.784924   -0.456956   -2.989132
     79          1           0       11.629555    1.103053   -2.607486
     80          1           0       13.158336    0.956091   -1.635271
     81          1           0       -5.325394    2.824312   -0.379610
     82          1           0       10.162611   -0.350661   -2.215657
     83          1           0       15.315574   -1.230824    0.534807
     84          1           0        8.720456    1.933774   -0.301104
     85          1           0       -2.114657    4.300229   -0.181126
     86          1           0       -2.677915    3.996332   -1.971037
     87          1           0       -3.982673    4.484055   -0.453802
     88          1           0       -2.700572    0.422743   -0.160699
     89          1           0        6.726139   -1.975357    0.377023
     90          1           0        8.585469   -1.518890   -0.229716
     91          1           0        8.110196   -1.271584    1.643863
     92          1           0        6.305209    1.886429   -0.340811
     93          1           0       -0.585072    2.960376   -0.618647
     94          1           0        4.773369   -0.821286    0.195302
     95          1           0       -0.180401    0.006562   -0.132882
     96          1           0        3.873614    2.033039   -0.223479
     97          1           0        1.452088    2.187433   -0.438186
     98          1           0        1.274726   -1.500129    0.385636
     99          1           0        2.821884   -1.731292   -0.340779
    100          1           0        2.797886   -1.406280    1.276924
 ---------------------------------------------------------------------

 SCF Done:  E(RCAM-B3LYP) =  -1857.20946838     A.U. after   15 cycles

 Excitation energies and oscillator strengths:

 Excited State   1:      Singlet-A      1.9203 eV  645.65 nm  f=3.3117  <S**2>=0.000
     163 ->166         0.12757
     164 ->165         0.70247
     164 <-165        -0.12037
 This state for optimization and/or second-order correction.
 Total Energy, E(TD-HF/TD-DFT) =  -1857.13889869
 Copying the excited state density for this state as the 1-particle RhoCI density.

 The electronic state is 1-A.
 Alpha  occ. eigenvalues --  -19.22555 -19.21951 -19.21758 -19.21535 -10.32842
 Alpha  occ. eigenvalues --  -10.31393 -10.31384 -10.31258 -10.29314 -10.28699
 Alpha  occ. eigenvalues --  -10.28340 -10.28235 -10.28168 -10.27879 -10.27655
 Alpha  occ. eigenvalues --  -10.27479 -10.27359 -10.27281 -10.27247 -10.27049
 Alpha  occ. eigenvalues --  -10.26828 -10.26649 -10.26594 -10.26587 -10.26582
 Alpha  occ. eigenvalues --  -10.26579 -10.26493 -10.26335 -10.26329 -10.26304
 Alpha  occ. eigenvalues --  -10.26219 -10.26190 -10.25946 -10.25895 -10.25870
 Alpha  occ. eigenvalues --  -10.25807 -10.25781 -10.25751 -10.25746 -10.25730
 Alpha  occ. eigenvalues --  -10.24634 -10.24010 -10.23808 -10.23006  -1.16106
 Alpha  occ. eigenvalues --   -1.10884  -1.10111  -1.06693  -0.94573  -0.92794
 Alpha  occ. eigenvalues --   -0.91765  -0.91398  -0.90787  -0.89945  -0.88100
 Alpha  occ. eigenvalues --   -0.87464  -0.86767  -0.85698  -0.85021  -0.82914
 Alpha  occ. eigenvalues --   -0.82088  -0.81125  -0.80055  -0.79295  -0.77411
 Alpha  occ. eigenvalues --   -0.76989  -0.76297  -0.76264  -0.76080  -0.75196
 Alpha  occ. eigenvalues --   -0.75015  -0.74846  -0.73242  -0.70808  -0.70217
 Alpha  occ. eigenvalues --   -0.68996  -0.67203  -0.65515  -0.64417  -0.64139
 Alpha  occ. eigenvalues --   -0.63721  -0.63103  -0.61510  -0.60334  -0.59283
 Alpha  occ. eigenvalues --   -0.58942  -0.58372  -0.57901  -0.57211  -0.56659
 Alpha  occ. eigenvalues --   -0.55808  -0.55746  -0.55556  -0.55151  -0.53751
 Alpha  occ. eigenvalues --   -0.53222  -0.53024  -0.52944  -0.52602  -0.52580
 Alpha  occ. eigenvalues --   -0.52183  -0.51029  -0.50857  -0.50212  -0.49339
 Alpha  occ. eigenvalues --   -0.49263  -0.49095  -0.48971  -0.48599  -0.48530
 Alpha  occ. eigenvalues --   -0.48192  -0.48156  -0.47032  -0.46906  -0.46777
 Alpha  occ. eigenvalues --   -0.46524  -0.46047  -0.45769  -0.45541  -0.45467
 Alpha  occ. eigenvalues --   -0.45080  -0.44313  -0.43927  -0.43778  -0.43588
 Alpha  occ. eigenvalues --   -0.43395  -0.43021  -0.42926  -0.42781  -0.42404
 Alpha  occ. eigenvalues --   -0.42261  -0.41864  -0.41614  -0.41343  -0.41169
 Alpha  occ. eigenvalues --   -0.40819  -0.40709  -0.40517  -0.40408  -0.40104
 Alpha  occ. eigenvalues --   -0.39911  -0.39898  -0.39741  -0.39356  -0.39175
 Alpha  occ. eigenvalues --   -0.38795  -0.38394  -0.38090  -0.37289  -0.36361
 Alpha  occ. eigenvalues --   -0.35841  -0.35518  -0.34997  -0.34196  -0.33359
 Alpha  occ. eigenvalues --   -0.32971  -0.32628  -0.32340  -0.31715  -0.31344
 Alpha  occ. eigenvalues --   -0.30333  -0.28043  -0.24016  -0.18618
 Alpha virt. eigenvalues --   -0.06846  -0.00979   0.03164   0.06070   0.08147
 Alpha virt. eigenvalues --    0.08403   0.09509   0.10557   0.11355   0.11584
 Alpha virt. eigenvalues --    0.12172   0.12599   0.12987   0.13372   0.14157

 Mulliken charges:
               1
     1  O   -0.511297
     2  O   -0.545672
     3  O   -0.538972
     4  O   -0.548954
     5  C    0.241202
     6  C    0.235970
     7  C   -0.018193
     8  C   -0.188437
     9  C   -0.228395
    10  C    0.159685
    11  C   -0.350815
    12  C   -0.100374
    13  C   -0.304759
    14  C   -0.312031
    15  C   -0.097343
    16  C    0.041445
    17  C   -0.361439
    18  C   -0.091861
    19  C   -0.081927
    20  C    0.016311
    21  C    0.215488
    22  C   -0.185969
    23  C    0.160297
    24  C   -0.185264
    25  C   -0.128824
    26  C   -0.283359
    27  C   -0.286426
    28  C   -0.292031
    29  C   -0.139793
    30  C    0.131621
    31  C    0.104193
    32  C   -0.212438
    33  C   -0.340814
    34  C   -0.109890
    35  C    0.120418
    36  C   -0.359943
    37  C   -0.103454
    38  C   -0.111312
    39  C   -0.094785
    40  C   -0.031766
    41  C   -0.110661
    42  C   -0.085324
    43  C    0.079603
    44  C   -0.382962
    45  H    0.096039
    46  H    0.116209
    47  H    0.108350
    48  H    0.092861
    49  H    0.100732
    50  H    0.120752
    51  H    0.103543
    52  H    0.121823
    53  H    0.097408
    54  H    0.079736
    55  H    0.110129
    56  H    0.113080
    57  H    0.127729
    58  H    0.107278
    59  H    0.110385
    60  H    0.298917
    61  H    0.067648
    62  H    0.146598
    63  H    0.139967
    64  H    0.093471
    65  H    0.091658
    66  H    0.059828
    67  H    0.084838
    68  H    0.089322
    69  H    0.071676
    70  H    0.103577
    71  H    0.124535
    72  H    0.102961
    73  H    0.099532
    74  H    0.093956
    75  H    0.130288
    76  H    0.090590
    77  H    0.042433
    78  H    0.111893
    79  H    0.089744
    80  H    0.120708
    81  H    0.056121
    82  H    0.307224
    83  H    0.311926
    84  H    0.101735
    85  H    0.127409
    86  H    0.107879
    87  H    0.114527
    88  H    0.087395
    89  H    0.103452
    90  H    0.139337
    91  H    0.101165
    92  H    0.083361
    93  H    0.073971
    94  H    0.076897
    95  H    0.055897
    96  H    0.079355
    97  H    0.047206
    98  H    0.119598
    99  H    0.123417
   100  H    0.141184
 Sum of Mulliken charges =  -0.00000

 Dipole moment (field-independent basis, Debye):
    X=              4.6019    Y=              0.1206    Z=              1.6398  Tot=              4.8868
 Quadrupole moment (field-independent basis, Debye-Ang):
   XX=           -257.7781   YY=           -263.2994   ZZ=           -278.2510
   XY=            -17.0191   XZ=             14.3041   YZ=             -1.2503

 Normal termination of Gaussian 16 at Mon Jul 29 23:11:13 2019.
