 Gaussian 16, Revision A.03,
 Gaussian 16:  ES64L-G16RevA.03 25-Dec-2016

 -------------------------------------
 # td=(NStates=1) CAM-B3LYP/6-31G(d,p)
 -------------------------------------

 --
 TD
 --
 Symbolic Z-matrix:
 Charge =  0 Multiplicity = 1

                         Standard orientation:
 ---------------------------------------------------------------------
 Center     Atomic      Atomic             Coordinates (Angstroms)
 Number     Number       Type             X           Y           Z
 ---------------------------------------------------------------------
      1          8           0      -11.836301   -0.005379   -1.617593
      2          8           0      -13.075611   -2.184770    1.653430
      3          8           0       10.676110   -1.324103   -1.970591
      4          8           0       14.505252   -1.138713    0.045076
      5          6           0      -11.031023   -0.263981   -0.383383
      6          6           0      -11.739270   -1.255930   -1.138480
      7          6           0      -11.684757    0.442952    0.841201
      8          6           0      -13.027882   -1.891736   -0.772326
      9          6           0      -13.293310    0.082385    0.774391
     10          6           0      -13.571608   -1.479272    0.615959
     11          6           0      -10.955945   -2.232439   -2.023206
     12          6           0       -9.560898   -0.100499   -0.609783
     13          6           0      -11.097322    0.048351    2.129472
     14          6           0      -11.522122    1.975566    0.680294
     15          6           0       -8.651754   -0.852033    0.073823
     16          6           0       -7.236995   -0.712432    0.093028
     17          6           0       -6.323710   -1.814045    0.538227
     18          6           0       -6.577070    0.526787   -0.269320
     19          6           0       -5.292678    0.945443   -0.129258
     20          6           0       11.908860    0.073524    1.276971
     21          6           0       11.778089   -0.777366   -1.258402
     22          6           0       12.553849   -1.242094    1.568315
     23          6           0       13.365495   -1.960681    0.403710
     24          6           0       12.472528   -2.065301   -0.758991
     25          6           0       11.157516    0.046441   -0.083657
     26          6           0       10.946222    0.343264    2.434224
     27          6           0       12.935001    1.142023    1.154267
     28          6           0       12.650473    0.082020   -2.111615
     29          6           0       -4.798480    2.207394   -0.439802
     30          6           0        9.983799    0.586096   -0.228782
     31          6           0       -3.395268    2.553416   -0.345525
     32          6           0        8.742900    1.138439   -0.356010
     33          6           0       -3.178309    4.001352   -0.725799
     34          6           0       -2.280220    1.642268   -0.072348
     35          6           0        7.436032    0.242565   -0.099625
     36          6           0        7.736380   -1.133557    0.235084
     37          6           0        6.234655    0.862407   -0.163560
     38          6           0       -0.935405    1.995578   -0.254393
     39          6           0        5.011497    0.332101   -0.100581
     40          6           0        0.115689    1.062135    0.082393
     41          6           0        3.759602    1.093797   -0.131374
     42          6           0        1.402634    1.335311   -0.061603
     43          6           0        2.486279    0.454786    0.132788
     44          6           0        2.354372   -0.958407    0.493408
     45          1           0      -13.035736   -3.025208   -0.633130
     46          1           0      -13.791758   -1.712601   -1.503220
     47          1           0      -13.540148    0.328248    1.900012
     48          1           0      -13.713478    0.698249   -0.065765
     49          1           0      -14.777948   -1.628142    0.540816
     50          1           0      -10.838387   -3.191533   -1.313946
     51          1           0      -11.763349   -2.556275   -2.732730
     52          1           0      -10.184100   -1.955918   -2.628160
     53          1           0       -9.466397    0.738648   -1.635413
     54          1           0      -10.169031    0.442232    2.391159
     55          1           0      -11.737844    0.033998    3.153360
     56          1           0      -10.775772   -1.172618    2.328293
     57          1           0      -11.824160    2.300751   -0.359566
     58          1           0      -12.258465    2.620883    1.468805
     59          1           0      -10.538297    2.262940    0.820981
     60          1           0      -12.294121   -2.727758    1.262455
     61          1           0       -8.875592   -1.489501    0.802992
     62          1           0       -5.951007   -2.447478   -0.310151
     63          1           0       -5.607936   -1.622835    1.192521
     64          1           0       -6.929631   -2.548215    0.940819
     65          1           0       -7.174372    1.463003   -0.620572
     66          1           0       -4.511589    0.154050    0.368286
     67          1           0       13.135992   -0.943412    2.468854
     68          1           0       11.813235   -1.986378    1.891176
     69          1           0       13.606289   -2.835842    0.911923
     70          1           0       12.928000   -2.687231   -1.396245
     71          1           0       11.672558   -2.708428   -0.391669
     72          1           0       11.491691    0.455958    3.423596
     73          1           0       10.311168    1.258993    2.357418
     74          1           0       10.003211   -0.505896    2.627039
     75          1           0       13.666877    1.162633    0.458348
     76          1           0       12.328853    2.076351    0.798955
     77          1           0       13.354833    1.505198    2.048465
     78          1           0       12.972832   -0.596730   -2.947793
     79          1           0       12.283633    0.952093   -2.720054
     80          1           0       13.419887    0.258647   -1.402602
     81          1           0       -5.457872    3.079554   -0.763292
     82          1           0       10.028285   -0.637111   -2.138184
     83          1           0       14.798964   -0.853479    0.953138
     84          1           0        8.476033    2.231115   -0.465235
     85          1           0       -2.830486    4.719337    0.032493
     86          1           0       -2.787757    4.247618   -1.759167
     87          1           0       -4.244970    4.443352   -0.981709
     88          1           0       -2.571969    0.554572    0.254037
     89          1           0        6.701434   -1.523532    0.168291
     90          1           0        8.265787   -1.339179   -0.712185
     91          1           0        8.333429   -1.210895    1.111328
     92          1           0        6.343020    2.004335   -0.525648
     93          1           0       -0.574122    2.875414   -0.499745
     94          1           0        4.846603   -0.811022   -0.147384
     95          1           0       -0.206078   -0.050312    0.181988
     96          1           0        3.477193    2.121218   -0.268692
     97          1           0        1.790832    2.375776   -0.553682
     98          1           0        1.357421   -1.382181    0.255056
     99          1           0        3.027162   -1.680176   -0.088978
    100          1           0        2.574458   -1.171328    1.511334
 ---------------------------------------------------------------------

 SCF Done:  E(RCAM-B3LYP) =  -1857.25478515     A.U. after   16 cycles

 Excitation energies and oscillator strengths:

 Excited State   1:      Singlet-A      1.7570 eV  705.66 nm  f=3.0437  <S**2>=0.000
     163 ->166         0.11726
     164 ->165         0.70789
     164 <-165        -0.14152
 This state for optimization and/or second-order correction.
 Total Energy, E(TD-HF/TD-DFT) =  -1857.19021649
 Copying the excited state density for this state as the 1-particle RhoCI density.

 The electronic state is 1-A.
 Alpha  occ. eigenvalues --  -19.22678 -19.22439 -19.22083 -19.20151 -10.32448
 Alpha  occ. eigenvalues --  -10.31697 -10.31582 -10.31513 -10.30857 -10.28897
 Alpha  occ. eigenvalues --  -10.28887 -10.28538 -10.28305 -10.28069 -10.28060
 Alpha  occ. eigenvalues --  -10.27969 -10.27950 -10.27622 -10.27586 -10.27455
 Alpha  occ. eigenvalues --  -10.27438 -10.27394 -10.27339 -10.27120 -10.27043
 Alpha  occ. eigenvalues --  -10.26787 -10.26690 -10.26658 -10.26481 -10.26408
 Alpha  occ. eigenvalues --  -10.26150 -10.26140 -10.26118 -10.26088 -10.25884
 Alpha  occ. eigenvalues --  -10.25864 -10.25852 -10.25465 -10.25361 -10.24907
 Alpha  occ. eigenvalues --  -10.24477 -10.24322 -10.24230 -10.23816  -1.17196
 Alpha  occ. eigenvalues --   -1.11777  -1.09978  -1.09430  -0.93902  -0.92380
 Alpha  occ. eigenvalues --   -0.91725  -0.91183  -0.90033  -0.89211  -0.87565
 Alpha  occ. eigenvalues --   -0.87123  -0.86541  -0.85866  -0.84692  -0.83440
 Alpha  occ. eigenvalues --   -0.82519  -0.81345  -0.80093  -0.79223  -0.77556
 Alpha  occ. eigenvalues --   -0.77402  -0.76657  -0.76364  -0.75872  -0.75012
 Alpha  occ. eigenvalues --   -0.74858  -0.74702  -0.72442  -0.70405  -0.69882
 Alpha  occ. eigenvalues --   -0.68557  -0.66394  -0.65426  -0.65169  -0.64071
 Alpha  occ. eigenvalues --   -0.63543  -0.62087  -0.60756  -0.60159  -0.59339
 Alpha  occ. eigenvalues --   -0.59254  -0.58769  -0.58285  -0.57120  -0.56552
 Alpha  occ. eigenvalues --   -0.55940  -0.55593  -0.55359  -0.54342  -0.54115
 Alpha  occ. eigenvalues --   -0.53914  -0.53172  -0.52865  -0.52299  -0.52253
 Alpha  occ. eigenvalues --   -0.51610  -0.51128  -0.50852  -0.50695  -0.50350
 Alpha  occ. eigenvalues --   -0.49687  -0.49404  -0.49220  -0.49105  -0.48956
 Alpha  occ. eigenvalues --   -0.48604  -0.48232  -0.47694  -0.47509  -0.47090
 Alpha  occ. eigenvalues --   -0.46864  -0.46247  -0.45833  -0.45623  -0.44970
 Alpha  occ. eigenvalues --   -0.44940  -0.44482  -0.44447  -0.43941  -0.43468
 Alpha  occ. eigenvalues --   -0.43318  -0.43225  -0.42425  -0.42353  -0.42179
 Alpha  occ. eigenvalues --   -0.42013  -0.42007  -0.41792  -0.41593  -0.41181
 Alpha  occ. eigenvalues --   -0.40548  -0.40418  -0.40102  -0.39912  -0.39816
 Alpha  occ. eigenvalues --   -0.39665  -0.39400  -0.38974  -0.38884  -0.38674
 Alpha  occ. eigenvalues --   -0.38272  -0.38209  -0.38083  -0.37890  -0.37493
 Alpha  occ. eigenvalues --   -0.36404  -0.35976  -0.34720  -0.34096  -0.33442
 Alpha  occ. eigenvalues --   -0.32706  -0.32514  -0.32092  -0.31141  -0.30660
 Alpha  occ. eigenvalues --   -0.30133  -0.27866  -0.24011  -0.18064
 Alpha virt. eigenvalues --   -0.07307  -0.01195   0.03001   0.05575   0.07104
 Alpha virt. eigenvalues --    0.08622   0.09016   0.09962   0.10321   0.11053
 Alpha virt. eigenvalues --    0.11490   0.11927   0.12478   0.12982   0.13119

 Mulliken charges:
               1
     1  O   -0.507143
     2  O   -0.514929
     3  O   -0.567565
     4  O   -0.546404
     5  C    0.167693
     6  C    0.303109
     7  C    0.043409
     8  C   -0.256126
     9  C   -0.193660
    10  C    0.178727
    11  C   -0.307726
    12  C   -0.114272
    13  C   -0.298552
    14  C   -0.306070
    15  C   -0.059003
    16  C    0.033075
    17  C   -0.368460
    18  C   -0.101724
    19  C   -0.049876
    20  C    0.047555
    21  C    0.252403
    22  C   -0.224055
    23  C    0.145300
    24  C   -0.178006
    25  C   -0.102735
    26  C   -0.303669
    27  C   -0.328395
    28  C   -0.298513
    29  C   -0.131341
    30  C    0.147110
    31  C    0.088227
    32  C   -0.280236
    33  C   -0.388751
    34  C   -0.115051
    35  C    0.063570
    36  C   -0.333885
    37  C   -0.067041
    38  C   -0.057731
    39  C   -0.143883
    40  C   -0.102816
    41  C   -0.105855
    42  C   -0.129071
    43  C    0.134829
    44  C   -0.388926
    45  H    0.086198
    46  H    0.130048
    47  H    0.089064
    48  H    0.112596
    49  H    0.054458
    50  H    0.072797
    51  H    0.100584
    52  H    0.122113
    53  H    0.109212
    54  H    0.119227
    55  H    0.105075
    56  H    0.044186
    57  H    0.114992
    58  H    0.077174
    59  H    0.116653
    60  H    0.311926
    61  H    0.087293
    62  H    0.122496
    63  H    0.132030
    64  H    0.105422
    65  H    0.071258
    66  H    0.065889
    67  H    0.077185
    68  H    0.099751
    69  H    0.098905
    70  H    0.121759
    71  H    0.118815
    72  H    0.095018
    73  H    0.116970
    74  H    0.072563
    75  H    0.138440
    76  H    0.092542
    77  H    0.102385
    78  H    0.103722
    79  H    0.099072
    80  H    0.136470
    81  H    0.097056
    82  H    0.298816
    83  H    0.310283
    84  H    0.109201
    85  H    0.128566
    86  H    0.121380
    87  H    0.085431
    88  H    0.081768
    89  H    0.096956
    90  H    0.132112
    91  H    0.133646
    92  H    0.071582
    93  H    0.082023
    94  H    0.092572
    95  H    0.081120
    96  H    0.081481
    97  H    0.075069
    98  H    0.110853
    99  H    0.111920
   100  H    0.140341
 Sum of Mulliken charges =  -0.00000

 Dipole moment (field-independent basis, Debye):
    X=              3.1110    Y=             -0.9965    Z=              1.8046  Tot=              3.7320
 Quadrupole moment (field-independent basis, Debye-Ang):
   XX=           -294.2064   YY=           -256.4295   ZZ=           -276.9816
   XY=             15.7584   XZ=             37.4278   YZ=             -6.2550

 Normal termination of Gaussian 16 at Wed Jul 31 00:00:25 2019.
