 Gaussian 16, Revision A.03,
 Gaussian 16:  ES64L-G16RevA.03 25-Dec-2016

 -------------------------------------
 # td=(NStates=1) CAM-B3LYP/6-31G(d,p)
 -------------------------------------

 --
 TD
 --
 Symbolic Z-matrix:
 Charge =  0 Multiplicity = 1

                         Standard orientation:
 ---------------------------------------------------------------------
 Center     Atomic      Atomic             Coordinates (Angstroms)
 Number     Number       Type             X           Y           Z
 ---------------------------------------------------------------------
      1          8           0      -11.654516    0.320735   -1.449006
      2          8           0      -12.959313   -2.518230    1.376865
      3          8           0       10.609009   -1.015280   -2.017517
      4          8           0       14.537318   -0.872288   -0.159926
      5          6           0      -11.035650   -0.167313   -0.224014
      6          6           0      -11.606546   -1.135181   -1.253943
      7          6           0      -11.796084    0.269741    0.932721
      8          6           0      -12.994791   -1.835676   -1.033797
      9          6           0      -13.218741   -0.228762    0.922436
     10          6           0      -13.452953   -1.576337    0.480716
     11          6           0      -10.733952   -1.852488   -2.268850
     12          6           0       -9.530004    0.244068   -0.268066
     13          6           0      -11.015389   -0.259522    2.239996
     14          6           0      -11.792212    1.804407    1.058847
     15          6           0       -8.630483   -0.792774    0.171298
     16          6           0       -7.240672   -0.631017    0.132544
     17          6           0       -6.329584   -1.787742    0.383294
     18          6           0       -6.658877    0.638814   -0.044217
     19          6           0       -5.254358    0.946678   -0.038066
     20          6           0       11.825769   -0.026535    1.388636
     21          6           0       11.611109   -0.623234   -1.141304
     22          6           0       12.675783   -1.422483    1.526817
     23          6           0       13.433427   -1.746116    0.261766
     24          6           0       12.455879   -1.789010   -0.999025
     25          6           0       11.029320   -0.063266    0.122826
     26          6           0       10.992890   -0.041742    2.552731
     27          6           0       12.676769    1.265089    1.567352
     28          6           0       12.431496    0.537734   -1.907045
     29          6           0       -4.774586    2.221906   -0.251158
     30          6           0        9.877393    0.390837    0.080280
     31          6           0       -3.393935    2.618579   -0.318140
     32          6           0        8.654046    1.011151   -0.024154
     33          6           0       -3.042469    4.083490   -0.524238
     34          6           0       -2.300872    1.732400   -0.289927
     35          6           0        7.455934    0.093020   -0.057816
     36          6           0        7.719062   -1.481101    0.182183
     37          6           0        6.305750    0.750733   -0.147907
     38          6           0       -0.958201    2.019629   -0.311970
     39          6           0        4.921676    0.180170   -0.197730
     40          6           0        0.051259    1.076302   -0.242638
     41          6           0        3.724206    0.827946   -0.339911
     42          6           0        1.361674    1.333085   -0.351937
     43          6           0        2.416647    0.376932   -0.140725
     44          6           0        2.248805   -1.140977   -0.071874
     45          1           0      -12.828613   -2.896894   -1.237739
     46          1           0      -13.707569   -1.544029   -1.609433
     47          1           0      -13.717691   -0.058213    1.828103
     48          1           0      -13.941155    0.576221    0.320774
     49          1           0      -14.406476   -1.796451    0.459814
     50          1           0      -10.280578   -2.694062   -1.923612
     51          1           0      -11.467233   -2.091662   -3.180395
     52          1           0       -9.921042   -1.298590   -2.751396
     53          1           0       -9.269312    1.131497   -0.642926
     54          1           0       -9.980797   -0.191514    2.423059
     55          1           0      -11.585386    0.105739    3.010221
     56          1           0      -11.021588   -1.407140    2.119848
     57          1           0      -12.256755    2.293715    0.099341
     58          1           0      -12.521654    2.244910    1.985520
     59          1           0      -10.782511    2.187834    1.221394
     60          1           0      -11.866531   -2.132567    1.423542
     61          1           0       -8.853388   -1.771209    0.497253
     62          1           0       -5.494020   -1.674642   -0.349265
     63          1           0       -5.809074   -1.708727    1.300630
     64          1           0       -6.987599   -2.791783    0.270031
     65          1           0       -7.356973    1.583981    0.056441
     66          1           0       -4.540430    0.129847    0.064129
     67          1           0       13.387007   -1.264873    2.381297
     68          1           0       11.941877   -2.140107    1.893421
     69          1           0       13.803861   -2.773606    0.484236
     70          1           0       12.692829   -2.041910   -1.797370
     71          1           0       11.856570   -2.522064   -0.812795
     72          1           0       11.785999   -0.312584    3.202414
     73          1           0       10.694756    1.123305    2.611695
     74          1           0       10.305871   -0.797174    2.489607
     75          1           0       13.412869    1.240949    0.784211
     76          1           0       11.915811    2.110777    1.479952
     77          1           0       13.197779    1.145653    2.379150
     78          1           0       12.774804   -0.025348   -2.800148
     79          1           0       11.837048    1.304241   -2.258638
     80          1           0       13.448200    0.621313   -1.401195
     81          1           0       -5.425241    3.096409   -0.269485
     82          1           0        9.968143   -0.146543   -2.055757
     83          1           0       15.282889   -1.236462    0.415220
     84          1           0        8.533417    2.089970   -0.255287
     85          1           0       -2.094213    4.235160    0.117295
     86          1           0       -2.504309    4.113264   -1.682213
     87          1           0       -3.836717    5.002450   -0.587315
     88          1           0       -2.638970    0.576649   -0.170552
     89          1           0        6.883242   -2.147277   -0.021119
     90          1           0        8.189469   -1.862099   -0.646064
     91          1           0        8.235106   -1.747433    1.164120
     92          1           0        6.398379    1.862798    0.178055
     93          1           0       -0.734228    3.145770   -0.408598
     94          1           0        4.822838   -0.888993   -0.106150
     95          1           0       -0.414465   -0.013769   -0.008892
     96          1           0        3.918942    1.942689   -0.548902
     97          1           0        1.562646    2.368524   -0.460021
     98          1           0        1.241595   -1.413644   -0.057628
     99          1           0        2.842776   -1.490954   -0.911783
    100          1           0        2.398596   -1.599456    0.954639
 ---------------------------------------------------------------------

 SCF Done:  E(RCAM-B3LYP) =  -1857.18078241     A.U. after   15 cycles

 Excitation energies and oscillator strengths:

 Excited State   1:      Singlet-A      1.9842 eV  624.86 nm  f=2.8968  <S**2>=0.000
     163 ->166         0.12828
     164 ->165         0.69932
     164 <-165        -0.11262
 This state for optimization and/or second-order correction.
 Total Energy, E(TD-HF/TD-DFT) =  -1857.10786517
 Copying the excited state density for this state as the 1-particle RhoCI density.

 The electronic state is 1-A.
 Alpha  occ. eigenvalues --  -19.23605 -19.21117 -19.20967 -19.20824 -10.32647
 Alpha  occ. eigenvalues --  -10.32630 -10.31554 -10.30548 -10.28831 -10.28514
 Alpha  occ. eigenvalues --  -10.28289 -10.28287 -10.28123 -10.27899 -10.27897
 Alpha  occ. eigenvalues --  -10.27200 -10.27157 -10.27099 -10.27068 -10.27058
 Alpha  occ. eigenvalues --  -10.27000 -10.26899 -10.26862 -10.26851 -10.26808
 Alpha  occ. eigenvalues --  -10.26804 -10.26795 -10.26713 -10.26673 -10.26421
 Alpha  occ. eigenvalues --  -10.26276 -10.26133 -10.25989 -10.25971 -10.25884
 Alpha  occ. eigenvalues --  -10.25666 -10.25183 -10.25181 -10.25139 -10.24263
 Alpha  occ. eigenvalues --  -10.23699 -10.23502 -10.23177 -10.21453  -1.12740
 Alpha  occ. eigenvalues --   -1.09782  -1.09171  -1.07652  -0.94546  -0.92255
 Alpha  occ. eigenvalues --   -0.91861  -0.91202  -0.90529  -0.89798  -0.87993
 Alpha  occ. eigenvalues --   -0.87425  -0.85907  -0.85720  -0.84354  -0.82592
 Alpha  occ. eigenvalues --   -0.81701  -0.80786  -0.80523  -0.78731  -0.77900
 Alpha  occ. eigenvalues --   -0.77283  -0.77028  -0.76950  -0.76347  -0.76101
 Alpha  occ. eigenvalues --   -0.75308  -0.74240  -0.72802  -0.71198  -0.69328
 Alpha  occ. eigenvalues --   -0.68470  -0.66782  -0.66282  -0.64909  -0.64778
 Alpha  occ. eigenvalues --   -0.64608  -0.61882  -0.60332  -0.59457  -0.58902
 Alpha  occ. eigenvalues --   -0.58672  -0.58379  -0.57921  -0.57751  -0.57405
 Alpha  occ. eigenvalues --   -0.55906  -0.55448  -0.54982  -0.54695  -0.54222
 Alpha  occ. eigenvalues --   -0.53643  -0.52973  -0.52856  -0.52377  -0.52234
 Alpha  occ. eigenvalues --   -0.51711  -0.51344  -0.50742  -0.50382  -0.50276
 Alpha  occ. eigenvalues --   -0.49729  -0.49211  -0.48969  -0.48801  -0.48582
 Alpha  occ. eigenvalues --   -0.48499  -0.48180  -0.47723  -0.47439  -0.47069
 Alpha  occ. eigenvalues --   -0.46679  -0.46437  -0.46051  -0.45971  -0.45641
 Alpha  occ. eigenvalues --   -0.45032  -0.45021  -0.44518  -0.44061  -0.43842
 Alpha  occ. eigenvalues --   -0.43466  -0.43402  -0.43069  -0.42688  -0.42255
 Alpha  occ. eigenvalues --   -0.42070  -0.41897  -0.41851  -0.41530  -0.41390
 Alpha  occ. eigenvalues --   -0.41338  -0.41065  -0.40825  -0.40354  -0.40275
 Alpha  occ. eigenvalues --   -0.39673  -0.39571  -0.39434  -0.38800  -0.38687
 Alpha  occ. eigenvalues --   -0.38375  -0.37707  -0.37641  -0.37353  -0.37161
 Alpha  occ. eigenvalues --   -0.36142  -0.35645  -0.35074  -0.34462  -0.33604
 Alpha  occ. eigenvalues --   -0.33390  -0.31536  -0.31383  -0.31360  -0.30586
 Alpha  occ. eigenvalues --   -0.29909  -0.27243  -0.24342  -0.19041
 Alpha virt. eigenvalues --   -0.06654  -0.01123   0.02801   0.06262   0.07847
 Alpha virt. eigenvalues --    0.08434   0.09398   0.10010   0.11032   0.11206
 Alpha virt. eigenvalues --    0.12172   0.12641   0.12989   0.13655   0.13799

 Mulliken charges:
               1
     1  O   -0.522893
     2  O   -0.547495
     3  O   -0.576213
     4  O   -0.539709
     5  C    0.181931
     6  C    0.247849
     7  C    0.004987
     8  C   -0.197100
     9  C   -0.172723
    10  C    0.150728
    11  C   -0.336631
    12  C   -0.088124
    13  C   -0.293186
    14  C   -0.302542
    15  C   -0.089668
    16  C    0.081995
    17  C   -0.372813
    18  C   -0.112903
    19  C   -0.076565
    20  C   -0.041100
    21  C    0.218711
    22  C   -0.213921
    23  C    0.107920
    24  C   -0.098582
    25  C   -0.045990
    26  C   -0.249496
    27  C   -0.281606
    28  C   -0.320835
    29  C   -0.111754
    30  C    0.141464
    31  C    0.100180
    32  C   -0.268783
    33  C   -0.376658
    34  C   -0.105116
    35  C    0.098745
    36  C   -0.366029
    37  C   -0.128060
    38  C   -0.091787
    39  C   -0.106415
    40  C   -0.066370
    41  C   -0.107915
    42  C   -0.112443
    43  C    0.088844
    44  C   -0.369415
    45  H    0.108218
    46  H    0.118671
    47  H    0.113278
    48  H    0.080700
    49  H    0.086909
    50  H    0.119256
    51  H    0.092783
    52  H    0.126234
    53  H    0.115925
    54  H    0.130679
    55  H    0.124817
    56  H    0.052330
    57  H    0.119479
    58  H    0.072168
    59  H    0.106081
    60  H    0.287896
    61  H    0.077586
    62  H    0.126056
    63  H    0.140117
    64  H    0.087950
    65  H    0.077369
    66  H    0.081158
    67  H    0.088376
    68  H    0.115605
    69  H    0.082313
    70  H    0.079470
    71  H    0.102148
    72  H    0.092428
    73  H    0.082819
    74  H    0.098827
    75  H    0.122646
    76  H    0.098539
    77  H    0.105089
    78  H    0.101586
    79  H    0.092969
    80  H    0.134790
    81  H    0.083149
    82  H    0.306758
    83  H    0.312581
    84  H    0.119017
    85  H    0.124011
    86  H    0.092078
    87  H    0.109106
    88  H    0.059595
    89  H    0.105988
    90  H    0.146130
    91  H    0.124534
    92  H    0.086100
    93  H    0.078154
    94  H    0.077670
    95  H    0.073434
    96  H    0.067221
    97  H    0.090490
    98  H    0.114127
    99  H    0.136284
   100  H    0.117793
 Sum of Mulliken charges =  -0.00000

 Dipole moment (field-independent basis, Debye):
    X=              4.8780    Y=             -0.8521    Z=              2.4633  Tot=              5.5307
 Quadrupole moment (field-independent basis, Debye-Ang):
   XX=           -259.0875   YY=           -259.4898   ZZ=           -280.2247
   XY=            -26.3307   XZ=             26.6978   YZ=             -0.3076

 Normal termination of Gaussian 16 at Thu Aug  1 21:11:42 2019.
