 Gaussian 16, Revision A.03,
 Gaussian 16:  ES64L-G16RevA.03 25-Dec-2016

 -------------------------------------
 # td=(NStates=1) CAM-B3LYP/6-31G(d,p)
 -------------------------------------

 --
 TD
 --
 Symbolic Z-matrix:
 Charge =  0 Multiplicity = 1

                         Standard orientation:
 ---------------------------------------------------------------------
 Center     Atomic      Atomic             Coordinates (Angstroms)
 Number     Number       Type             X           Y           Z
 ---------------------------------------------------------------------
      1          8           0      -11.678693   -0.034689   -1.569339
      2          8           0      -12.883482   -2.404165    1.561479
      3          8           0       10.512216   -1.293103   -1.899479
      4          8           0       14.430872   -1.110913   -0.175041
      5          6           0      -10.978757   -0.213088   -0.367783
      6          6           0      -11.693867   -1.341647   -1.053384
      7          6           0      -11.720976    0.448728    0.887606
      8          6           0      -13.075838   -1.937141   -0.820864
      9          6           0      -13.216142   -0.014759    0.935406
     10          6           0      -13.481701   -1.541968    0.637984
     11          6           0      -10.926902   -2.342356   -2.078042
     12          6           0       -9.550444    0.091076   -0.460257
     13          6           0      -11.100078   -0.004162    2.196025
     14          6           0      -11.685171    1.981213    0.755633
     15          6           0       -8.616404   -0.651092    0.096805
     16          6           0       -7.214862   -0.408661    0.067885
     17          6           0       -6.230581   -1.580212    0.484368
     18          6           0       -6.600068    0.783524   -0.229591
     19          6           0       -5.253824    1.064075   -0.168383
     20          6           0       11.975260    0.171016    1.197779
     21          6           0       11.674961   -0.684752   -1.285483
     22          6           0       12.666632   -1.233875    1.535627
     23          6           0       13.324386   -1.911362    0.291116
     24          6           0       12.359843   -2.118916   -0.777882
     25          6           0       11.019263    0.034430   -0.054622
     26          6           0       11.208337    0.614480    2.465342
     27          6           0       13.055840    1.261981    1.096767
     28          6           0       12.392532    0.192648   -2.258707
     29          6           0       -4.738588    2.310061   -0.587994
     30          6           0        9.836779    0.595175   -0.030859
     31          6           0       -3.338049    2.691943   -0.691293
     32          6           0        8.622663    0.920382   -0.111040
     33          6           0       -2.951399    4.008876   -0.879093
     34          6           0       -2.345661    1.699119   -0.299742
     35          6           0        7.441088    0.173678    0.110407
     36          6           0        7.604880   -1.326346    0.429098
     37          6           0        6.262817    0.637975    0.085855
     38          6           0       -1.043042    1.881372   -0.335198
     39          6           0        4.933209    0.084406    0.110447
     40          6           0        0.026716    0.940310   -0.066976
     41          6           0        3.810107    0.843027   -0.006643
     42          6           0        1.420086    1.262464   -0.105110
     43          6           0        2.412937    0.382358    0.132072
     44          6           0        2.105618   -1.093484    0.434668
     45          1           0      -13.132624   -3.136568   -0.911865
     46          1           0      -13.879854   -1.601493   -1.598121
     47          1           0      -13.785943    0.248886    1.965432
     48          1           0      -13.754079    0.586294    0.167935
     49          1           0      -14.583975   -1.662197    0.682529
     50          1           0      -10.583647   -3.146108   -1.400186
     51          1           0      -11.434923   -2.598691   -3.009732
     52          1           0      -10.024913   -1.614625   -2.543447
     53          1           0       -9.286826    1.040368   -1.045723
     54          1           0       -9.989997    0.365257    2.247183
     55          1           0      -11.847756    0.437840    2.947909
     56          1           0      -11.145969   -0.980529    2.335226
     57          1           0      -11.776146    2.290281   -0.271120
     58          1           0      -12.608734    2.438868    1.421473
     59          1           0      -10.684343    2.502241    1.369458
     60          1           0      -11.945370   -2.799457    0.997109
     61          1           0       -8.847711   -1.552459    0.703914
     62          1           0       -5.265068   -1.934588   -0.223556
     63          1           0       -5.711073   -1.435748    1.471257
     64          1           0       -6.709839   -2.676515    0.728669
     65          1           0       -7.513372    1.395991   -0.308965
     66          1           0       -4.525560    0.228695    0.207885
     67          1           0       13.498769   -1.041960    2.299644
     68          1           0       11.890923   -1.849785    1.952601
     69          1           0       13.531710   -2.980759    0.665906
     70          1           0       12.939136   -2.453365   -1.676661
     71          1           0       11.472054   -2.658384   -0.688199
     72          1           0       11.878950    0.681660    3.343401
     73          1           0       10.593554    1.568752    2.207415
     74          1           0       10.396432   -0.193398    2.647008
     75          1           0       13.744910    1.138325    0.247687
     76          1           0       12.631361    2.217696    0.720395
     77          1           0       13.629102    1.355159    2.144411
     78          1           0       12.672427   -0.464902   -3.036910
     79          1           0       11.842531    1.023831   -2.421879
     80          1           0       13.167861    0.768325   -1.637974
     81          1           0       -5.585309    2.983048   -0.699072
     82          1           0       10.003493   -0.560324   -2.029146
     83          1           0       15.000352   -0.820717    0.655565
     84          1           0        8.469193    1.963102   -0.351523
     85          1           0       -2.772991    4.436034    0.191567
     86          1           0       -2.062462    3.974961   -1.671968
     87          1           0       -3.674397    4.561090   -1.523928
     88          1           0       -2.680987    0.612385   -0.174582
     89          1           0        6.860635   -1.808858    0.119104
     90          1           0        8.349023   -1.667793   -0.231548
     91          1           0        8.077782   -1.458584    1.574182
     92          1           0        6.123770    1.622565   -0.147035
     93          1           0       -0.697288    2.881340   -0.856136
     94          1           0        4.882206   -1.113319   -0.070008
     95          1           0       -0.264490   -0.043353    0.480953
     96          1           0        3.777916    1.824771    0.075898
     97          1           0        1.644414    2.216362   -0.529850
     98          1           0        1.065533   -1.258281    0.676682
     99          1           0        2.513107   -1.624254   -0.405090
    100          1           0        2.721568   -1.507141    1.183192
 ---------------------------------------------------------------------

 SCF Done:  E(RCAM-B3LYP) =  -1857.25514750     A.U. after   15 cycles

 Excitation energies and oscillator strengths:

 Excited State   1:      Singlet-A      2.0720 eV  598.37 nm  f=2.5255  <S**2>=0.000
     163 ->166        -0.11093
     164 ->165         0.70424
     164 <-165        -0.11673
 This state for optimization and/or second-order correction.
 Total Energy, E(TD-HF/TD-DFT) =  -1857.17900216
 Copying the excited state density for this state as the 1-particle RhoCI density.

 The electronic state is 1-A.
 Alpha  occ. eigenvalues --  -19.23268 -19.23002 -19.22472 -19.19755 -10.33028
 Alpha  occ. eigenvalues --  -10.32944 -10.31980 -10.31374 -10.31003 -10.28330
 Alpha  occ. eigenvalues --  -10.28310 -10.28128 -10.28120 -10.27960 -10.27919
 Alpha  occ. eigenvalues --  -10.27794 -10.27653 -10.27516 -10.27516 -10.27432
 Alpha  occ. eigenvalues --  -10.27317 -10.27180 -10.27121 -10.27062 -10.27004
 Alpha  occ. eigenvalues --  -10.26955 -10.26921 -10.26465 -10.26352 -10.26297
 Alpha  occ. eigenvalues --  -10.26287 -10.26259 -10.26239 -10.26056 -10.25990
 Alpha  occ. eigenvalues --  -10.25952 -10.25661 -10.25628 -10.25042 -10.24917
 Alpha  occ. eigenvalues --  -10.24254 -10.24105 -10.23970 -10.23600  -1.17357
 Alpha  occ. eigenvalues --   -1.10716  -1.08516  -1.08425  -0.93379  -0.92806
 Alpha  occ. eigenvalues --   -0.91965  -0.91489  -0.90819  -0.89658  -0.87441
 Alpha  occ. eigenvalues --   -0.86752  -0.85642  -0.85354  -0.84887  -0.83477
 Alpha  occ. eigenvalues --   -0.82137  -0.81486  -0.79161  -0.78986  -0.77956
 Alpha  occ. eigenvalues --   -0.77356  -0.76010  -0.75514  -0.75232  -0.74505
 Alpha  occ. eigenvalues --   -0.74421  -0.74086  -0.73584  -0.69939  -0.69411
 Alpha  occ. eigenvalues --   -0.68491  -0.66997  -0.64997  -0.63964  -0.63426
 Alpha  occ. eigenvalues --   -0.62937  -0.62217  -0.60745  -0.60445  -0.59200
 Alpha  occ. eigenvalues --   -0.58622  -0.57859  -0.57649  -0.56764  -0.56545
 Alpha  occ. eigenvalues --   -0.56236  -0.55558  -0.55456  -0.54854  -0.54228
 Alpha  occ. eigenvalues --   -0.53599  -0.53307  -0.53152  -0.52459  -0.52154
 Alpha  occ. eigenvalues --   -0.51969  -0.51508  -0.51213  -0.50590  -0.49855
 Alpha  occ. eigenvalues --   -0.49641  -0.48954  -0.48366  -0.48273  -0.48128
 Alpha  occ. eigenvalues --   -0.47884  -0.47616  -0.47453  -0.47020  -0.46799
 Alpha  occ. eigenvalues --   -0.46607  -0.45977  -0.45839  -0.45753  -0.45182
 Alpha  occ. eigenvalues --   -0.45017  -0.44617  -0.44486  -0.44316  -0.44071
 Alpha  occ. eigenvalues --   -0.43897  -0.43676  -0.43427  -0.43131  -0.42683
 Alpha  occ. eigenvalues --   -0.41846  -0.41175  -0.41112  -0.40939  -0.40704
 Alpha  occ. eigenvalues --   -0.40510  -0.40363  -0.40015  -0.39531  -0.39441
 Alpha  occ. eigenvalues --   -0.39129  -0.39016  -0.38846  -0.38645  -0.38436
 Alpha  occ. eigenvalues --   -0.38026  -0.37861  -0.37534  -0.37227  -0.36818
 Alpha  occ. eigenvalues --   -0.36510  -0.36244  -0.35835  -0.35550  -0.33950
 Alpha  occ. eigenvalues --   -0.32940  -0.32018  -0.31837  -0.31672  -0.30968
 Alpha  occ. eigenvalues --   -0.29724  -0.28143  -0.25544  -0.19579
 Alpha virt. eigenvalues --   -0.06548  -0.00387   0.02758   0.05834   0.06286
 Alpha virt. eigenvalues --    0.07429   0.09347   0.09726   0.11179   0.11655
 Alpha virt. eigenvalues --    0.12035   0.12406   0.12812   0.13105   0.13439

 Mulliken charges:
               1
     1  O   -0.486594
     2  O   -0.532304
     3  O   -0.539897
     4  O   -0.557135
     5  C    0.204933
     6  C    0.201621
     7  C    0.046440
     8  C   -0.237589
     9  C   -0.202598
    10  C    0.181532
    11  C   -0.318238
    12  C   -0.126653
    13  C   -0.278430
    14  C   -0.303447
    15  C   -0.052664
    16  C    0.070563
    17  C   -0.380393
    18  C   -0.085774
    19  C   -0.071971
    20  C    0.021459
    21  C    0.188890
    22  C   -0.192469
    23  C    0.175539
    24  C   -0.186189
    25  C   -0.087019
    26  C   -0.289478
    27  C   -0.307036
    28  C   -0.280159
    29  C   -0.122313
    30  C    0.171938
    31  C    0.082369
    32  C   -0.309505
    33  C   -0.378239
    34  C   -0.077727
    35  C    0.141856
    36  C   -0.341025
    37  C   -0.113619
    38  C   -0.096260
    39  C   -0.095474
    40  C   -0.112598
    41  C   -0.095523
    42  C   -0.112248
    43  C    0.087349
    44  C   -0.364009
    45  H    0.096190
    46  H    0.121934
    47  H    0.085894
    48  H    0.101922
    49  H    0.085877
    50  H    0.096792
    51  H    0.125916
    52  H    0.092145
    53  H    0.116975
    54  H    0.085427
    55  H    0.089317
    56  H    0.113786
    57  H    0.127827
    58  H    0.085423
    59  H    0.070831
    60  H    0.299989
    61  H    0.090488
    62  H    0.096869
    63  H    0.123403
    64  H    0.077240
    65  H    0.076876
    66  H    0.095007
    67  H    0.067306
    68  H    0.102547
    69  H    0.071891
    70  H    0.108950
    71  H    0.146258
    72  H    0.097666
    73  H    0.100243
    74  H    0.083378
    75  H    0.112203
    76  H    0.096496
    77  H    0.080883
    78  H    0.127583
    79  H    0.105436
    80  H    0.108886
    81  H    0.090277
    82  H    0.286361
    83  H    0.317677
    84  H    0.102364
    85  H    0.140945
    86  H    0.111645
    87  H    0.115952
    88  H    0.081349
    89  H    0.105555
    90  H    0.126670
    91  H    0.096357
    92  H    0.068747
    93  H    0.069105
    94  H    0.072789
    95  H    0.077847
    96  H    0.084039
    97  H    0.083875
    98  H    0.109197
    99  H    0.130240
   100  H    0.123241
 Sum of Mulliken charges =  -0.00000

 Dipole moment (field-independent basis, Debye):
    X=              1.9322    Y=              0.6995    Z=              0.6160  Tot=              2.1453
 Quadrupole moment (field-independent basis, Debye-Ang):
   XX=           -267.7968   YY=           -260.1329   ZZ=           -280.0943
   XY=             11.1479   XZ=             30.4698   YZ=             -4.0515

 Normal termination of Gaussian 16 at Tue Jul 30 15:31:23 2019.
