 Gaussian 16, Revision A.03,
 Gaussian 16:  ES64L-G16RevA.03 25-Dec-2016

 -------------------------------------
 # td=(NStates=1) CAM-B3LYP/6-31G(d,p)
 -------------------------------------

 --
 TD
 --
 Symbolic Z-matrix:
 Charge =  0 Multiplicity = 1

                         Standard orientation:
 ---------------------------------------------------------------------
 Center     Atomic      Atomic             Coordinates (Angstroms)
 Number     Number       Type             X           Y           Z
 ---------------------------------------------------------------------
      1          8           0      -11.884992    0.232884   -1.563983
      2          8           0      -13.048004   -2.580094    1.329918
      3          8           0       10.508042   -0.993000   -2.099601
      4          8           0       14.477411   -1.116936   -0.259287
      5          6           0      -11.007086   -0.161915   -0.385858
      6          6           0      -11.652210   -1.115199   -1.253664
      7          6           0      -11.813823    0.285686    0.962755
      8          6           0      -12.919381   -1.806264   -0.954285
      9          6           0      -13.266459   -0.205591    0.914064
     10          6           0      -13.519214   -1.595417    0.468244
     11          6           0      -10.765108   -1.928858   -2.286803
     12          6           0       -9.571921    0.141813   -0.453704
     13          6           0      -10.965364   -0.202174    2.230921
     14          6           0      -11.867590    1.788780    0.967537
     15          6           0       -8.627398   -0.670748    0.090491
     16          6           0       -7.223731   -0.518386    0.189857
     17          6           0       -6.411432   -1.662073    0.603036
     18          6           0       -6.604901    0.697647   -0.093921
     19          6           0       -5.215329    0.981780   -0.287622
     20          6           0       11.938886   -0.011340    1.413593
     21          6           0       11.689692   -0.613032   -1.273314
     22          6           0       12.648316   -1.324360    1.446112
     23          6           0       13.274636   -1.859690    0.221697
     24          6           0       12.329844   -1.878522   -0.920228
     25          6           0       11.113732    0.057492    0.002406
     26          6           0       11.069783    0.221925    2.556823
     27          6           0       12.984296    1.150108    1.327813
     28          6           0       12.559288    0.418983   -2.086903
     29          6           0       -4.689605    2.283426   -0.362805
     30          6           0        9.839681    0.483413   -0.046701
     31          6           0       -3.358312    2.549335   -0.389391
     32          6           0        8.665484    0.940965   -0.021258
     33          6           0       -3.052515    4.066495   -0.662112
     34          6           0       -2.280661    1.745082   -0.203529
     35          6           0        7.454908    0.107945   -0.011203
     36          6           0        7.766304   -1.406311    0.135660
     37          6           0        6.279557    0.718348    0.021072
     38          6           0       -0.975089    1.955473   -0.221326
     39          6           0        4.899315    0.140201    0.072693
     40          6           0        0.119591    1.000372   -0.077465
     41          6           0        3.767987    0.870803   -0.204599
     42          6           0        1.452722    1.318251   -0.107232
     43          6           0        2.533805    0.317888    0.013591
     44          6           0        2.262261   -0.984561    0.386182
     45          1           0      -12.713961   -3.106800   -0.965648
     46          1           0      -13.556355   -1.437477   -1.706163
     47          1           0      -13.835566    0.045291    1.987946
     48          1           0      -13.909818    0.463830    0.237810
     49          1           0      -14.534616   -1.859493    0.260166
     50          1           0      -10.205722   -2.889649   -1.900492
     51          1           0      -11.090514   -2.256438   -3.154149
     52          1           0      -10.049756   -1.183827   -2.626727
     53          1           0       -9.178229    1.014509   -0.927456
     54          1           0       -9.951560    0.316109    2.170259
     55          1           0      -11.512551    0.346779    3.151045
     56          1           0      -11.030985   -1.256449    2.301064
     57          1           0      -12.396317    2.230251    0.137613
     58          1           0      -12.347497    2.220422    1.737698
     59          1           0      -10.855285    2.254789    0.969393
     60          1           0      -11.997819   -2.603471    1.292898
     61          1           0       -9.123140   -1.505848    0.701701
     62          1           0       -6.108271   -2.280397   -0.266048
     63          1           0       -5.513150   -1.609875    1.230541
     64          1           0       -7.193728   -2.654668    1.061995
     65          1           0       -7.319193    1.331773   -0.350523
     66          1           0       -4.618267   -0.059665    0.017447
     67          1           0       13.282533   -1.329665    2.267826
     68          1           0       11.947913   -2.125846    2.019456
     69          1           0       13.494135   -2.981815    0.426723
     70          1           0       12.778695   -2.319533   -1.896316
     71          1           0       11.507203   -2.622650   -0.702627
     72          1           0       11.594712    0.076280    3.430859
     73          1           0       10.592687    1.132366    2.752924
     74          1           0       10.237536   -0.568725    2.632092
     75          1           0       13.557018    0.696554    0.542238
     76          1           0       12.430226    2.048489    0.947902
     77          1           0       13.428259    1.395377    2.321680
     78          1           0       13.065041   -0.093207   -3.010015
     79          1           0       11.817166    1.332470   -2.311013
     80          1           0       13.349917    0.570782   -1.470075
     81          1           0       -5.370698    3.092831   -0.561389
     82          1           0       10.164985   -0.094120   -2.126490
     83          1           0       14.912438   -0.943961    0.463355
     84          1           0        8.315150    2.086939   -0.056161
     85          1           0       -2.384432    4.344921    0.154739
     86          1           0       -2.520157    4.177556   -1.513578
     87          1           0       -3.972663    4.697767   -0.574544
     88          1           0       -2.757893    0.762271    0.193438
     89          1           0        6.864613   -1.921718    0.297617
     90          1           0        8.402158   -1.712455   -0.762736
     91          1           0        8.335356   -1.518914    0.992971
     92          1           0        6.177313    1.832545   -0.280666
     93          1           0       -0.500882    2.836589   -0.672415
     94          1           0        4.855968   -0.834778    0.350757
     95          1           0       -0.391355    0.026251    0.259470
     96          1           0        3.861827    2.022368   -0.398510
     97          1           0        1.592600    2.401483   -0.235177
     98          1           0        1.222995   -1.047619    1.160868
     99          1           0        2.155365   -1.740678   -0.618719
    100          1           0        3.399168   -1.327306    1.035034
 ---------------------------------------------------------------------

 SCF Done:  E(RCAM-B3LYP) =  -1857.22972052     A.U. after   15 cycles

 Excitation energies and oscillator strengths:

 Excited State   1:      Singlet-A      1.8004 eV  688.64 nm  f=2.8380  <S**2>=0.000
     163 ->166         0.10898
     164 ->165         0.71066
     164 <-165        -0.14745
 This state for optimization and/or second-order correction.
 Total Energy, E(TD-HF/TD-DFT) =  -1857.16355626
 Copying the excited state density for this state as the 1-particle RhoCI density.

 The electronic state is 1-A.
 Alpha  occ. eigenvalues --  -19.22613 -19.21977 -19.21619 -19.20714 -10.32925
 Alpha  occ. eigenvalues --  -10.32397 -10.32062 -10.31785 -10.30610 -10.29729
 Alpha  occ. eigenvalues --  -10.28793 -10.28558 -10.28519 -10.28021 -10.27979
 Alpha  occ. eigenvalues --  -10.27881 -10.27749 -10.27541 -10.27444 -10.27402
 Alpha  occ. eigenvalues --  -10.27386 -10.27168 -10.27124 -10.27112 -10.26944
 Alpha  occ. eigenvalues --  -10.26718 -10.26704 -10.26663 -10.26660 -10.26548
 Alpha  occ. eigenvalues --  -10.26472 -10.26435 -10.26419 -10.25974 -10.25932
 Alpha  occ. eigenvalues --  -10.25909 -10.25710 -10.25526 -10.25225 -10.24707
 Alpha  occ. eigenvalues --  -10.24386 -10.24338 -10.24237 -10.23099  -1.14248
 Alpha  occ. eigenvalues --   -1.12523  -1.09102  -1.08761  -0.94317  -0.93349
 Alpha  occ. eigenvalues --   -0.92859  -0.91876  -0.91219  -0.89944  -0.88080
 Alpha  occ. eigenvalues --   -0.87782  -0.86182  -0.85682  -0.84955  -0.83668
 Alpha  occ. eigenvalues --   -0.82404  -0.80965  -0.80329  -0.79073  -0.78230
 Alpha  occ. eigenvalues --   -0.76988  -0.76844  -0.76697  -0.76293  -0.76102
 Alpha  occ. eigenvalues --   -0.75766  -0.74949  -0.73155  -0.71093  -0.70585
 Alpha  occ. eigenvalues --   -0.69556  -0.67604  -0.65749  -0.64926  -0.64355
 Alpha  occ. eigenvalues --   -0.63454  -0.61985  -0.60850  -0.60024  -0.59583
 Alpha  occ. eigenvalues --   -0.59228  -0.58483  -0.57957  -0.56898  -0.56744
 Alpha  occ. eigenvalues --   -0.55805  -0.55546  -0.54823  -0.54784  -0.54451
 Alpha  occ. eigenvalues --   -0.53661  -0.53020  -0.52440  -0.52233  -0.51941
 Alpha  occ. eigenvalues --   -0.51666  -0.51251  -0.50939  -0.50678  -0.50234
 Alpha  occ. eigenvalues --   -0.50018  -0.49949  -0.49057  -0.48937  -0.48550
 Alpha  occ. eigenvalues --   -0.48309  -0.48264  -0.47967  -0.47632  -0.47143
 Alpha  occ. eigenvalues --   -0.47044  -0.46152  -0.45775  -0.45744  -0.45456
 Alpha  occ. eigenvalues --   -0.45229  -0.44704  -0.44582  -0.44415  -0.44111
 Alpha  occ. eigenvalues --   -0.44028  -0.43223  -0.43165  -0.43044  -0.42976
 Alpha  occ. eigenvalues --   -0.42159  -0.41970  -0.41639  -0.41223  -0.40939
 Alpha  occ. eigenvalues --   -0.40694  -0.40401  -0.40206  -0.40059  -0.39953
 Alpha  occ. eigenvalues --   -0.39876  -0.39607  -0.39317  -0.39044  -0.38677
 Alpha  occ. eigenvalues --   -0.38193  -0.37940  -0.37869  -0.37708  -0.37061
 Alpha  occ. eigenvalues --   -0.36219  -0.36105  -0.35562  -0.34997  -0.34569
 Alpha  occ. eigenvalues --   -0.34001  -0.32622  -0.32239  -0.31818  -0.31357
 Alpha  occ. eigenvalues --   -0.29597  -0.28148  -0.25371  -0.18743
 Alpha virt. eigenvalues --   -0.07828  -0.00923   0.03013   0.04820   0.06296
 Alpha virt. eigenvalues --    0.08557   0.09681   0.09744   0.10603   0.10821
 Alpha virt. eigenvalues --    0.11822   0.11941   0.12251   0.12903   0.13251

 Mulliken charges:
               1
     1  O   -0.509589
     2  O   -0.543984
     3  O   -0.553377
     4  O   -0.517835
     5  C    0.177147
     6  C    0.259647
     7  C    0.023208
     8  C   -0.208940
     9  C   -0.173877
    10  C    0.169454
    11  C   -0.327807
    12  C   -0.126726
    13  C   -0.297096
    14  C   -0.311650
    15  C   -0.077403
    16  C    0.115897
    17  C   -0.393621
    18  C   -0.080288
    19  C   -0.090655
    20  C    0.042541
    21  C    0.207761
    22  C   -0.211199
    23  C    0.127230
    24  C   -0.182386
    25  C   -0.102174
    26  C   -0.320240
    27  C   -0.302108
    28  C   -0.276454
    29  C   -0.116616
    30  C    0.199765
    31  C    0.097189
    32  C   -0.324752
    33  C   -0.377350
    34  C   -0.081984
    35  C    0.118865
    36  C   -0.368051
    37  C   -0.142400
    38  C   -0.116694
    39  C   -0.102227
    40  C   -0.073254
    41  C   -0.085179
    42  C   -0.141768
    43  C    0.173212
    44  C   -0.358988
    45  H    0.064210
    46  H    0.122124
    47  H    0.074033
    48  H    0.104552
    49  H    0.104107
    50  H    0.086010
    51  H    0.122899
    52  H    0.111302
    53  H    0.107872
    54  H    0.121800
    55  H    0.090424
    56  H    0.087953
    57  H    0.122619
    58  H    0.111291
    59  H    0.088034
    60  H    0.302069
    61  H    0.069738
    62  H    0.136171
    63  H    0.133345
    64  H    0.056156
    65  H    0.056662
    66  H    0.077286
    67  H    0.105022
    68  H    0.093090
    69  H    0.093348
    70  H    0.112049
    71  H    0.119749
    72  H    0.101329
    73  H    0.120788
    74  H    0.091752
    75  H    0.109027
    76  H    0.107706
    77  H    0.096086
    78  H    0.103906
    79  H    0.080172
    80  H    0.141750
    81  H    0.100452
    82  H    0.300508
    83  H    0.292399
    84  H    0.099059
    85  H    0.119374
    86  H    0.133483
    87  H    0.097991
    88  H    0.061526
    89  H    0.103033
    90  H    0.148312
    91  H    0.128835
    92  H    0.068320
    93  H    0.075945
    94  H    0.078584
    95  H    0.075142
    96  H    0.091487
    97  H    0.090908
    98  H    0.105562
    99  H    0.115131
   100  H    0.072275
 Sum of Mulliken charges =  -0.00000

 Dipole moment (field-independent basis, Debye):
    X=              5.1179    Y=              0.4995    Z=              2.9169  Tot=              5.9119
 Quadrupole moment (field-independent basis, Debye-Ang):
   XX=           -283.1347   YY=           -262.4621   ZZ=           -278.6626
   XY=             -8.4393   XZ=             38.8074   YZ=             -2.0753

 Normal termination of Gaussian 16 at Thu Aug  1 07:55:56 2019.
