 Gaussian 16, Revision A.03,
 Gaussian 16:  ES64L-G16RevA.03 25-Dec-2016

 -------------------------------------
 # td=(NStates=1) CAM-B3LYP/6-31G(d,p)
 -------------------------------------

 --
 TD
 --
 Symbolic Z-matrix:
 Charge =  0 Multiplicity = 1

                         Standard orientation:
 ---------------------------------------------------------------------
 Center     Atomic      Atomic             Coordinates (Angstroms)
 Number     Number       Type             X           Y           Z
 ---------------------------------------------------------------------
      1          8           0      -11.692427    0.070790   -1.662311
      2          8           0      -13.118945   -2.264046    1.602162
      3          8           0       10.638285   -1.358118   -1.881489
      4          8           0       14.558458   -0.974549   -0.110279
      5          6           0      -11.033513   -0.188687   -0.343615
      6          6           0      -11.663486   -1.276152   -1.220557
      7          6           0      -11.784106    0.414331    0.793485
      8          6           0      -13.047974   -1.901467   -0.867372
      9          6           0      -13.247171    0.032801    0.755845
     10          6           0      -13.585804   -1.387912    0.480032
     11          6           0      -10.734318   -2.100255   -2.050174
     12          6           0       -9.547264    0.025938   -0.417986
     13          6           0      -11.113956   -0.046676    2.104447
     14          6           0      -11.763280    1.939829    0.815591
     15          6           0       -8.716924   -0.656773    0.313885
     16          6           0       -7.289874   -0.459616    0.406680
     17          6           0       -6.367225   -1.634967    0.783257
     18          6           0       -6.683449    0.713468   -0.105495
     19          6           0       -5.241836    0.959098   -0.124043
     20          6           0       11.890341    0.185890    1.316016
     21          6           0       11.698306   -0.736933   -1.137021
     22          6           0       12.753936   -1.045867    1.569399
     23          6           0       13.388477   -1.705630    0.393390
     24          6           0       12.451350   -1.969471   -0.725881
     25          6           0       11.159293    0.077827    0.035154
     26          6           0       11.065239    0.427412    2.545473
     27          6           0       12.940046    1.470818    1.241628
     28          6           0       12.417270    0.186412   -2.162131
     29          6           0       -4.716660    2.171921   -0.411755
     30          6           0        9.938980    0.534162   -0.094869
     31          6           0       -3.386832    2.503999   -0.511522
     32          6           0        8.661724    0.830844   -0.412594
     33          6           0       -3.018590    3.980029   -0.621350
     34          6           0       -2.316327    1.556617   -0.354244
     35          6           0        7.433546    0.129897   -0.085458
     36          6           0        7.561418   -1.242556    0.385407
     37          6           0        6.234903    0.818849   -0.129697
     38          6           0       -0.971584    1.797369   -0.455343
     39          6           0        4.943536    0.176662    0.062979
     40          6           0       -0.003668    0.801582   -0.233771
     41          6           0        3.797698    0.765506   -0.266236
     42          6           0        1.403338    1.063661   -0.283866
     43          6           0        2.481241    0.206326   -0.091528
     44          6           0        2.293468   -1.247648    0.302196
     45          1           0      -12.965639   -3.139708   -0.774776
     46          1           0      -13.793534   -1.622248   -1.735089
     47          1           0      -13.508370    0.146304    1.858180
     48          1           0      -13.888755    0.614255    0.027218
     49          1           0      -14.653674   -1.461629    0.526707
     50          1           0      -10.305330   -3.031916   -1.578766
     51          1           0      -11.279482   -2.543490   -2.957124
     52          1           0       -9.869258   -1.332751   -2.511048
     53          1           0       -9.111304    0.725159   -1.301312
     54          1           0      -10.128912    0.434468    2.176256
     55          1           0      -11.581741    0.331364    2.901069
     56          1           0      -11.045071   -1.152665    2.131027
     57          1           0      -12.197789    2.398211   -0.070213
     58          1           0      -12.404563    2.338057    1.815749
     59          1           0      -10.803459    2.388771    1.010202
     60          1           0      -12.080862   -2.276063    1.324332
     61          1           0       -9.302056   -1.340362    0.952553
     62          1           0       -6.136984   -2.359561   -0.018534
     63          1           0       -5.456250   -1.265397    1.102680
     64          1           0       -6.894075   -2.286050    1.427886
     65          1           0       -7.406521    1.634536   -0.235175
     66          1           0       -4.516716    0.020196    0.010473
     67          1           0       13.696824   -1.020869    2.167420
     68          1           0       12.213323   -1.831025    1.908119
     69          1           0       13.565932   -2.760871    0.684846
     70          1           0       13.021338   -2.238328   -1.652225
     71          1           0       11.956448   -2.865405   -0.486280
     72          1           0       11.725216    0.187423    3.404729
     73          1           0       10.192531    1.329704    2.592921
     74          1           0       10.455723   -0.472070    2.483601
     75          1           0       13.663678    1.402986    0.305856
     76          1           0       12.315661    2.357422    1.167361
     77          1           0       13.499506    1.623339    2.152237
     78          1           0       12.819619   -0.531071   -2.888377
     79          1           0       11.699957    0.884696   -2.740742
     80          1           0       13.267160    0.825534   -1.614245
     81          1           0       -5.260754    3.161332   -0.651396
     82          1           0        9.954135   -0.710183   -2.059032
     83          1           0       15.030769   -0.609886    0.680829
     84          1           0        8.634527    1.905953   -0.843173
     85          1           0       -2.320206    4.343747    0.157756
     86          1           0       -2.379787    4.002320   -1.566856
     87          1           0       -3.899012    4.715519   -0.750309
     88          1           0       -2.714465    0.584237   -0.243575
     89          1           0        6.699586   -1.967287    0.168419
     90          1           0        8.487738   -1.861537   -0.083860
     91          1           0        7.734390   -1.393395    1.532225
     92          1           0        6.058794    1.834349   -0.616772
     93          1           0       -0.591821    2.783543   -0.877380
     94          1           0        5.017531   -0.726825    0.461967
     95          1           0       -0.503048   -0.087123    0.071079
     96          1           0        3.632887    1.871130   -0.324557
     97          1           0        1.750635    2.087223   -0.584345
     98          1           0        1.184404   -1.586813    0.282389
     99          1           0        2.969309   -1.934936   -0.470264
    100          1           0        2.987225   -1.338744    1.374529
 ---------------------------------------------------------------------

 SCF Done:  E(RCAM-B3LYP) =  -1857.37553890     A.U. after   15 cycles

 Excitation energies and oscillator strengths:

 Excited State   1:      Singlet-A      2.1815 eV  568.34 nm  f=2.8710  <S**2>=0.000
     163 ->166         0.12743
     164 ->165         0.69751
 This state for optimization and/or second-order correction.
 Total Energy, E(TD-HF/TD-DFT) =  -1857.29536982
 Copying the excited state density for this state as the 1-particle RhoCI density.

 The electronic state is 1-A.
 Alpha  occ. eigenvalues --  -19.22339 -19.21991 -19.21804 -19.19825 -10.33108
 Alpha  occ. eigenvalues --  -10.32239 -10.31549 -10.30447 -10.30281 -10.29467
 Alpha  occ. eigenvalues --  -10.28827 -10.28773 -10.28488 -10.28440 -10.28323
 Alpha  occ. eigenvalues --  -10.28283 -10.27907 -10.27691 -10.27565 -10.27552
 Alpha  occ. eigenvalues --  -10.27403 -10.27358 -10.27267 -10.27176 -10.27162
 Alpha  occ. eigenvalues --  -10.27103 -10.27085 -10.27012 -10.26903 -10.26884
 Alpha  occ. eigenvalues --  -10.26851 -10.26384 -10.26283 -10.26282 -10.25959
 Alpha  occ. eigenvalues --  -10.25900 -10.25495 -10.25459 -10.25456 -10.25451
 Alpha  occ. eigenvalues --  -10.25388 -10.25192 -10.24343 -10.24174  -1.14180
 Alpha  occ. eigenvalues --   -1.09113  -1.08170  -1.06416  -0.93951  -0.92759
 Alpha  occ. eigenvalues --   -0.92450  -0.92072  -0.90796  -0.90346  -0.87941
 Alpha  occ. eigenvalues --   -0.87043  -0.86151  -0.85761  -0.85027  -0.83751
 Alpha  occ. eigenvalues --   -0.82000  -0.81105  -0.80576  -0.77917  -0.76981
 Alpha  occ. eigenvalues --   -0.76830  -0.76647  -0.76273  -0.75606  -0.75473
 Alpha  occ. eigenvalues --   -0.75312  -0.75028  -0.73176  -0.70824  -0.69646
 Alpha  occ. eigenvalues --   -0.68345  -0.67218  -0.65573  -0.64462  -0.64237
 Alpha  occ. eigenvalues --   -0.63592  -0.62402  -0.61194  -0.60526  -0.59171
 Alpha  occ. eigenvalues --   -0.58316  -0.58078  -0.57817  -0.56854  -0.56287
 Alpha  occ. eigenvalues --   -0.56039  -0.55338  -0.54994  -0.54351  -0.54111
 Alpha  occ. eigenvalues --   -0.53746  -0.53425  -0.52763  -0.52230  -0.51305
 Alpha  occ. eigenvalues --   -0.51196  -0.50983  -0.50514  -0.50343  -0.49887
 Alpha  occ. eigenvalues --   -0.49011  -0.48695  -0.48049  -0.47951  -0.47868
 Alpha  occ. eigenvalues --   -0.47392  -0.47159  -0.46932  -0.46789  -0.46589
 Alpha  occ. eigenvalues --   -0.46379  -0.46306  -0.46167  -0.45480  -0.45288
 Alpha  occ. eigenvalues --   -0.45148  -0.44906  -0.44470  -0.44297  -0.44181
 Alpha  occ. eigenvalues --   -0.43941  -0.43338  -0.43061  -0.42652  -0.42269
 Alpha  occ. eigenvalues --   -0.41957  -0.41881  -0.41726  -0.41567  -0.41277
 Alpha  occ. eigenvalues --   -0.41166  -0.40969  -0.40713  -0.40636  -0.40204
 Alpha  occ. eigenvalues --   -0.39816  -0.39729  -0.39558  -0.39361  -0.39260
 Alpha  occ. eigenvalues --   -0.38515  -0.38369  -0.37959  -0.37720  -0.37491
 Alpha  occ. eigenvalues --   -0.36793  -0.36485  -0.35619  -0.34760  -0.33864
 Alpha  occ. eigenvalues --   -0.32742  -0.32691  -0.32328  -0.31959  -0.31395
 Alpha  occ. eigenvalues --   -0.29507  -0.28193  -0.25028  -0.19980
 Alpha virt. eigenvalues --   -0.06290  -0.00895   0.02596   0.06060   0.06520
 Alpha virt. eigenvalues --    0.08745   0.09870   0.10498   0.11017   0.11256
 Alpha virt. eigenvalues --    0.11737   0.12310   0.12790   0.12976   0.13206

 Mulliken charges:
               1
     1  O   -0.517557
     2  O   -0.549987
     3  O   -0.569760
     4  O   -0.558470
     5  C    0.166307
     6  C    0.278648
     7  C    0.014806
     8  C   -0.214437
     9  C   -0.157345
    10  C    0.118246
    11  C   -0.327434
    12  C   -0.116606
    13  C   -0.302636
    14  C   -0.297910
    15  C   -0.049691
    16  C    0.053320
    17  C   -0.361313
    18  C   -0.115752
    19  C   -0.102838
    20  C    0.021684
    21  C    0.237179
    22  C   -0.183471
    23  C    0.128200
    24  C   -0.178822
    25  C   -0.024875
    26  C   -0.306076
    27  C   -0.317539
    28  C   -0.275160
    29  C   -0.092681
    30  C    0.108552
    31  C    0.082819
    32  C   -0.291959
    33  C   -0.380145
    34  C   -0.102385
    35  C    0.163679
    36  C   -0.403872
    37  C   -0.124966
    38  C   -0.078089
    39  C   -0.067915
    40  C   -0.086121
    41  C   -0.116530
    42  C   -0.148755
    43  C    0.142340
    44  C   -0.352048
    45  H    0.097836
    46  H    0.114556
    47  H    0.107747
    48  H    0.105936
    49  H    0.107696
    50  H    0.104904
    51  H    0.104906
    52  H    0.110233
    53  H    0.102558
    54  H    0.116518
    55  H    0.115089
    56  H    0.077704
    57  H    0.123433
    58  H    0.070271
    59  H    0.106493
    60  H    0.293249
    61  H    0.072759
    62  H    0.120497
    63  H    0.122047
    64  H    0.113421
    65  H    0.089707
    66  H    0.093555
    67  H    0.085305
    68  H    0.104323
    69  H    0.075869
    70  H    0.117952
    71  H    0.120846
    72  H    0.106953
    73  H    0.101157
    74  H    0.104786
    75  H    0.098738
    76  H    0.105581
    77  H    0.097773
    78  H    0.113839
    79  H    0.088936
    80  H    0.100782
    81  H    0.081795
    82  H    0.295433
    83  H    0.303838
    84  H    0.107896
    85  H    0.133510
    86  H    0.118759
    87  H    0.101771
    88  H    0.068268
    89  H    0.112538
    90  H    0.121387
    91  H    0.116965
    92  H    0.084889
    93  H    0.083309
    94  H    0.073903
    95  H    0.083011
    96  H    0.084996
    97  H    0.078900
    98  H    0.114950
    99  H    0.102232
   100  H    0.095060
 Sum of Mulliken charges =  -0.00000

 Dipole moment (field-independent basis, Debye):
    X=              1.1016    Y=              0.3440    Z=              1.9674  Tot=              2.2809
 Quadrupole moment (field-independent basis, Debye-Ang):
   XX=           -298.7714   YY=           -261.2366   ZZ=           -280.1405
   XY=             -0.0437   XZ=             37.0261   YZ=             -2.5528

 Normal termination of Gaussian 16 at Wed Jul 31 16:12:12 2019.
