 Gaussian 16, Revision A.03,
 Gaussian 16:  ES64L-G16RevA.03 25-Dec-2016

 -------------------------------------
 # td=(NStates=1) CAM-B3LYP/6-31G(d,p)
 -------------------------------------

 --
 TD
 --
 Symbolic Z-matrix:
 Charge =  0 Multiplicity = 1

                         Standard orientation:
 ---------------------------------------------------------------------
 Center     Atomic      Atomic             Coordinates (Angstroms)
 Number     Number       Type             X           Y           Z
 ---------------------------------------------------------------------
      1          8           0      -11.669486    0.368423   -1.441109
      2          8           0      -13.074822   -2.636303    1.243946
      3          8           0       10.656573   -0.814389   -2.170905
      4          8           0       14.438049   -0.973213   -0.157597
      5          6           0      -11.061061   -0.113171   -0.301501
      6          6           0      -11.701471   -1.002539   -1.211891
      7          6           0      -11.726632    0.424414    1.013391
      8          6           0      -13.201242   -1.607395   -0.969007
      9          6           0      -13.232460   -0.058728    0.921329
     10          6           0      -13.536831   -1.505306    0.478681
     11          6           0      -10.926502   -1.775010   -2.235354
     12          6           0       -9.610252    0.079577   -0.464060
     13          6           0      -11.133502   -0.213526    2.227813
     14          6           0      -11.783283    1.942250    1.133949
     15          6           0       -8.646135   -0.706961    0.040608
     16          6           0       -7.245167   -0.623753    0.049232
     17          6           0       -6.460465   -1.905043    0.430124
     18          6           0       -6.575478    0.559413   -0.066711
     19          6           0       -5.209022    0.837237   -0.250860
     20          6           0       11.832096   -0.086974    1.405897
     21          6           0       11.720210   -0.478891   -1.270804
     22          6           0       12.574048   -1.454145    1.411359
     23          6           0       13.271440   -1.838206    0.168272
     24          6           0       12.393341   -1.815394   -0.992065
     25          6           0       11.146703    0.142878    0.060958
     26          6           0       10.885622   -0.025199    2.599803
     27          6           0       12.879222    1.150550    1.597128
     28          6           0       12.641277    0.544995   -2.058373
     29          6           0       -4.661577    2.141503   -0.457672
     30          6           0        9.922277    0.699716   -0.049002
     31          6           0       -3.322018    2.484905   -0.525764
     32          6           0        8.679903    1.020370   -0.094432
     33          6           0       -2.977069    3.943347   -0.597062
     34          6           0       -2.315843    1.538249   -0.327596
     35          6           0        7.549992    0.185260   -0.021761
     36          6           0        7.750709   -1.335635   -0.123688
     37          6           0        6.312744    0.724483   -0.051865
     38          6           0       -0.873659    1.833614   -0.225467
     39          6           0        5.034616    0.192496    0.095539
     40          6           0        0.087072    0.866330   -0.043979
     41          6           0        3.813960    0.793112    0.087189
     42          6           0        1.428332    1.255121   -0.071098
     43          6           0        2.505274    0.336794    0.124995
     44          6           0        2.206371   -1.245111    0.194491
     45          1           0      -13.250843   -2.532786   -1.510233
     46          1           0      -13.824436   -1.127753   -1.682745
     47          1           0      -13.669896    0.184097    1.994505
     48          1           0      -13.800651    0.574592    0.197528
     49          1           0      -14.522029   -1.425476    0.583504
     50          1           0      -10.768573   -2.762668   -1.870962
     51          1           0      -11.736116   -1.991741   -2.959538
     52          1           0       -9.947518   -1.225318   -2.490802
     53          1           0       -9.364687    0.945047   -0.873632
     54          1           0      -10.075128   -0.008811    2.294615
     55          1           0      -11.566618    0.035380    3.156407
     56          1           0      -11.313720   -1.357826    2.257043
     57          1           0      -11.849231    2.464221    0.247255
     58          1           0      -12.388911    2.112116    1.941414
     59          1           0      -10.658027    2.389424    1.286083
     60          1           0      -12.119312   -2.523529    1.063826
     61          1           0       -9.010782   -1.698753    0.323987
     62          1           0       -5.594725   -2.396255   -0.097855
     63          1           0       -5.927183   -1.621043    1.404887
     64          1           0       -7.165068   -2.609753    0.836599
     65          1           0       -7.021925    1.489407   -0.391051
     66          1           0       -4.303862   -0.022121   -0.134269
     67          1           0       13.447884   -1.162158    2.224798
     68          1           0       11.957609   -2.297355    1.892664
     69          1           0       13.595671   -2.859370    0.413378
     70          1           0       12.983424   -2.341794   -1.863728
     71          1           0       11.632436   -2.557207   -0.821406
     72          1           0       11.423857    0.036453    3.541231
     73          1           0       10.517542    1.005574    2.612820
     74          1           0       10.352168   -0.988228    2.510956
     75          1           0       13.630349    1.157122    0.718163
     76          1           0       12.382712    2.090230    1.559394
     77          1           0       13.594863    0.965952    2.479037
     78          1           0       12.664765   -0.030131   -2.855257
     79          1           0       11.914073    1.442310   -1.923469
     80          1           0       13.509990    0.634572   -1.558817
     81          1           0       -5.343306    2.952569   -0.794495
     82          1           0        9.872215   -0.045868   -1.999687
     83          1           0       15.023198   -1.280973    0.621311
     84          1           0        8.423193    2.035975   -0.395476
     85          1           0       -2.479856    4.283627    0.279236
     86          1           0       -2.304985    4.304045   -1.282694
     87          1           0       -3.910474    4.673493   -0.413191
     88          1           0       -2.554055    0.434328   -0.346368
     89          1           0        6.697622   -1.853473   -0.434745
     90          1           0        8.392674   -1.611454   -0.873589
     91          1           0        8.304337   -1.710758    0.896733
     92          1           0        6.349730    1.709238    0.064149
     93          1           0       -0.773931    3.046805   -0.185001
     94          1           0        5.058212   -1.030693    0.277227
     95          1           0       -0.466266   -0.166519    0.080438
     96          1           0        3.936516    1.819805   -0.050801
     97          1           0        1.828492    2.205305   -0.315276
     98          1           0        1.216134   -1.518779    0.357328
     99          1           0        2.738342   -1.595721   -0.739822
    100          1           0        2.848362   -1.627284    1.169245
 ---------------------------------------------------------------------

 SCF Done:  E(RCAM-B3LYP) =  -1857.29331659     A.U. after   15 cycles

 Excitation energies and oscillator strengths:

 Excited State   1:      Singlet-A      2.0781 eV  596.62 nm  f=3.0454  <S**2>=0.000
     163 ->166        -0.13579
     164 ->165         0.69523
 This state for optimization and/or second-order correction.
 Total Energy, E(TD-HF/TD-DFT) =  -1857.21694791
 Copying the excited state density for this state as the 1-particle RhoCI density.

 The electronic state is 1-A.
 Alpha  occ. eigenvalues --  -19.22803 -19.22263 -19.21912 -19.20999 -10.31838
 Alpha  occ. eigenvalues --  -10.31763 -10.31176 -10.30918 -10.29933 -10.28737
 Alpha  occ. eigenvalues --  -10.28414 -10.28196 -10.28193 -10.28177 -10.28106
 Alpha  occ. eigenvalues --  -10.28079 -10.27808 -10.27772 -10.27688 -10.27568
 Alpha  occ. eigenvalues --  -10.27481 -10.27272 -10.27232 -10.27163 -10.27140
 Alpha  occ. eigenvalues --  -10.27084 -10.27046 -10.26637 -10.26567 -10.26347
 Alpha  occ. eigenvalues --  -10.26220 -10.26141 -10.25926 -10.25910 -10.25733
 Alpha  occ. eigenvalues --  -10.25618 -10.25424 -10.25161 -10.25042 -10.25021
 Alpha  occ. eigenvalues --  -10.24991 -10.24633 -10.24433 -10.22066  -1.19024
 Alpha  occ. eigenvalues --   -1.09811  -1.08578  -1.06977  -0.93344  -0.92459
 Alpha  occ. eigenvalues --   -0.92237  -0.91589  -0.90942  -0.90534  -0.87930
 Alpha  occ. eigenvalues --   -0.87182  -0.86565  -0.85754  -0.84970  -0.83094
 Alpha  occ. eigenvalues --   -0.82586  -0.81673  -0.80640  -0.78142  -0.77181
 Alpha  occ. eigenvalues --   -0.77118  -0.77050  -0.76496  -0.76426  -0.75798
 Alpha  occ. eigenvalues --   -0.75338  -0.74943  -0.73534  -0.71304  -0.70075
 Alpha  occ. eigenvalues --   -0.68587  -0.67509  -0.66924  -0.64997  -0.64200
 Alpha  occ. eigenvalues --   -0.63241  -0.61311  -0.60669  -0.60319  -0.60163
 Alpha  occ. eigenvalues --   -0.59113  -0.58478  -0.58206  -0.57967  -0.57126
 Alpha  occ. eigenvalues --   -0.56247  -0.55384  -0.55187  -0.55053  -0.54472
 Alpha  occ. eigenvalues --   -0.54004  -0.53559  -0.53276  -0.53191  -0.52681
 Alpha  occ. eigenvalues --   -0.51358  -0.50994  -0.50344  -0.50314  -0.49948
 Alpha  occ. eigenvalues --   -0.49286  -0.49000  -0.48758  -0.48715  -0.48547
 Alpha  occ. eigenvalues --   -0.47968  -0.47767  -0.47552  -0.47301  -0.47022
 Alpha  occ. eigenvalues --   -0.46995  -0.46751  -0.46478  -0.45962  -0.45280
 Alpha  occ. eigenvalues --   -0.45105  -0.44929  -0.44457  -0.44393  -0.44268
 Alpha  occ. eigenvalues --   -0.43871  -0.43496  -0.43246  -0.43085  -0.42888
 Alpha  occ. eigenvalues --   -0.42491  -0.42428  -0.42146  -0.41990  -0.40844
 Alpha  occ. eigenvalues --   -0.40746  -0.40720  -0.40427  -0.40150  -0.40128
 Alpha  occ. eigenvalues --   -0.39787  -0.39438  -0.39329  -0.38748  -0.38604
 Alpha  occ. eigenvalues --   -0.38248  -0.38214  -0.37696  -0.37439  -0.37081
 Alpha  occ. eigenvalues --   -0.36883  -0.36534  -0.35804  -0.34884  -0.34381
 Alpha  occ. eigenvalues --   -0.33048  -0.32839  -0.31877  -0.31613  -0.31139
 Alpha  occ. eigenvalues --   -0.29375  -0.28789  -0.24531  -0.19823
 Alpha virt. eigenvalues --   -0.06636  -0.01732   0.03209   0.05106   0.06603
 Alpha virt. eigenvalues --    0.09007   0.10275   0.10456   0.10843   0.11511
 Alpha virt. eigenvalues --    0.12396   0.12878   0.13318   0.13507   0.13886

 Mulliken charges:
               1
     1  O   -0.485910
     2  O   -0.533238
     3  O   -0.582189
     4  O   -0.543239
     5  C    0.186884
     6  C    0.211723
     7  C    0.034559
     8  C   -0.219722
     9  C   -0.218234
    10  C    0.154432
    11  C   -0.325358
    12  C   -0.103662
    13  C   -0.308184
    14  C   -0.295048
    15  C   -0.073088
    16  C    0.097714
    17  C   -0.387143
    18  C   -0.115693
    19  C   -0.062205
    20  C    0.017591
    21  C    0.223831
    22  C   -0.186181
    23  C    0.130393
    24  C   -0.185132
    25  C   -0.035231
    26  C   -0.289827
    27  C   -0.323819
    28  C   -0.260232
    29  C   -0.138804
    30  C    0.088880
    31  C    0.126679
    32  C   -0.297462
    33  C   -0.405340
    34  C   -0.128975
    35  C    0.154467
    36  C   -0.361507
    37  C   -0.103966
    38  C   -0.067565
    39  C   -0.093131
    40  C   -0.100806
    41  C   -0.110060
    42  C   -0.113162
    43  C    0.089457
    44  C   -0.347044
    45  H    0.102395
    46  H    0.125732
    47  H    0.078860
    48  H    0.114569
    49  H    0.110410
    50  H    0.109767
    51  H    0.106229
    52  H    0.124294
    53  H    0.089778
    54  H    0.115896
    55  H    0.110692
    56  H    0.072129
    57  H    0.133022
    58  H    0.114923
    59  H    0.063975
    60  H    0.305621
    61  H    0.064403
    62  H    0.127253
    63  H    0.119198
    64  H    0.114349
    65  H    0.082007
    66  H    0.058779
    67  H    0.060896
    68  H    0.099364
    69  H    0.088588
    70  H    0.102589
    71  H    0.114110
    72  H    0.102191
    73  H    0.112145
    74  H    0.103177
    75  H    0.122973
    76  H    0.111731
    77  H    0.085340
    78  H    0.126341
    79  H    0.076047
    80  H    0.132571
    81  H    0.086561
    82  H    0.304991
    83  H    0.307856
    84  H    0.109497
    85  H    0.137808
    86  H    0.137369
    87  H    0.095943
    88  H    0.074116
    89  H    0.093901
    90  H    0.142512
    91  H    0.095585
    92  H    0.070258
    93  H    0.073025
    94  H    0.058634
    95  H    0.103318
    96  H    0.071103
    97  H    0.096070
    98  H    0.118708
    99  H    0.130500
   100  H    0.094445
 Sum of Mulliken charges =  -0.00000

 Dipole moment (field-independent basis, Debye):
    X=              1.4967    Y=             -0.0110    Z=              2.4599  Tot=              2.8795
 Quadrupole moment (field-independent basis, Debye-Ang):
   XX=           -277.4310   YY=           -258.3571   ZZ=           -281.8228
   XY=            -17.9137   XZ=             40.5192   YZ=              0.1174

 Normal termination of Gaussian 16 at Thu Aug  1 19:24:16 2019.
