 Gaussian 16, Revision A.03,
 Gaussian 16:  ES64L-G16RevA.03 25-Dec-2016

 -------------------------------------
 # td=(NStates=1) CAM-B3LYP/6-31G(d,p)
 -------------------------------------

 --
 TD
 --
 Symbolic Z-matrix:
 Charge =  0 Multiplicity = 1

                         Standard orientation:
 ---------------------------------------------------------------------
 Center     Atomic      Atomic             Coordinates (Angstroms)
 Number     Number       Type             X           Y           Z
 ---------------------------------------------------------------------
      1          8           0      -11.728036    0.094308   -1.609799
      2          8           0      -12.726521   -2.440376    1.455600
      3          8           0       10.664375   -1.278825   -1.843174
      4          8           0       14.597504   -1.131050    0.068595
      5          6           0      -11.096872   -0.096612   -0.402564
      6          6           0      -11.720135   -1.223162   -1.158962
      7          6           0      -11.841029    0.479569    0.960084
      8          6           0      -13.141737   -1.703116   -0.858910
      9          6           0      -13.191523   -0.082321    1.087496
     10          6           0      -13.402634   -1.494578    0.618609
     11          6           0      -10.853399   -2.217806   -1.939867
     12          6           0       -9.639238    0.146538   -0.438157
     13          6           0      -10.956727    0.005339    2.162509
     14          6           0      -11.825109    1.920303    0.818458
     15          6           0       -8.748323   -0.613228    0.205246
     16          6           0       -7.288297   -0.558442    0.220020
     17          6           0       -6.464821   -1.685184    0.502274
     18          6           0       -6.751036    0.707076   -0.080045
     19          6           0       -5.393084    0.896399   -0.181629
     20          6           0       11.906567    0.299073    1.260627
     21          6           0       11.769703   -0.686408   -1.130509
     22          6           0       12.645240   -1.088290    1.677018
     23          6           0       13.382720   -1.790311    0.561263
     24          6           0       12.456949   -1.929930   -0.720698
     25          6           0       11.226970    0.101302    0.052541
     26          6           0       11.091093    0.546223    2.645556
     27          6           0       12.889285    1.421834    1.102368
     28          6           0       12.669448    0.005183   -2.131900
     29          6           0       -4.854321    2.205353   -0.433476
     30          6           0        9.970136    0.571595   -0.048508
     31          6           0       -3.473906    2.503967   -0.627412
     32          6           0        8.736002    0.991044   -0.231942
     33          6           0       -2.994496    4.026078   -0.701388
     34          6           0       -2.310888    1.577392   -0.378932
     35          6           0        7.460368    0.169010   -0.088485
     36          6           0        7.672458   -1.232716    0.209862
     37          6           0        6.228799    0.666223   -0.259077
     38          6           0       -1.041080    1.915059   -0.289540
     39          6           0        4.958308    0.120430   -0.056110
     40          6           0       -0.047655    0.846170   -0.276220
     41          6           0        3.718650    0.802033   -0.205638
     42          6           0        1.306186    1.114848   -0.395487
     43          6           0        2.371382    0.238235   -0.244476
     44          6           0        2.347542   -1.093409    0.098392
     45          1           0      -13.278300   -2.908107   -1.224105
     46          1           0      -13.900392   -1.179836   -1.481105
     47          1           0      -13.691880    0.332537    2.054527
     48          1           0      -13.825196    0.304127    0.227973
     49          1           0      -14.421229   -1.832213    1.015607
     50          1           0      -10.819225   -3.352082   -1.385684
     51          1           0      -11.210952   -2.597349   -2.973270
     52          1           0       -9.637549   -1.940470   -2.059373
     53          1           0       -9.359179    0.893725   -0.988880
     54          1           0       -9.979174    0.659711    2.298555
     55          1           0      -11.583380    0.093770    3.204251
     56          1           0      -10.873270   -1.109392    2.071051
     57          1           0      -12.227018    2.313153   -0.196258
     58          1           0      -12.294278    2.449108    1.590305
     59          1           0      -10.780502    2.257746    0.690346
     60          1           0      -11.564138   -2.440835    1.461925
     61          1           0       -9.184423   -1.458018    0.807240
     62          1           0       -5.406271   -1.884932   -0.049523
     63          1           0       -6.046480   -1.605048    1.666895
     64          1           0       -7.316543   -2.723851    0.309587
     65          1           0       -7.374584    1.400548   -0.087381
     66          1           0       -4.705814    0.254136   -0.031877
     67          1           0       13.236276   -0.723378    2.417571
     68          1           0       11.871420   -1.790913    2.142000
     69          1           0       13.738945   -2.740701    0.826938
     70          1           0       12.978682   -2.220430   -1.630896
     71          1           0       11.664938   -2.531388   -0.468405
     72          1           0       11.748070    0.451989    3.459367
     73          1           0       10.470319    1.460329    2.602334
     74          1           0       10.265139   -0.162464    2.708748
     75          1           0       13.556780    1.131522    0.140217
     76          1           0       12.303525    2.395326    0.789633
     77          1           0       13.393141    1.452619    2.144140
     78          1           0       13.122219   -0.631652   -3.146185
     79          1           0       12.223909    0.813662   -2.649869
     80          1           0       13.610738    0.251802   -1.505194
     81          1           0       -5.620296    2.863042   -0.327744
     82          1           0        9.966703   -0.530506   -1.998576
     83          1           0       15.318158   -1.001106    0.782436
     84          1           0        8.525435    1.971867   -0.671476
     85          1           0       -2.467352    4.244497    0.205594
     86          1           0       -2.483276    4.155893   -1.645380
     87          1           0       -3.899778    4.576537   -0.774803
     88          1           0       -2.616230    0.516808   -0.030406
     89          1           0        6.771657   -1.772437    0.116415
     90          1           0        8.544054   -1.652282   -0.277093
     91          1           0        7.974867   -1.549016    1.119356
     92          1           0        6.105410    1.598790   -0.766607
     93          1           0       -0.658996    2.935995   -0.342186
     94          1           0        4.892583   -1.036962    0.293817
     95          1           0       -0.307381   -0.151123   -0.095044
     96          1           0        3.797938    1.877731   -0.623292
     97          1           0        1.639289    2.099498   -0.717390
     98          1           0        1.215600   -1.691304    0.148704
     99          1           0        3.031448   -1.896677   -0.507042
    100          1           0        2.478301   -1.279018    1.375400
 ---------------------------------------------------------------------

 SCF Done:  E(RCAM-B3LYP) =  -1857.16751156     A.U. after   17 cycles

 Excitation energies and oscillator strengths:

 Excited State   1:      Singlet-A      1.7116 eV  724.36 nm  f=2.6380  <S**2>=0.000
     163 ->166         0.10198
     164 ->165         0.71503
     164 <-165        -0.16063
 This state for optimization and/or second-order correction.
 Total Energy, E(TD-HF/TD-DFT) =  -1857.10460978
 Copying the excited state density for this state as the 1-particle RhoCI density.

 The electronic state is 1-A.
 Alpha  occ. eigenvalues --  -19.23049 -19.21812 -19.21077 -19.20648 -10.32790
 Alpha  occ. eigenvalues --  -10.32317 -10.31333 -10.31105 -10.31055 -10.30427
 Alpha  occ. eigenvalues --  -10.29365 -10.28923 -10.28650 -10.27943 -10.27833
 Alpha  occ. eigenvalues --  -10.27802 -10.27776 -10.27653 -10.27635 -10.27633
 Alpha  occ. eigenvalues --  -10.27596 -10.27558 -10.27526 -10.27474 -10.27306
 Alpha  occ. eigenvalues --  -10.27205 -10.27115 -10.27087 -10.26925 -10.26887
 Alpha  occ. eigenvalues --  -10.26472 -10.26442 -10.26044 -10.25559 -10.25556
 Alpha  occ. eigenvalues --  -10.25425 -10.25289 -10.25202 -10.25138 -10.25115
 Alpha  occ. eigenvalues --  -10.24659 -10.24289 -10.23701 -10.22790  -1.18888
 Alpha  occ. eigenvalues --   -1.08421  -1.07355  -1.05857  -0.94074  -0.92986
 Alpha  occ. eigenvalues --   -0.92606  -0.91591  -0.91297  -0.90073  -0.87848
 Alpha  occ. eigenvalues --   -0.86629  -0.86226  -0.85699  -0.84799  -0.83381
 Alpha  occ. eigenvalues --   -0.82246  -0.80916  -0.80145  -0.79295  -0.77761
 Alpha  occ. eigenvalues --   -0.76573  -0.76279  -0.76262  -0.75623  -0.75421
 Alpha  occ. eigenvalues --   -0.74943  -0.73870  -0.72433  -0.69891  -0.69570
 Alpha  occ. eigenvalues --   -0.68658  -0.67409  -0.65834  -0.65291  -0.64582
 Alpha  occ. eigenvalues --   -0.63843  -0.62366  -0.61781  -0.60337  -0.59734
 Alpha  occ. eigenvalues --   -0.59509  -0.58294  -0.57917  -0.57761  -0.57228
 Alpha  occ. eigenvalues --   -0.56036  -0.55812  -0.55333  -0.54863  -0.54328
 Alpha  occ. eigenvalues --   -0.54139  -0.53439  -0.53116  -0.52801  -0.52272
 Alpha  occ. eigenvalues --   -0.51584  -0.50973  -0.50779  -0.49955  -0.49844
 Alpha  occ. eigenvalues --   -0.49587  -0.49262  -0.49008  -0.48463  -0.48130
 Alpha  occ. eigenvalues --   -0.48034  -0.47440  -0.47427  -0.47079  -0.46821
 Alpha  occ. eigenvalues --   -0.46659  -0.46403  -0.46159  -0.45706  -0.45557
 Alpha  occ. eigenvalues --   -0.45374  -0.44752  -0.44477  -0.44410  -0.44144
 Alpha  occ. eigenvalues --   -0.43907  -0.43768  -0.43420  -0.43037  -0.42702
 Alpha  occ. eigenvalues --   -0.42338  -0.42036  -0.41378  -0.40712  -0.40638
 Alpha  occ. eigenvalues --   -0.40474  -0.40349  -0.40249  -0.39814  -0.39554
 Alpha  occ. eigenvalues --   -0.39417  -0.38807  -0.38676  -0.38498  -0.38440
 Alpha  occ. eigenvalues --   -0.37939  -0.37222  -0.37096  -0.36870  -0.36775
 Alpha  occ. eigenvalues --   -0.36105  -0.35715  -0.34908  -0.34386  -0.33334
 Alpha  occ. eigenvalues --   -0.32307  -0.32176  -0.31975  -0.31888  -0.30788
 Alpha  occ. eigenvalues --   -0.29228  -0.28001  -0.24736  -0.18342
 Alpha virt. eigenvalues --   -0.07787  -0.00826   0.02566   0.05021   0.06270
 Alpha virt. eigenvalues --    0.06708   0.09107   0.09927   0.10205   0.10861
 Alpha virt. eigenvalues --    0.11675   0.12061   0.12310   0.12754   0.13005

 Mulliken charges:
               1
     1  O   -0.478566
     2  O   -0.574580
     3  O   -0.576655
     4  O   -0.576947
     5  C    0.181443
     6  C    0.259206
     7  C    0.057481
     8  C   -0.206335
     9  C   -0.187443
    10  C    0.175631
    11  C   -0.339046
    12  C   -0.079592
    13  C   -0.271181
    14  C   -0.309306
    15  C   -0.077340
    16  C    0.113566
    17  C   -0.362488
    18  C   -0.061969
    19  C   -0.027143
    20  C   -0.025968
    21  C    0.254013
    22  C   -0.182185
    23  C    0.146610
    24  C   -0.173130
    25  C   -0.013934
    26  C   -0.308726
    27  C   -0.269355
    28  C   -0.298201
    29  C   -0.116479
    30  C    0.128498
    31  C    0.019227
    32  C   -0.312911
    33  C   -0.366788
    34  C   -0.100120
    35  C    0.146636
    36  C   -0.395372
    37  C   -0.123426
    38  C   -0.073996
    39  C   -0.085956
    40  C   -0.082674
    41  C   -0.143386
    42  C   -0.116080
    43  C    0.185911
    44  C   -0.392172
    45  H    0.089115
    46  H    0.125251
    47  H    0.098370
    48  H    0.095708
    49  H    0.104088
    50  H    0.075578
    51  H    0.116322
    52  H    0.103664
    53  H    0.089707
    54  H    0.107317
    55  H    0.081702
    56  H    0.058360
    57  H    0.107911
    58  H    0.107423
    59  H    0.092607
    60  H    0.287763
    61  H    0.060252
    62  H    0.123103
    63  H    0.109825
    64  H    0.066377
    65  H    0.057402
    66  H    0.048759
    67  H    0.089844
    68  H    0.102548
    69  H    0.092448
    70  H    0.122656
    71  H    0.120967
    72  H    0.107245
    73  H    0.106531
    74  H    0.108606
    75  H    0.108044
    76  H    0.098088
    77  H    0.082828
    78  H    0.080313
    79  H    0.098238
    80  H    0.129363
    81  H    0.079822
    82  H    0.304308
    83  H    0.306983
    84  H    0.108038
    85  H    0.133277
    86  H    0.128385
    87  H    0.110575
    88  H    0.079059
    89  H    0.105810
    90  H    0.130696
    91  H    0.123974
    92  H    0.075186
    93  H    0.099568
    94  H    0.075330
    95  H    0.084974
    96  H    0.072479
    97  H    0.080533
    98  H    0.069723
    99  H    0.119867
   100  H    0.098319
 Sum of Mulliken charges =  -0.00000

 Dipole moment (field-independent basis, Debye):
    X=              2.5440    Y=              0.8970    Z=              2.6030  Tot=              3.7486
 Quadrupole moment (field-independent basis, Debye-Ang):
   XX=           -269.8005   YY=           -265.6994   ZZ=           -276.6725
   XY=             -7.4038   XZ=             30.2594   YZ=             -3.0751

 Normal termination of Gaussian 16 at Mon Jul 29 15:17:26 2019.
