 Gaussian 16, Revision A.03,
 Gaussian 16:  ES64L-G16RevA.03 25-Dec-2016

 -------------------------------------
 # td=(NStates=1) CAM-B3LYP/6-31G(d,p)
 -------------------------------------

 --
 TD
 --
 Symbolic Z-matrix:
 Charge =  0 Multiplicity = 1

                         Standard orientation:
 ---------------------------------------------------------------------
 Center     Atomic      Atomic             Coordinates (Angstroms)
 Number     Number       Type             X           Y           Z
 ---------------------------------------------------------------------
      1          8           0      -11.756290    0.194007   -1.525331
      2          8           0      -13.193015   -2.449475    1.358329
      3          8           0       10.691978   -0.954356   -2.247922
      4          8           0       14.446328   -0.953820    0.082316
      5          6           0      -11.074891   -0.201262   -0.438680
      6          6           0      -11.708466   -1.202450   -1.314460
      7          6           0      -11.725681    0.254545    0.913198
      8          6           0      -13.041053   -1.827364   -1.012656
      9          6           0      -13.225840   -0.059542    0.848209
     10          6           0      -13.621162   -1.496489    0.486043
     11          6           0      -10.821559   -2.109709   -2.148782
     12          6           0       -9.605240    0.049701   -0.484045
     13          6           0      -10.998568   -0.311943    2.170095
     14          6           0      -11.581198    1.791148    1.009598
     15          6           0       -8.598427   -0.658529    0.070746
     16          6           0       -7.192448   -0.449740    0.186045
     17          6           0       -6.321275   -1.623576    0.565388
     18          6           0       -6.572738    0.766856   -0.074125
     19          6           0       -5.187869    1.074684    0.072253
     20          6           0       11.875289    0.016988    1.365351
     21          6           0       11.747604   -0.608772   -1.242998
     22          6           0       12.568255   -1.433196    1.487170
     23          6           0       13.326522   -1.777048    0.296046
     24          6           0       12.535810   -1.822300   -0.986188
     25          6           0       11.021232   -0.093189    0.079531
     26          6           0       10.836833    0.078155    2.446250
     27          6           0       12.890443    1.085594    1.367972
     28          6           0       12.656191    0.416900   -1.973372
     29          6           0       -4.716136    2.353054   -0.329957
     30          6           0        9.909864    0.465783   -0.118135
     31          6           0       -3.352182    2.660789   -0.349811
     32          6           0        8.609080    0.959969   -0.105180
     33          6           0       -3.018992    4.112237   -0.647919
     34          6           0       -2.321077    1.740856   -0.165369
     35          6           0        7.469977    0.109729   -0.036791
     36          6           0        7.537520   -1.431445   -0.045696
     37          6           0        6.250186    0.742399   -0.152854
     38          6           0       -1.002185    1.946120   -0.134331
     39          6           0        4.959471    0.068633    0.029394
     40          6           0        0.052248    1.003807   -0.099299
     41          6           0        3.761860    0.787949   -0.086148
     42          6           0        1.423439    1.281565   -0.087664
     43          6           0        2.388683    0.397191    0.057483
     44          6           0        2.206170   -1.041626    0.345974
     45          1           0      -13.052730   -2.790824   -1.272624
     46          1           0      -13.615790   -1.524618   -1.801283
     47          1           0      -13.894120    0.275935    1.846509
     48          1           0      -13.517582    0.600060   -0.007378
     49          1           0      -14.837487   -1.692178    0.301296
     50          1           0      -10.633554   -2.936333   -1.501369
     51          1           0      -11.375427   -2.334260   -3.226440
     52          1           0       -9.884442   -1.491841   -2.351892
     53          1           0       -9.270455    0.914650   -1.293798
     54          1           0      -10.021087    0.173798    2.255804
     55          1           0      -11.775541   -0.230600    2.869197
     56          1           0      -10.844360   -1.433299    2.260080
     57          1           0      -11.898160    2.252225    0.170286
     58          1           0      -12.093186    2.343765    1.885903
     59          1           0      -10.384310    1.956881    1.155498
     60          1           0      -12.190140   -2.525839    1.409852
     61          1           0       -8.917628   -1.775446    0.524666
     62          1           0       -5.309470   -1.780482   -0.220533
     63          1           0       -5.728413   -1.630433    1.550736
     64          1           0       -6.902803   -2.547935    0.875998
     65          1           0       -7.198090    1.585115   -0.436458
     66          1           0       -4.522255    0.153619    0.344268
     67          1           0       13.097988   -1.284457    2.433445
     68          1           0       11.815016   -2.173995    1.510757
     69          1           0       13.718155   -2.888387    0.294523
     70          1           0       13.156605   -1.866995   -1.688079
     71          1           0       11.915010   -2.748854   -0.866717
     72          1           0       11.261963    0.090624    3.468166
     73          1           0       10.474026    1.109299    2.393744
     74          1           0       10.211639   -0.935083    2.380958
     75          1           0       13.462001    1.265473    0.423887
     76          1           0       12.555390    2.167792    1.429786
     77          1           0       13.533722    0.842807    2.293485
     78          1           0       12.931728    0.046087   -2.865540
     79          1           0       12.136935    1.340715   -2.109999
     80          1           0       13.578675    0.523179   -1.359718
     81          1           0       -5.347313    3.230824   -0.746839
     82          1           0       10.348638    0.002794   -2.662650
     83          1           0       14.942859   -1.159847    0.900503
     84          1           0        8.372311    2.034902   -0.136725
     85          1           0       -2.262842    4.589237    0.037312
     86          1           0       -2.278731    4.243231   -1.555221
     87          1           0       -3.739595    4.678995   -0.978055
     88          1           0       -2.800167    0.629749   -0.205209
     89          1           0        6.637292   -1.950838   -0.354751
     90          1           0        8.215693   -1.797403   -0.779913
     91          1           0        7.783160   -1.825320    1.055890
     92          1           0        6.350549    1.780159   -0.426441
     93          1           0       -0.540967    3.093369   -0.267864
     94          1           0        4.931814   -1.011289    0.427731
     95          1           0       -0.251566   -0.090398   -0.041394
     96          1           0        4.021446    1.805683   -0.296738
     97          1           0        1.619332    2.407775   -0.069691
     98          1           0        1.079834   -1.299395    0.538767
     99          1           0        2.422734   -1.808718   -0.477119
    100          1           0        2.963561   -1.393335    1.048547
 ---------------------------------------------------------------------

 SCF Done:  E(RCAM-B3LYP) =  -1857.29757568     A.U. after   16 cycles

 Excitation energies and oscillator strengths:

 Excited State   1:      Singlet-A      1.9654 eV  630.83 nm  f=2.8974  <S**2>=0.000
     163 ->166        -0.13080
     164 ->165         0.69738
     164 <-165        -0.10192
 This state for optimization and/or second-order correction.
 Total Energy, E(TD-HF/TD-DFT) =  -1857.22534836
 Copying the excited state density for this state as the 1-particle RhoCI density.

 The electronic state is 1-A.
 Alpha  occ. eigenvalues --  -19.22599 -19.22494 -19.21527 -19.21298 -10.32367
 Alpha  occ. eigenvalues --  -10.31731 -10.31505 -10.31453 -10.31357 -10.28346
 Alpha  occ. eigenvalues --  -10.28297 -10.28126 -10.28035 -10.27932 -10.27726
 Alpha  occ. eigenvalues --  -10.27705 -10.27609 -10.27493 -10.27460 -10.27384
 Alpha  occ. eigenvalues --  -10.27347 -10.27321 -10.27222 -10.27135 -10.26897
 Alpha  occ. eigenvalues --  -10.26704 -10.26629 -10.26466 -10.26283 -10.26271
 Alpha  occ. eigenvalues --  -10.26126 -10.26103 -10.26054 -10.25869 -10.25824
 Alpha  occ. eigenvalues --  -10.25788 -10.25606 -10.25584 -10.25203 -10.25091
 Alpha  occ. eigenvalues --  -10.24678 -10.23692 -10.23640 -10.23288  -1.19192
 Alpha  occ. eigenvalues --   -1.11878  -1.10467  -1.05422  -0.93846  -0.92527
 Alpha  occ. eigenvalues --   -0.91828  -0.90805  -0.90402  -0.89758  -0.88080
 Alpha  occ. eigenvalues --   -0.86787  -0.86508  -0.85455  -0.84470  -0.82945
 Alpha  occ. eigenvalues --   -0.81634  -0.80922  -0.79712  -0.78871  -0.77517
 Alpha  occ. eigenvalues --   -0.77122  -0.76523  -0.76305  -0.76086  -0.75652
 Alpha  occ. eigenvalues --   -0.75397  -0.73828  -0.73054  -0.70030  -0.69517
 Alpha  occ. eigenvalues --   -0.68324  -0.66836  -0.65581  -0.64570  -0.63929
 Alpha  occ. eigenvalues --   -0.63314  -0.61926  -0.60215  -0.59933  -0.59880
 Alpha  occ. eigenvalues --   -0.59225  -0.58391  -0.57607  -0.57118  -0.56624
 Alpha  occ. eigenvalues --   -0.55850  -0.55200  -0.54736  -0.54463  -0.54335
 Alpha  occ. eigenvalues --   -0.53664  -0.53293  -0.52916  -0.52765  -0.52042
 Alpha  occ. eigenvalues --   -0.51391  -0.50804  -0.50612  -0.50287  -0.50002
 Alpha  occ. eigenvalues --   -0.49526  -0.49179  -0.48863  -0.48389  -0.48363
 Alpha  occ. eigenvalues --   -0.47660  -0.47163  -0.46940  -0.46843  -0.46617
 Alpha  occ. eigenvalues --   -0.46241  -0.46148  -0.45620  -0.45445  -0.45332
 Alpha  occ. eigenvalues --   -0.44946  -0.44613  -0.44420  -0.44144  -0.43832
 Alpha  occ. eigenvalues --   -0.43719  -0.43502  -0.43315  -0.43247  -0.42957
 Alpha  occ. eigenvalues --   -0.42320  -0.42051  -0.41994  -0.41402  -0.41283
 Alpha  occ. eigenvalues --   -0.41093  -0.41041  -0.40665  -0.40369  -0.40323
 Alpha  occ. eigenvalues --   -0.39442  -0.39343  -0.38873  -0.38773  -0.38058
 Alpha  occ. eigenvalues --   -0.37903  -0.37750  -0.37566  -0.37396  -0.37223
 Alpha  occ. eigenvalues --   -0.36589  -0.35796  -0.34782  -0.34128  -0.33372
 Alpha  occ. eigenvalues --   -0.32881  -0.32329  -0.31981  -0.31356  -0.30766
 Alpha  occ. eigenvalues --   -0.30346  -0.27135  -0.23616  -0.19229
 Alpha virt. eigenvalues --   -0.06685  -0.00923   0.02718   0.06421   0.07299
 Alpha virt. eigenvalues --    0.09066   0.09698   0.09895   0.10779   0.11344
 Alpha virt. eigenvalues --    0.11920   0.12803   0.12811   0.12975   0.13534

 Mulliken charges:
               1
     1  O   -0.484453
     2  O   -0.532206
     3  O   -0.581198
     4  O   -0.533164
     5  C    0.235806
     6  C    0.214070
     7  C   -0.000496
     8  C   -0.217448
     9  C   -0.193549
    10  C    0.177682
    11  C   -0.320035
    12  C   -0.150941
    13  C   -0.302084
    14  C   -0.298464
    15  C   -0.074005
    16  C    0.120689
    17  C   -0.380933
    18  C   -0.109922
    19  C   -0.083184
    20  C    0.011851
    21  C    0.226475
    22  C   -0.177731
    23  C    0.120571
    24  C   -0.146066
    25  C   -0.068215
    26  C   -0.286971
    27  C   -0.291581
    28  C   -0.337716
    29  C   -0.131130
    30  C    0.125557
    31  C    0.123748
    32  C   -0.269147
    33  C   -0.379118
    34  C   -0.098429
    35  C    0.156521
    36  C   -0.373250
    37  C   -0.131912
    38  C   -0.096463
    39  C   -0.096293
    40  C   -0.082231
    41  C   -0.125251
    42  C   -0.123029
    43  C    0.158115
    44  C   -0.382752
    45  H    0.101128
    46  H    0.115947
    47  H    0.073899
    48  H    0.117805
    49  H    0.073107
    50  H    0.120449
    51  H    0.089190
    52  H    0.118991
    53  H    0.093886
    54  H    0.121618
    55  H    0.124424
    56  H    0.058893
    57  H    0.126578
    58  H    0.098846
    59  H    0.082128
    60  H    0.313037
    61  H    0.053683
    62  H    0.091033
    63  H    0.116384
    64  H    0.104884
    65  H    0.081499
    66  H    0.096968
    67  H    0.089796
    68  H    0.104793
    69  H    0.060858
    70  H    0.110922
    71  H    0.110909
    72  H    0.082491
    73  H    0.115288
    74  H    0.101315
    75  H    0.129918
    76  H    0.091300
    77  H    0.082132
    78  H    0.127155
    79  H    0.093349
    80  H    0.136315
    81  H    0.099544
    82  H    0.303840
    83  H    0.308143
    84  H    0.103825
    85  H    0.124090
    86  H    0.098257
    87  H    0.112337
    88  H    0.069752
    89  H    0.114236
    90  H    0.146346
    91  H    0.094392
    92  H    0.080340
    93  H    0.064120
    94  H    0.083585
    95  H    0.075892
    96  H    0.074548
    97  H    0.083622
    98  H    0.098797
    99  H    0.115782
   100  H    0.125914
 Sum of Mulliken charges =  -0.00000

 Dipole moment (field-independent basis, Debye):
    X=              5.7649    Y=             -0.1430    Z=              1.2543  Tot=              5.9015
 Quadrupole moment (field-independent basis, Debye-Ang):
   XX=           -262.4886   YY=           -257.4632   ZZ=           -277.0007
   XY=             -1.6415   XZ=             28.7725   YZ=             -6.3983

 Normal termination of Gaussian 16 at Thu Aug  1 02:13:44 2019.
