 Gaussian 16, Revision A.03,
 Gaussian 16:  ES64L-G16RevA.03 25-Dec-2016

 -------------------------------------
 # td=(NStates=1) CAM-B3LYP/6-31G(d,p)
 -------------------------------------

 --
 TD
 --
 Symbolic Z-matrix:
 Charge =  0 Multiplicity = 1

                         Standard orientation:
 ---------------------------------------------------------------------
 Center     Atomic      Atomic             Coordinates (Angstroms)
 Number     Number       Type             X           Y           Z
 ---------------------------------------------------------------------
      1          8           0      -11.668041   -0.126698   -1.740778
      2          8           0      -13.122392   -2.178568    1.693207
      3          8           0       10.735922   -0.925015   -2.122320
      4          8           0       14.502410   -1.086648   -0.066700
      5          6           0      -11.046265   -0.258049   -0.367300
      6          6           0      -11.566529   -1.414537   -1.155291
      7          6           0      -11.868230    0.448941    0.778057
      8          6           0      -12.966795   -1.987378   -0.837831
      9          6           0      -13.335737    0.009228    0.716217
     10          6           0      -13.563304   -1.504105    0.489493
     11          6           0      -10.640590   -2.496906   -1.836897
     12          6           0       -9.547355    0.156910   -0.376880
     13          6           0      -11.309126    0.193107    2.134826
     14          6           0      -11.738042    1.962893    0.550385
     15          6           0       -8.600324   -0.613727    0.331546
     16          6           0       -7.165622   -0.438629    0.310988
     17          6           0       -6.392653   -1.737241    0.552123
     18          6           0       -6.623629    0.833618    0.117510
     19          6           0       -5.170610    0.942610   -0.144405
     20          6           0       11.894038    0.018767    1.433783
     21          6           0       11.743673   -0.559754   -1.231120
     22          6           0       12.690090   -1.324075    1.521802
     23          6           0       13.360989   -1.806517    0.352951
     24          6           0       12.419772   -1.973469   -0.875531
     25          6           0       11.089145    0.042520    0.041648
     26          6           0       10.767547    0.109124    2.528573
     27          6           0       12.789113    1.176303    1.533563
     28          6           0       12.690462    0.441729   -1.792556
     29          6           0       -4.721458    2.216428   -0.452233
     30          6           0        9.945008    0.477037    0.041188
     31          6           0       -3.342388    2.605161   -0.388243
     32          6           0        8.708023    0.894143   -0.139805
     33          6           0       -3.121219    4.093734   -0.682223
     34          6           0       -2.274555    1.709917   -0.286645
     35          6           0        7.474096    0.165739   -0.056855
     36          6           0        7.529447   -1.366399    0.055540
     37          6           0        6.216981    0.721977   -0.251059
     38          6           0       -0.943733    1.905039   -0.165357
     39          6           0        4.942046    0.186689   -0.186833
     40          6           0        0.037406    0.990945   -0.155413
     41          6           0        3.821568    0.946498   -0.317118
     42          6           0        1.444758    1.188059   -0.290062
     43          6           0        2.475715    0.379428   -0.178576
     44          6           0        2.238623   -1.162239    0.105931
     45          1           0      -13.152003   -2.951921   -0.864952
     46          1           0      -13.674796   -1.340077   -1.542891
     47          1           0      -13.649816    0.163065    1.869877
     48          1           0      -13.679189    0.341434   -0.431112
     49          1           0      -14.753592   -1.769582    0.458151
     50          1           0      -10.649551   -3.423925   -1.068176
     51          1           0      -11.134355   -2.955143   -2.952109
     52          1           0       -9.712555   -1.929565   -2.257030
     53          1           0       -9.473977    1.023852   -0.883146
     54          1           0      -10.248904    0.718586    2.293757
     55          1           0      -11.898614    0.564217    2.999829
     56          1           0      -11.152404   -0.848204    2.341277
     57          1           0      -12.183258    2.331617   -0.523718
     58          1           0      -12.024505    2.591788    1.451680
     59          1           0      -10.692834    2.069388    0.702545
     60          1           0      -12.126932   -2.556081    1.610280
     61          1           0       -8.979888   -1.541758    0.706199
     62          1           0       -5.978354   -2.079946   -0.482179
     63          1           0       -5.511229   -1.786907    1.100089
     64          1           0       -6.835926   -2.569724    1.054771
     65          1           0       -7.128215    1.791073    0.039558
     66          1           0       -4.686223    0.054649    0.034786
     67          1           0       13.547917   -1.327638    2.342680
     68          1           0       11.899874   -1.972567    1.656532
     69          1           0       13.682513   -2.812105    0.621011
     70          1           0       13.157546   -2.334042   -1.577824
     71          1           0       11.633370   -2.823715   -0.855234
     72          1           0       11.226733    0.123961    3.633666
     73          1           0       10.061075    1.105422    2.573232
     74          1           0        9.918190   -0.698733    2.364042
     75          1           0       13.736916    1.130919    0.894529
     76          1           0       12.514234    2.227152    1.240327
     77          1           0       13.104631    1.345565    2.691007
     78          1           0       13.014935    0.027054   -2.864588
     79          1           0       12.102546    1.257325   -2.043789
     80          1           0       13.632341    0.750108   -1.428218
     81          1           0       -5.555231    2.807661   -0.773624
     82          1           0       10.357594   -0.076636   -2.419342
     83          1           0       15.150545   -0.941782    0.771876
     84          1           0        8.439903    1.951346   -0.167177
     85          1           0       -2.221005    4.384395    0.012188
     86          1           0       -2.804386    4.110853   -1.753740
     87          1           0       -3.959866    4.740049   -0.473158
     88          1           0       -2.454240    0.622539    0.132822
     89          1           0        6.687173   -2.010348   -0.018116
     90          1           0        8.507174   -1.697297   -0.496796
     91          1           0        7.728109   -1.464330    1.026706
     92          1           0        6.171387    1.713557   -0.518273
     93          1           0       -0.624168    3.027086   -0.353638
     94          1           0        5.002377   -0.840235    0.048700
     95          1           0       -0.263617   -0.077422    0.169735
     96          1           0        3.831640    1.924848   -0.686062
     97          1           0        1.682772    2.196442   -0.829982
     98          1           0        1.236806   -1.461533    0.419269
     99          1           0        2.560975   -1.938060   -0.719024
    100          1           0        2.995162   -1.372364    1.048176
 ---------------------------------------------------------------------

 SCF Done:  E(RCAM-B3LYP) =  -1857.26312020     A.U. after   15 cycles

 Excitation energies and oscillator strengths:

 Excited State   1:      Singlet-A      2.3324 eV  531.56 nm  f=3.0695  <S**2>=0.000
     163 ->166        -0.15325
     164 ->165         0.68493
 This state for optimization and/or second-order correction.
 Total Energy, E(TD-HF/TD-DFT) =  -1857.17740431
 Copying the excited state density for this state as the 1-particle RhoCI density.

 The electronic state is 1-A.
 Alpha  occ. eigenvalues --  -19.22914 -19.22609 -19.21846 -19.21511 -10.33218
 Alpha  occ. eigenvalues --  -10.32725 -10.32692 -10.31353 -10.30382 -10.29672
 Alpha  occ. eigenvalues --  -10.29170 -10.28703 -10.28059 -10.27776 -10.27761
 Alpha  occ. eigenvalues --  -10.27587 -10.27494 -10.27456 -10.27347 -10.27161
 Alpha  occ. eigenvalues --  -10.26961 -10.26658 -10.26591 -10.26549 -10.26525
 Alpha  occ. eigenvalues --  -10.26479 -10.26419 -10.26208 -10.26196 -10.26134
 Alpha  occ. eigenvalues --  -10.26126 -10.26010 -10.26005 -10.25948 -10.25879
 Alpha  occ. eigenvalues --  -10.25820 -10.25788 -10.25645 -10.25434 -10.25278
 Alpha  occ. eigenvalues --  -10.25096 -10.24222 -10.24201 -10.23947  -1.13814
 Alpha  occ. eigenvalues --   -1.11433  -1.09359  -1.06754  -0.93270  -0.92125
 Alpha  occ. eigenvalues --   -0.91691  -0.91162  -0.90509  -0.89717  -0.87643
 Alpha  occ. eigenvalues --   -0.86444  -0.86003  -0.85375  -0.84589  -0.83485
 Alpha  occ. eigenvalues --   -0.81962  -0.81280  -0.79526  -0.77695  -0.77592
 Alpha  occ. eigenvalues --   -0.76734  -0.76631  -0.75653  -0.75572  -0.74972
 Alpha  occ. eigenvalues --   -0.74465  -0.74071  -0.73126  -0.70275  -0.69804
 Alpha  occ. eigenvalues --   -0.68200  -0.66460  -0.65123  -0.64819  -0.64213
 Alpha  occ. eigenvalues --   -0.63674  -0.62416  -0.61268  -0.60842  -0.59397
 Alpha  occ. eigenvalues --   -0.58473  -0.58100  -0.57863  -0.56983  -0.56785
 Alpha  occ. eigenvalues --   -0.55844  -0.55550  -0.55027  -0.54701  -0.54059
 Alpha  occ. eigenvalues --   -0.53847  -0.53328  -0.52837  -0.52401  -0.51955
 Alpha  occ. eigenvalues --   -0.51392  -0.50839  -0.50232  -0.49624  -0.49333
 Alpha  occ. eigenvalues --   -0.49300  -0.49200  -0.49091  -0.48208  -0.48146
 Alpha  occ. eigenvalues --   -0.47420  -0.47075  -0.46987  -0.46758  -0.46555
 Alpha  occ. eigenvalues --   -0.46224  -0.45885  -0.45560  -0.45340  -0.44997
 Alpha  occ. eigenvalues --   -0.44627  -0.44229  -0.44182  -0.43942  -0.43615
 Alpha  occ. eigenvalues --   -0.43089  -0.42999  -0.42809  -0.42770  -0.42400
 Alpha  occ. eigenvalues --   -0.42204  -0.41924  -0.41697  -0.41484  -0.40904
 Alpha  occ. eigenvalues --   -0.40805  -0.40422  -0.40276  -0.39903  -0.39694
 Alpha  occ. eigenvalues --   -0.39355  -0.39185  -0.38809  -0.38705  -0.38257
 Alpha  occ. eigenvalues --   -0.37878  -0.37836  -0.37690  -0.37334  -0.36578
 Alpha  occ. eigenvalues --   -0.36263  -0.35232  -0.34902  -0.34660  -0.33791
 Alpha  occ. eigenvalues --   -0.33046  -0.32632  -0.32293  -0.31546  -0.30843
 Alpha  occ. eigenvalues --   -0.30224  -0.27575  -0.23829  -0.19969
 Alpha virt. eigenvalues --   -0.05279  -0.01073   0.02604   0.06836   0.07648
 Alpha virt. eigenvalues --    0.08034   0.08600   0.10285   0.10628   0.11447
 Alpha virt. eigenvalues --    0.12317   0.12609   0.12898   0.13387   0.13960

 Mulliken charges:
               1
     1  O   -0.513988
     2  O   -0.562920
     3  O   -0.552962
     4  O   -0.555888
     5  C    0.159034
     6  C    0.271108
     7  C    0.045362
     8  C   -0.217327
     9  C   -0.182885
    10  C    0.159346
    11  C   -0.316637
    12  C   -0.084114
    13  C   -0.304744
    14  C   -0.296786
    15  C   -0.097437
    16  C    0.082208
    17  C   -0.391431
    18  C   -0.122805
    19  C   -0.030299
    20  C    0.039273
    21  C    0.264649
    22  C   -0.154417
    23  C    0.158105
    24  C   -0.207428
    25  C   -0.161655
    26  C   -0.308290
    27  C   -0.302305
    28  C   -0.307894
    29  C   -0.134886
    30  C    0.269112
    31  C    0.067416
    32  C   -0.310895
    33  C   -0.366298
    34  C   -0.099988
    35  C    0.116069
    36  C   -0.391963
    37  C   -0.123504
    38  C   -0.068515
    39  C   -0.046733
    40  C   -0.090840
    41  C   -0.120692
    42  C   -0.140008
    43  C    0.131505
    44  C   -0.357233
    45  H    0.106887
    46  H    0.121073
    47  H    0.105101
    48  H    0.092574
    49  H    0.077337
    50  H    0.094861
    51  H    0.081073
    52  H    0.129631
    53  H    0.114065
    54  H    0.085371
    55  H    0.112272
    56  H    0.086679
    57  H    0.105314
    58  H    0.098496
    59  H    0.102136
    60  H    0.298453
    61  H    0.078699
    62  H    0.118766
    63  H    0.131587
    64  H    0.119945
    65  H    0.091713
    66  H    0.085120
    67  H    0.063037
    68  H    0.112106
    69  H    0.081199
    70  H    0.122074
    71  H    0.110537
    72  H    0.082146
    73  H    0.100413
    74  H    0.100584
    75  H    0.102227
    76  H    0.105447
    77  H    0.074337
    78  H    0.088995
    79  H    0.092528
    80  H    0.148529
    81  H    0.093184
    82  H    0.303228
    83  H    0.309887
    84  H    0.102516
    85  H    0.108272
    86  H    0.134525
    87  H    0.119595
    88  H    0.063722
    89  H    0.112540
    90  H    0.126316
    91  H    0.133433
    92  H    0.055180
    93  H    0.061154
    94  H    0.071661
    95  H    0.064306
    96  H    0.089625
    97  H    0.068029
    98  H    0.117231
    99  H    0.114586
   100  H    0.090278
 Sum of Mulliken charges =  -0.00000

 Dipole moment (field-independent basis, Debye):
    X=              3.9168    Y=             -0.8110    Z=              1.7103  Tot=              4.3502
 Quadrupole moment (field-independent basis, Debye-Ang):
   XX=           -273.7825   YY=           -255.7359   ZZ=           -279.7385
   XY=             10.5463   XZ=             23.9021   YZ=             -5.5032

 Normal termination of Gaussian 16 at Thu Aug  1 01:06:07 2019.
