 Gaussian 16, Revision A.03,
 Gaussian 16:  ES64L-G16RevA.03 25-Dec-2016

 -------------------------------------
 # td=(NStates=1) CAM-B3LYP/6-31G(d,p)
 -------------------------------------

 --
 TD
 --
 Symbolic Z-matrix:
 Charge =  0 Multiplicity = 1

                         Standard orientation:
 ---------------------------------------------------------------------
 Center     Atomic      Atomic             Coordinates (Angstroms)
 Number     Number       Type             X           Y           Z
 ---------------------------------------------------------------------
      1          8           0      -11.739832    0.354468   -1.464016
      2          8           0      -13.051990   -2.507933    1.382192
      3          8           0       10.638256   -1.171145   -1.995818
      4          8           0       14.545271   -0.900796   -0.030975
      5          6           0      -11.129772   -0.085653   -0.229910
      6          6           0      -11.767909   -1.101983   -1.222144
      7          6           0      -11.858328    0.286310    1.004783
      8          6           0      -13.070430   -1.752348   -0.894089
      9          6           0      -13.331210   -0.085977    0.950417
     10          6           0      -13.605876   -1.584601    0.482334
     11          6           0      -10.818722   -1.920395   -2.258713
     12          6           0       -9.576838    0.151225   -0.201833
     13          6           0      -11.125623   -0.212492    2.278034
     14          6           0      -11.832759    1.854718    1.182528
     15          6           0       -8.678226   -0.713817    0.203961
     16          6           0       -7.212182   -0.587939    0.075419
     17          6           0       -6.359696   -1.796652    0.283609
     18          6           0       -6.632723    0.694514   -0.115472
     19          6           0       -5.286661    0.910690   -0.202007
     20          6           0       11.926713    0.052612    1.350786
     21          6           0       11.671100   -0.616285   -1.157850
     22          6           0       12.706660   -1.223209    1.604199
     23          6           0       13.488608   -1.854151    0.296998
     24          6           0       12.510187   -1.886617   -0.763777
     25          6           0       11.103501   -0.087237    0.038014
     26          6           0       11.017009    0.230711    2.523619
     27          6           0       13.074555    1.229620    1.391609
     28          6           0       12.524871    0.359061   -1.993362
     29          6           0       -4.752447    2.142616   -0.270491
     30          6           0        9.909736    0.535748    0.013233
     31          6           0       -3.407525    2.519962   -0.471571
     32          6           0        8.710639    0.930323   -0.136785
     33          6           0       -2.985447    4.020503   -0.672077
     34          6           0       -2.344720    1.598288   -0.333658
     35          6           0        7.516674    0.143822    0.003863
     36          6           0        7.713263   -1.290655    0.111404
     37          6           0        6.256352    0.775209   -0.075533
     38          6           0       -1.005282    1.912444   -0.372896
     39          6           0        4.927461    0.071172   -0.084970
     40          6           0        0.023548    0.979933   -0.199477
     41          6           0        3.831612    0.848456   -0.181456
     42          6           0        1.440792    1.249854   -0.260435
     43          6           0        2.423536    0.310674   -0.190270
     44          6           0        2.219164   -1.099615   -0.010920
     45          1           0      -13.022616   -2.830941   -1.012913
     46          1           0      -13.971368   -1.219288   -1.629498
     47          1           0      -13.783772   -0.080020    1.879415
     48          1           0      -13.738743    0.494254    0.186070
     49          1           0      -14.587148   -1.744353    0.486488
     50          1           0      -10.637600   -2.906279   -1.953972
     51          1           0      -11.440156   -2.070536   -3.261544
     52          1           0       -9.932953   -1.377234   -2.232633
     53          1           0       -9.285454    0.985946   -0.849973
     54          1           0      -10.116748    0.326711    2.319289
     55          1           0      -11.778810   -0.406854    3.209540
     56          1           0      -10.665162   -1.310524    1.942961
     57          1           0      -12.319334    2.211992    0.245316
     58          1           0      -12.455359    2.171888    1.857351
     59          1           0      -10.759207    2.330861    1.444037
     60          1           0      -11.971405   -2.199350    1.452026
     61          1           0       -8.959440   -1.620192    0.771376
     62          1           0       -5.982229   -2.270271   -0.784243
     63          1           0       -5.418951   -1.540438    0.734287
     64          1           0       -7.034369   -2.565160    0.890853
     65          1           0       -7.211371    1.614097   -0.459317
     66          1           0       -4.538617    0.059727   -0.408602
     67          1           0       13.324859   -1.174800    2.508026
     68          1           0       11.928730   -2.185211    1.796752
     69          1           0       13.869360   -2.775341    0.646907
     70          1           0       13.081900   -2.218779   -1.552494
     71          1           0       11.759239   -2.729118   -0.507403
     72          1           0       11.717931    0.274669    3.454689
     73          1           0       10.527482    1.264852    2.658701
     74          1           0       10.438288   -0.785529    2.488008
     75          1           0       13.575919    1.372929    0.572341
     76          1           0       12.601425    2.190323    1.238108
     77          1           0       13.628417    1.191712    2.091906
     78          1           0       12.647840   -0.220683   -2.999760
     79          1           0       12.032175    1.320958   -1.992258
     80          1           0       13.524778    0.461177   -1.626142
     81          1           0       -5.360303    3.001868   -0.205525
     82          1           0        9.964078   -0.551682   -2.119431
     83          1           0       15.361999   -1.131062    0.714639
     84          1           0        8.547439    2.036350   -0.763300
     85          1           0       -2.174808    4.237279    0.162755
     86          1           0       -2.439820    4.346656   -1.513349
     87          1           0       -3.816922    4.716340   -0.815158
     88          1           0       -2.500838    0.531153   -0.240510
     89          1           0        6.619346   -1.766635    0.139504
     90          1           0        8.290502   -1.592876   -0.579644
     91          1           0        8.108994   -1.486577    1.033758
     92          1           0        6.531580    1.924223   -0.319140
     93          1           0       -0.685750    2.962645   -0.598107
     94          1           0        4.884476   -0.952320    0.027357
     95          1           0       -0.362618   -0.075011   -0.062999
     96          1           0        3.888987    1.945621   -0.339143
     97          1           0        1.558084    2.275581   -0.617537
     98          1           0        1.086542   -1.207688    0.142514
     99          1           0        2.579579   -1.654089   -0.865851
    100          1           0        2.456644   -1.250767    1.113716
 ---------------------------------------------------------------------

 SCF Done:  E(RCAM-B3LYP) =  -1857.24414119     A.U. after   15 cycles

 Excitation energies and oscillator strengths:

 Excited State   1:      Singlet-A      2.3281 eV  532.57 nm  f=2.7215  <S**2>=0.000
     163 ->166        -0.12830
     164 ->165         0.69604
 This state for optimization and/or second-order correction.
 Total Energy, E(TD-HF/TD-DFT) =  -1857.15858688
 Copying the excited state density for this state as the 1-particle RhoCI density.

 The electronic state is 1-A.
 Alpha  occ. eigenvalues --  -19.23041 -19.22722 -19.21206 -19.20462 -10.32895
 Alpha  occ. eigenvalues --  -10.32508 -10.31812 -10.31060 -10.28653 -10.28141
 Alpha  occ. eigenvalues --  -10.28112 -10.28044 -10.28025 -10.27934 -10.27884
 Alpha  occ. eigenvalues --  -10.27622 -10.27582 -10.27542 -10.27262 -10.27243
 Alpha  occ. eigenvalues --  -10.27073 -10.27012 -10.26806 -10.26678 -10.26675
 Alpha  occ. eigenvalues --  -10.26656 -10.26604 -10.26539 -10.26489 -10.26479
 Alpha  occ. eigenvalues --  -10.26462 -10.26398 -10.26369 -10.26132 -10.25982
 Alpha  occ. eigenvalues --  -10.25942 -10.25779 -10.25630 -10.24709 -10.24410
 Alpha  occ. eigenvalues --  -10.24365 -10.23710 -10.23437 -10.21235  -1.13392
 Alpha  occ. eigenvalues --   -1.10165  -1.07473  -1.07033  -0.93190  -0.92508
 Alpha  occ. eigenvalues --   -0.92061  -0.91345  -0.91075  -0.90143  -0.87652
 Alpha  occ. eigenvalues --   -0.86633  -0.86093  -0.85728  -0.84581  -0.83493
 Alpha  occ. eigenvalues --   -0.81965  -0.81102  -0.80102  -0.78753  -0.78633
 Alpha  occ. eigenvalues --   -0.76917  -0.76462  -0.76383  -0.75835  -0.75721
 Alpha  occ. eigenvalues --   -0.74383  -0.73976  -0.73265  -0.70724  -0.69847
 Alpha  occ. eigenvalues --   -0.68640  -0.67005  -0.65248  -0.65019  -0.63809
 Alpha  occ. eigenvalues --   -0.63137  -0.61779  -0.61051  -0.59862  -0.59489
 Alpha  occ. eigenvalues --   -0.58899  -0.58252  -0.58180  -0.56923  -0.56360
 Alpha  occ. eigenvalues --   -0.55816  -0.55219  -0.55079  -0.54836  -0.54425
 Alpha  occ. eigenvalues --   -0.53239  -0.52621  -0.52377  -0.52264  -0.51803
 Alpha  occ. eigenvalues --   -0.51583  -0.51443  -0.51173  -0.50715  -0.50490
 Alpha  occ. eigenvalues --   -0.50366  -0.49377  -0.49365  -0.48856  -0.48357
 Alpha  occ. eigenvalues --   -0.47546  -0.47247  -0.46986  -0.46764  -0.46567
 Alpha  occ. eigenvalues --   -0.46500  -0.46210  -0.46014  -0.45930  -0.45526
 Alpha  occ. eigenvalues --   -0.45170  -0.44948  -0.44382  -0.44329  -0.43960
 Alpha  occ. eigenvalues --   -0.43605  -0.43345  -0.42990  -0.42804  -0.42535
 Alpha  occ. eigenvalues --   -0.42410  -0.42312  -0.42179  -0.41546  -0.41377
 Alpha  occ. eigenvalues --   -0.41145  -0.40609  -0.40528  -0.40100  -0.40014
 Alpha  occ. eigenvalues --   -0.39325  -0.39012  -0.38719  -0.38618  -0.38492
 Alpha  occ. eigenvalues --   -0.38272  -0.38189  -0.37778  -0.37326  -0.37000
 Alpha  occ. eigenvalues --   -0.36538  -0.36126  -0.35561  -0.35144  -0.33425
 Alpha  occ. eigenvalues --   -0.33266  -0.32455  -0.32063  -0.30945  -0.29865
 Alpha  occ. eigenvalues --   -0.28911  -0.27880  -0.24690  -0.20143
 Alpha virt. eigenvalues --   -0.05579  -0.00165   0.03173   0.04060   0.07110
 Alpha virt. eigenvalues --    0.07288   0.08510   0.09893   0.11202   0.11491
 Alpha virt. eigenvalues --    0.12095   0.12683   0.13176   0.13369   0.13944

 Mulliken charges:
               1
     1  O   -0.513418
     2  O   -0.560630
     3  O   -0.558266
     4  O   -0.549252
     5  C    0.207279
     6  C    0.232225
     7  C    0.006838
     8  C   -0.198398
     9  C   -0.198296
    10  C    0.156929
    11  C   -0.320718
    12  C   -0.135045
    13  C   -0.308585
    14  C   -0.300094
    15  C   -0.060103
    16  C    0.062757
    17  C   -0.359443
    18  C   -0.110243
    19  C   -0.053373
    20  C    0.020994
    21  C    0.236304
    22  C   -0.177352
    23  C    0.148751
    24  C   -0.181441
    25  C   -0.024941
    26  C   -0.282721
    27  C   -0.277323
    28  C   -0.316651
    29  C   -0.113202
    30  C    0.147886
    31  C    0.074745
    32  C   -0.324762
    33  C   -0.381599
    34  C   -0.111381
    35  C    0.110292
    36  C   -0.337719
    37  C   -0.121024
    38  C   -0.075331
    39  C   -0.105300
    40  C   -0.107134
    41  C   -0.082025
    42  C   -0.122901
    43  C    0.097525
    44  C   -0.380223
    45  H    0.113784
    46  H    0.077217
    47  H    0.104063
    48  H    0.112618
    49  H    0.098640
    50  H    0.114948
    51  H    0.104674
    52  H    0.127900
    53  H    0.110657
    54  H    0.126549
    55  H    0.130754
    56  H    0.034768
    57  H    0.112554
    58  H    0.117917
    59  H    0.084210
    60  H    0.301521
    61  H    0.080099
    62  H    0.103961
    63  H    0.132654
    64  H    0.098651
    65  H    0.093340
    66  H    0.083514
    67  H    0.080445
    68  H    0.040826
    69  H    0.098049
    70  H    0.108650
    71  H    0.110718
    72  H    0.077479
    73  H    0.108277
    74  H    0.098047
    75  H    0.122177
    76  H    0.081057
    77  H    0.094108
    78  H    0.111356
    79  H    0.097106
    80  H    0.148108
    81  H    0.075567
    82  H    0.298152
    83  H    0.303197
    84  H    0.082261
    85  H    0.115147
    86  H    0.131458
    87  H    0.106225
    88  H    0.076419
    89  H    0.076395
    90  H    0.129732
    91  H    0.132483
    92  H    0.074816
    93  H    0.076059
    94  H    0.100054
    95  H    0.076077
    96  H    0.088360
    97  H    0.087354
    98  H    0.102590
    99  H    0.140936
   100  H    0.131692
 Sum of Mulliken charges =  -0.00000

 Dipole moment (field-independent basis, Debye):
    X=              4.1860    Y=             -0.1616    Z=              1.4034  Tot=              4.4180
 Quadrupole moment (field-independent basis, Debye-Ang):
   XX=           -260.5360   YY=           -262.4826   ZZ=           -278.5145
   XY=            -12.5177   XZ=             20.2512   YZ=             -2.3523

 Normal termination of Gaussian 16 at Thu Aug  1 16:50:51 2019.
