 Gaussian 16, Revision A.03,
 Gaussian 16:  ES64L-G16RevA.03 25-Dec-2016

 -------------------------------------
 # td=(NStates=1) CAM-B3LYP/6-31G(d,p)
 -------------------------------------

 --
 TD
 --
 Symbolic Z-matrix:
 Charge =  0 Multiplicity = 1

                         Standard orientation:
 ---------------------------------------------------------------------
 Center     Atomic      Atomic             Coordinates (Angstroms)
 Number     Number       Type             X           Y           Z
 ---------------------------------------------------------------------
      1          8           0      -11.659488    0.240232   -1.512242
      2          8           0      -12.963814   -2.569338    1.238726
      3          8           0       10.627991   -0.980836   -2.243322
      4          8           0       14.471735   -0.988855   -0.138226
      5          6           0      -10.920060   -0.224644   -0.366527
      6          6           0      -11.637977   -1.143767   -1.404104
      7          6           0      -11.673567    0.254207    1.023817
      8          6           0      -12.986722   -1.670139   -1.122395
      9          6           0      -13.177772   -0.087549    0.993622
     10          6           0      -13.464102   -1.552763    0.338352
     11          6           0      -10.758321   -1.926186   -2.369629
     12          6           0       -9.457158   -0.017675   -0.366998
     13          6           0      -11.045234   -0.274706    2.261153
     14          6           0      -11.574043    1.798682    0.987560
     15          6           0       -8.576854   -0.812492    0.087927
     16          6           0       -7.135035   -0.645694    0.203335
     17          6           0       -6.289183   -1.855583    0.586052
     18          6           0       -6.546303    0.644724   -0.136059
     19          6           0       -5.187691    0.880104   -0.081249
     20          6           0       11.769773   -0.098938    1.367828
     21          6           0       11.684970   -0.619376   -1.260557
     22          6           0       12.577993   -1.406143    1.466153
     23          6           0       13.378668   -1.791932    0.149095
     24          6           0       12.442948   -1.885205   -0.988998
     25          6           0       11.007680   -0.087274    0.109730
     26          6           0       10.713138   -0.000356    2.487210
     27          6           0       12.749688    1.144721    1.400009
     28          6           0       12.490550    0.441903   -1.920632
     29          6           0       -4.684789    2.236847   -0.257565
     30          6           0        9.768281    0.339151   -0.048388
     31          6           0       -3.382793    2.672396   -0.344395
     32          6           0        8.598168    0.907877   -0.193921
     33          6           0       -3.079693    4.141458   -0.664478
     34          6           0       -2.346096    1.742515   -0.269835
     35          6           0        7.392605    0.171822   -0.097459
     36          6           0        7.614785   -1.326171    0.118154
     37          6           0        6.247333    0.816377   -0.245214
     38          6           0       -0.939375    2.087454   -0.252275
     39          6           0        4.969434    0.215549   -0.003199
     40          6           0       -0.029915    1.086582   -0.075227
     41          6           0        3.749744    0.984727   -0.046580
     42          6           0        1.403078    1.335023   -0.044629
     43          6           0        2.381292    0.447429    0.223467
     44          6           0        2.320155   -0.995476    0.429977
     45          1           0      -13.074319   -2.724371   -1.354433
     46          1           0      -13.529879   -1.109442   -1.744174
     47          1           0      -13.666232   -0.173217    2.057091
     48          1           0      -13.773243    0.580504    0.317949
     49          1           0      -14.551265   -1.542708    0.310896
     50          1           0      -10.435150   -2.920691   -1.961513
     51          1           0      -11.333057   -2.089130   -3.291347
     52          1           0       -9.943610   -1.296372   -2.899645
     53          1           0       -9.153877    0.960006   -0.798723
     54          1           0      -10.128210    0.171352    2.346085
     55          1           0      -11.755005    0.116460    3.213528
     56          1           0      -10.970698   -1.342564    2.569442
     57          1           0      -11.921971    2.275170   -0.023745
     58          1           0      -12.250617    2.050832    1.817447
     59          1           0      -10.657470    2.050246    1.327178
     60          1           0      -11.896856   -2.184652    1.313376
     61          1           0       -8.627856   -1.740797    0.576579
     62          1           0       -5.729880   -2.330402   -0.185800
     63          1           0       -5.545903   -1.467093    1.238655
     64          1           0       -7.102276   -2.602872    1.253754
     65          1           0       -7.277611    1.515211   -0.050879
     66          1           0       -4.548555    0.020714    0.203065
     67          1           0       13.293959   -1.432828    2.367998
     68          1           0       11.930335   -2.052611    1.831565
     69          1           0       13.608131   -2.785247    0.543182
     70          1           0       13.002885   -2.090041   -1.838015
     71          1           0       11.741351   -2.523588   -0.754277
     72          1           0       11.250573   -0.363088    3.521103
     73          1           0       10.383654    1.043529    2.531264
     74          1           0        9.913208   -0.747255    2.345597
     75          1           0       13.456240    0.957314    0.722544
     76          1           0       12.125798    2.050455    1.368269
     77          1           0       12.965899    1.387972    2.411990
     78          1           0       12.747242    0.131111   -2.883741
     79          1           0       12.060677    1.447949   -2.018350
     80          1           0       13.402089    0.779444   -1.608025
     81          1           0       -5.445830    3.038846   -0.763733
     82          1           0       10.038905   -0.149808   -2.308619
     83          1           0       15.049384   -0.900770    0.688932
     84          1           0        8.728873    2.055133   -0.321045
     85          1           0       -2.658468    4.538951    0.231178
     86          1           0       -2.361660    4.125712   -1.438485
     87          1           0       -4.145383    4.619745   -1.051507
     88          1           0       -2.669712    0.706754    0.088713
     89          1           0        6.819881   -2.115585   -0.170199
     90          1           0        8.518501   -1.788569   -0.493164
     91          1           0        7.687772   -1.758540    1.117333
     92          1           0        6.334566    1.868612   -0.318377
     93          1           0       -0.461621    3.051706   -0.392752
     94          1           0        4.945466   -0.876093    0.198946
     95          1           0       -0.505166    0.022512    0.093904
     96          1           0        3.775764    2.161623   -0.190744
     97          1           0        1.698407    2.418430    0.004507
     98          1           0        1.191369   -1.469777    0.244533
     99          1           0        3.016655   -1.658359   -0.310019
    100          1           0        2.416803   -1.084321    1.516443
 ---------------------------------------------------------------------

 SCF Done:  E(RCAM-B3LYP) =  -1857.31060423     A.U. after   15 cycles

 Excitation energies and oscillator strengths:

 Excited State   1:      Singlet-A      2.1762 eV  569.73 nm  f=2.5961  <S**2>=0.000
     163 ->166         0.13202
     164 ->165         0.69721
 This state for optimization and/or second-order correction.
 Total Energy, E(TD-HF/TD-DFT) =  -1857.23063080
 Copying the excited state density for this state as the 1-particle RhoCI density.

 The electronic state is 1-A.
 Alpha  occ. eigenvalues --  -19.23603 -19.22354 -19.21813 -19.20615 -10.31929
 Alpha  occ. eigenvalues --  -10.31871 -10.31673 -10.31205 -10.30181 -10.28096
 Alpha  occ. eigenvalues --  -10.28082 -10.28075 -10.27953 -10.27930 -10.27680
 Alpha  occ. eigenvalues --  -10.27571 -10.27502 -10.27354 -10.27309 -10.27286
 Alpha  occ. eigenvalues --  -10.27105 -10.27029 -10.27001 -10.26890 -10.26831
 Alpha  occ. eigenvalues --  -10.26787 -10.26764 -10.26498 -10.26454 -10.26355
 Alpha  occ. eigenvalues --  -10.26230 -10.26138 -10.25942 -10.25853 -10.25795
 Alpha  occ. eigenvalues --  -10.25781 -10.25338 -10.25177 -10.25063 -10.24391
 Alpha  occ. eigenvalues --  -10.23897 -10.23491 -10.23148 -10.22100  -1.15884
 Alpha  occ. eigenvalues --   -1.11465  -1.06586  -1.05923  -0.93384  -0.92212
 Alpha  occ. eigenvalues --   -0.91960  -0.91477  -0.90700  -0.89986  -0.87538
 Alpha  occ. eigenvalues --   -0.87007  -0.86400  -0.85552  -0.84850  -0.82689
 Alpha  occ. eigenvalues --   -0.81981  -0.80193  -0.80037  -0.78005  -0.77524
 Alpha  occ. eigenvalues --   -0.76976  -0.76699  -0.76354  -0.75903  -0.75787
 Alpha  occ. eigenvalues --   -0.75418  -0.74672  -0.72920  -0.70278  -0.69169
 Alpha  occ. eigenvalues --   -0.68081  -0.66876  -0.65452  -0.64874  -0.63681
 Alpha  occ. eigenvalues --   -0.63392  -0.62074  -0.60765  -0.60094  -0.59396
 Alpha  occ. eigenvalues --   -0.59063  -0.58114  -0.57097  -0.56986  -0.56503
 Alpha  occ. eigenvalues --   -0.55439  -0.55170  -0.54894  -0.54310  -0.53906
 Alpha  occ. eigenvalues --   -0.52990  -0.52928  -0.52752  -0.52157  -0.52063
 Alpha  occ. eigenvalues --   -0.51373  -0.51031  -0.50574  -0.50409  -0.50207
 Alpha  occ. eigenvalues --   -0.50017  -0.49919  -0.49546  -0.49201  -0.48847
 Alpha  occ. eigenvalues --   -0.48647  -0.48180  -0.48019  -0.47106  -0.46919
 Alpha  occ. eigenvalues --   -0.46609  -0.46025  -0.45125  -0.45085  -0.45078
 Alpha  occ. eigenvalues --   -0.44333  -0.44175  -0.43890  -0.43674  -0.43517
 Alpha  occ. eigenvalues --   -0.43224  -0.43110  -0.43008  -0.42528  -0.42444
 Alpha  occ. eigenvalues --   -0.42096  -0.41800  -0.41748  -0.41604  -0.41479
 Alpha  occ. eigenvalues --   -0.41198  -0.40615  -0.40590  -0.40325  -0.39942
 Alpha  occ. eigenvalues --   -0.39724  -0.39497  -0.39347  -0.39069  -0.38881
 Alpha  occ. eigenvalues --   -0.38623  -0.38436  -0.38185  -0.37734  -0.37588
 Alpha  occ. eigenvalues --   -0.36966  -0.36340  -0.35128  -0.34449  -0.32898
 Alpha  occ. eigenvalues --   -0.32520  -0.32175  -0.31766  -0.31245  -0.30015
 Alpha  occ. eigenvalues --   -0.28925  -0.28319  -0.23755  -0.19746
 Alpha virt. eigenvalues --   -0.05911  -0.00901   0.03725   0.06861   0.07151
 Alpha virt. eigenvalues --    0.09562   0.10201   0.10468   0.10508   0.11529
 Alpha virt. eigenvalues --    0.12073   0.12843   0.12942   0.13100   0.13832

 Mulliken charges:
               1
     1  O   -0.506790
     2  O   -0.552161
     3  O   -0.584346
     4  O   -0.537886
     5  C    0.168775
     6  C    0.257321
     7  C    0.008757
     8  C   -0.181741
     9  C   -0.194967
    10  C    0.126694
    11  C   -0.346845
    12  C   -0.150059
    13  C   -0.321847
    14  C   -0.304099
    15  C    0.025584
    16  C    0.009721
    17  C   -0.361095
    18  C   -0.098387
    19  C   -0.076284
    20  C    0.017511
    21  C    0.230783
    22  C   -0.222645
    23  C    0.160118
    24  C   -0.144264
    25  C   -0.064920
    26  C   -0.312990
    27  C   -0.301869
    28  C   -0.319626
    29  C   -0.142171
    30  C    0.136913
    31  C    0.085504
    32  C   -0.283238
    33  C   -0.351095
    34  C   -0.120574
    35  C    0.140091
    36  C   -0.403347
    37  C   -0.093730
    38  C   -0.078447
    39  C   -0.110143
    40  C   -0.077591
    41  C   -0.128077
    42  C   -0.146685
    43  C    0.136637
    44  C   -0.369214
    45  H    0.109974
    46  H    0.120518
    47  H    0.097266
    48  H    0.096717
    49  H    0.095093
    50  H    0.117619
    51  H    0.107634
    52  H    0.116240
    53  H    0.105590
    54  H    0.123039
    55  H    0.080957
    56  H    0.114467
    57  H    0.124648
    58  H    0.100985
    59  H    0.104969
    60  H    0.302221
    61  H    0.052334
    62  H    0.141944
    63  H    0.131495
    64  H    0.079134
    65  H    0.093393
    66  H    0.086230
    67  H    0.065440
    68  H    0.108296
    69  H    0.082371
    70  H    0.115607
    71  H    0.115460
    72  H    0.063343
    73  H    0.111383
    74  H    0.116556
    75  H    0.124913
    76  H    0.090654
    77  H    0.100294
    78  H    0.117807
    79  H    0.086614
    80  H    0.129681
    81  H    0.070824
    82  H    0.308634
    83  H    0.319356
    84  H    0.113604
    85  H    0.137142
    86  H    0.134771
    87  H    0.087889
    88  H    0.079494
    89  H    0.096469
    90  H    0.132188
    91  H    0.125088
    92  H    0.080467
    93  H    0.090395
    94  H    0.092799
    95  H    0.077964
    96  H    0.075885
    97  H    0.084447
    98  H    0.083555
    99  H    0.119627
   100  H    0.141235
 Sum of Mulliken charges =  -0.00000

 Dipole moment (field-independent basis, Debye):
    X=              4.0603    Y=              0.7690    Z=              2.7426  Tot=              4.9598
 Quadrupole moment (field-independent basis, Debye-Ang):
   XX=           -280.9749   YY=           -262.5142   ZZ=           -277.1854
   XY=             -6.8758   XZ=             34.9777   YZ=             -3.1367

 Normal termination of Gaussian 16 at Mon Jul 29 09:48:52 2019.
