 Gaussian 16, Revision A.03,
 Gaussian 16:  ES64L-G16RevA.03 25-Dec-2016

 -------------------------------------
 # td=(NStates=1) CAM-B3LYP/6-31G(d,p)
 -------------------------------------

 --
 TD
 --
 Symbolic Z-matrix:
 Charge =  0 Multiplicity = 1

                         Standard orientation:
 ---------------------------------------------------------------------
 Center     Atomic      Atomic             Coordinates (Angstroms)
 Number     Number       Type             X           Y           Z
 ---------------------------------------------------------------------
      1          8           0      -11.714412    0.564896   -1.486189
      2          8           0      -13.124948   -2.410398    1.258812
      3          8           0       10.616269   -1.116879   -2.104141
      4          8           0       14.570773   -0.809093   -0.108095
      5          6           0      -11.052529   -0.036183   -0.246893
      6          6           0      -11.570831   -0.913171   -1.242695
      7          6           0      -11.834720    0.367871    0.944018
      8          6           0      -12.985637   -1.606788   -1.090629
      9          6           0      -13.393244    0.026742    0.783798
     10          6           0      -13.607628   -1.456256    0.353035
     11          6           0      -10.695955   -1.725892   -2.237842
     12          6           0       -9.644711    0.216381   -0.274967
     13          6           0      -11.192986   -0.109934    2.239124
     14          6           0      -11.813734    1.887529    1.007722
     15          6           0       -8.738058   -0.763623    0.002486
     16          6           0       -7.247719   -0.687418    0.172267
     17          6           0       -6.571070   -1.935889    0.576880
     18          6           0       -6.563824    0.510051    0.072364
     19          6           0       -5.235489    0.776174   -0.082590
     20          6           0       11.886310    0.254530    1.341842
     21          6           0       11.721365   -0.652352   -1.239509
     22          6           0       12.779525   -1.067463    1.568218
     23          6           0       13.499712   -1.598446    0.332415
     24          6           0       12.565211   -1.837703   -0.846308
     25          6           0       11.210934    0.061698    0.048158
     26          6           0       10.947914    0.330366    2.522687
     27          6           0       12.821546    1.304324    1.217693
     28          6           0       12.526258    0.386215   -2.063880
     29          6           0       -4.763164    1.996884   -0.326668
     30          6           0        9.970685    0.487781   -0.128959
     31          6           0       -3.346173    2.303266   -0.355381
     32          6           0        8.618062    0.878686   -0.280467
     33          6           0       -2.958136    3.713292   -0.713351
     34          6           0       -2.360196    1.404015   -0.227914
     35          6           0        7.521305    0.098781    0.019193
     36          6           0        7.703075   -1.453764    0.262076
     37          6           0        6.303113    0.622312   -0.090103
     38          6           0       -0.981179    1.712787   -0.318281
     39          6           0        5.006296    0.050231    0.097197
     40          6           0        0.096522    0.741373   -0.049599
     41          6           0        3.824946    0.835314   -0.254919
     42          6           0        1.409094    1.127799   -0.411539
     43          6           0        2.519833    0.240600   -0.126757
     44          6           0        2.286219   -1.181609    0.550802
     45          1           0      -12.824076   -2.579471   -1.207677
     46          1           0      -13.836272   -1.464300   -1.622556
     47          1           0      -13.807539    0.192034    1.933231
     48          1           0      -13.911977    0.574023    0.125795
     49          1           0      -14.521547   -1.568454    0.315905
     50          1           0      -10.500251   -2.867856   -1.721470
     51          1           0      -11.369002   -1.896085   -3.211871
     52          1           0       -9.870401   -1.117532   -2.475471
     53          1           0       -9.395903    1.238465   -0.566124
     54          1           0      -10.265844    0.472779    2.524105
     55          1           0      -11.935513    0.107485    2.969192
     56          1           0      -11.019763   -1.247194    2.429507
     57          1           0      -12.253669    2.084989    0.104264
     58          1           0      -12.409860    2.132965    1.877630
     59          1           0      -10.809353    2.548161    1.120993
     60          1           0      -12.041200   -2.157574    1.305159
     61          1           0       -9.077039   -1.781093    0.305586
     62          1           0       -6.134342   -2.138406   -0.291697
     63          1           0       -5.776800   -1.917306    1.270594
     64          1           0       -7.343838   -2.698398    0.727853
     65          1           0       -7.295822    1.547943    0.153196
     66          1           0       -4.439167   -0.029818    0.127861
     67          1           0       13.430684   -0.912793    2.300847
     68          1           0       12.116581   -1.831886    2.025994
     69          1           0       13.862901   -2.587920    0.548364
     70          1           0       13.041277   -2.155318   -1.693281
     71          1           0       11.832700   -2.818060   -0.490190
     72          1           0       11.444311    0.248828    3.521909
     73          1           0       10.450060    1.376376    2.492372
     74          1           0       10.067287   -0.235777    2.112430
     75          1           0       13.507610    1.283812    0.346566
     76          1           0       12.326386    2.260204    1.268739
     77          1           0       13.502024    1.514273    2.059992
     78          1           0       12.580346   -0.122904   -3.026648
     79          1           0       11.815044    1.320832   -2.216307
     80          1           0       13.654574    0.492291   -1.464775
     81          1           0       -5.727700    2.723501   -0.432844
     82          1           0        9.816113   -0.414291   -1.858160
     83          1           0       15.295490   -0.545280    0.737775
     84          1           0        8.371045    1.897576   -0.657100
     85          1           0       -2.239174    4.112366   -0.106371
     86          1           0       -2.545964    3.786834   -1.659787
     87          1           0       -3.889929    4.351464   -0.849131
     88          1           0       -2.735140    0.325294    0.016445
     89          1           0        6.819426   -2.076270    0.066302
     90          1           0        8.524754   -1.836835   -0.295317
     91          1           0        8.112393   -1.722346    1.288723
     92          1           0        6.347638    1.839111   -0.323510
     93          1           0       -0.727816    2.534376   -0.790720
     94          1           0        4.893747   -0.913068    0.484929
     95          1           0       -0.242979   -0.147468    0.126855
     96          1           0        3.916991    1.831983   -0.616905
     97          1           0        1.755843    2.136399   -0.601030
     98          1           0        1.244329   -1.452864    0.684935
     99          1           0        2.647323   -2.112868   -0.266832
    100          1           0        2.823894   -1.264213    1.572300
 ---------------------------------------------------------------------

 SCF Done:  E(RCAM-B3LYP) =  -1857.20724244     A.U. after   15 cycles

 Excitation energies and oscillator strengths:

 Excited State   1:      Singlet-A      2.0800 eV  596.09 nm  f=3.2828  <S**2>=0.000
     163 ->166         0.13960
     164 ->165         0.69437
 This state for optimization and/or second-order correction.
 Total Energy, E(TD-HF/TD-DFT) =  -1857.13080566
 Copying the excited state density for this state as the 1-particle RhoCI density.

 The electronic state is 1-A.
 Alpha  occ. eigenvalues --  -19.23748 -19.21886 -19.21344 -19.20132 -10.32750
 Alpha  occ. eigenvalues --  -10.31354 -10.31251 -10.30903 -10.29031 -10.28917
 Alpha  occ. eigenvalues --  -10.28590 -10.28532 -10.28352 -10.28202 -10.28041
 Alpha  occ. eigenvalues --  -10.27969 -10.27857 -10.27630 -10.27523 -10.27496
 Alpha  occ. eigenvalues --  -10.27472 -10.27466 -10.27453 -10.27424 -10.27178
 Alpha  occ. eigenvalues --  -10.27129 -10.27074 -10.26966 -10.26706 -10.26469
 Alpha  occ. eigenvalues --  -10.26450 -10.26398 -10.26231 -10.25990 -10.25851
 Alpha  occ. eigenvalues --  -10.25696 -10.25614 -10.25168 -10.24923 -10.24822
 Alpha  occ. eigenvalues --  -10.24405 -10.24375 -10.23820 -10.23532  -1.11352
 Alpha  occ. eigenvalues --   -1.09147  -1.07959  -1.05236  -0.94358  -0.93133
 Alpha  occ. eigenvalues --   -0.92016  -0.91793  -0.91124  -0.89988  -0.87533
 Alpha  occ. eigenvalues --   -0.86262  -0.86146  -0.85891  -0.85006  -0.84112
 Alpha  occ. eigenvalues --   -0.81898  -0.80877  -0.79754  -0.77985  -0.77507
 Alpha  occ. eigenvalues --   -0.77265  -0.76762  -0.76735  -0.75952  -0.75850
 Alpha  occ. eigenvalues --   -0.75705  -0.75193  -0.73255  -0.71429  -0.69945
 Alpha  occ. eigenvalues --   -0.68345  -0.67082  -0.66234  -0.65613  -0.64969
 Alpha  occ. eigenvalues --   -0.64635  -0.61988  -0.61013  -0.59898  -0.59811
 Alpha  occ. eigenvalues --   -0.58629  -0.58115  -0.57483  -0.56670  -0.56653
 Alpha  occ. eigenvalues --   -0.56086  -0.55594  -0.55018  -0.54856  -0.54325
 Alpha  occ. eigenvalues --   -0.54082  -0.53155  -0.52994  -0.52642  -0.52240
 Alpha  occ. eigenvalues --   -0.51266  -0.50588  -0.50240  -0.50168  -0.49755
 Alpha  occ. eigenvalues --   -0.49600  -0.49150  -0.48936  -0.48595  -0.48574
 Alpha  occ. eigenvalues --   -0.47935  -0.47092  -0.47007  -0.46969  -0.46860
 Alpha  occ. eigenvalues --   -0.46593  -0.46121  -0.45934  -0.45770  -0.45439
 Alpha  occ. eigenvalues --   -0.45390  -0.45170  -0.44605  -0.44201  -0.44147
 Alpha  occ. eigenvalues --   -0.43793  -0.43470  -0.43356  -0.43169  -0.42927
 Alpha  occ. eigenvalues --   -0.42640  -0.42413  -0.42041  -0.41447  -0.41225
 Alpha  occ. eigenvalues --   -0.41160  -0.40908  -0.40721  -0.40273  -0.40153
 Alpha  occ. eigenvalues --   -0.39789  -0.39509  -0.39170  -0.38760  -0.38598
 Alpha  occ. eigenvalues --   -0.38371  -0.37992  -0.37748  -0.37692  -0.36740
 Alpha  occ. eigenvalues --   -0.36490  -0.36242  -0.35333  -0.34903  -0.34301
 Alpha  occ. eigenvalues --   -0.32275  -0.32131  -0.31742  -0.31205  -0.30726
 Alpha  occ. eigenvalues --   -0.29967  -0.27709  -0.24321  -0.19507
 Alpha virt. eigenvalues --   -0.06525  -0.01652   0.02388   0.06059   0.06502
 Alpha virt. eigenvalues --    0.06789   0.08217   0.09217   0.10104   0.11335
 Alpha virt. eigenvalues --    0.12080   0.12473   0.12845   0.13098   0.13381

 Mulliken charges:
               1
     1  O   -0.533853
     2  O   -0.548648
     3  O   -0.595103
     4  O   -0.552676
     5  C    0.208981
     6  C    0.233469
     7  C   -0.023192
     8  C   -0.209557
     9  C   -0.175502
    10  C    0.163768
    11  C   -0.311138
    12  C   -0.096017
    13  C   -0.314307
    14  C   -0.296495
    15  C   -0.084132
    16  C    0.057165
    17  C   -0.372448
    18  C   -0.137025
    19  C   -0.016986
    20  C    0.037833
    21  C    0.243275
    22  C   -0.191767
    23  C    0.170680
    24  C   -0.166413
    25  C   -0.034227
    26  C   -0.324330
    27  C   -0.302515
    28  C   -0.288960
    29  C   -0.126719
    30  C    0.027861
    31  C    0.086914
    32  C   -0.280288
    33  C   -0.386012
    34  C   -0.107654
    35  C    0.187281
    36  C   -0.387417
    37  C   -0.121137
    38  C   -0.099506
    39  C   -0.102364
    40  C   -0.062963
    41  C   -0.113370
    42  C   -0.124129
    43  C    0.092558
    44  C   -0.351534
    45  H    0.110492
    46  H    0.116347
    47  H    0.071597
    48  H    0.119680
    49  H    0.083355
    50  H    0.083559
    51  H    0.107468
    52  H    0.136363
    53  H    0.121405
    54  H    0.119250
    55  H    0.120261
    56  H    0.076357
    57  H    0.143028
    58  H    0.100068
    59  H    0.076059
    60  H    0.295510
    61  H    0.070607
    62  H    0.150271
    63  H    0.133336
    64  H    0.106896
    65  H    0.060628
    66  H    0.077050
    67  H    0.085374
    68  H    0.096046
    69  H    0.085585
    70  H    0.118130
    71  H    0.077970
    72  H    0.109068
    73  H    0.094000
    74  H    0.122186
    75  H    0.122855
    76  H    0.097245
    77  H    0.079299
    78  H    0.117649
    79  H    0.083689
    80  H    0.119114
    81  H    0.085435
    82  H    0.307255
    83  H    0.309377
    84  H    0.114076
    85  H    0.130132
    86  H    0.134965
    87  H    0.100942
    88  H    0.063469
    89  H    0.114459
    90  H    0.136282
    91  H    0.108460
    92  H    0.057015
    93  H    0.082170
    94  H    0.097283
    95  H    0.079808
    96  H    0.093235
    97  H    0.095776
    98  H    0.120601
    99  H    0.084804
   100  H    0.125254
 Sum of Mulliken charges =  -0.00000

 Dipole moment (field-independent basis, Debye):
    X=              1.9389    Y=             -0.0146    Z=              3.5052  Tot=              4.0058
 Quadrupole moment (field-independent basis, Debye-Ang):
   XX=           -275.8853   YY=           -264.4307   ZZ=           -280.2071
   XY=              3.4871   XZ=             42.9615   YZ=             -2.5884

 Normal termination of Gaussian 16 at Tue Jul 30 02:08:50 2019.
