 Gaussian 16, Revision A.03,
 Gaussian 16:  ES64L-G16RevA.03 25-Dec-2016

 -------------------------------------
 # td=(NStates=1) CAM-B3LYP/6-31G(d,p)
 -------------------------------------

 --
 TD
 --
 Symbolic Z-matrix:
 Charge =  0 Multiplicity = 1

                         Standard orientation:
 ---------------------------------------------------------------------
 Center     Atomic      Atomic             Coordinates (Angstroms)
 Number     Number       Type             X           Y           Z
 ---------------------------------------------------------------------
      1          8           0      -11.702798    0.065735   -1.607013
      2          8           0      -13.114304   -2.154849    1.542004
      3          8           0       10.661896   -1.421645   -1.973730
      4          8           0       14.454804   -0.840173   -0.052282
      5          6           0      -11.021927   -0.251901   -0.416324
      6          6           0      -11.748997   -1.290984   -1.239381
      7          6           0      -11.725459    0.417497    0.804027
      8          6           0      -12.962650   -1.792181   -0.864705
      9          6           0      -13.294629    0.158493    0.725313
     10          6           0      -13.565523   -1.299755    0.515296
     11          6           0      -10.796795   -2.249742   -2.016569
     12          6           0       -9.543098   -0.102571   -0.416978
     13          6           0      -11.011859   -0.005168    2.189496
     14          6           0      -11.494421    1.940281    0.692762
     15          6           0       -8.557586   -0.839543    0.135790
     16          6           0       -7.192147   -0.613428    0.181355
     17          6           0       -6.363368   -1.633581    0.733024
     18          6           0       -6.641631    0.546107   -0.202117
     19          6           0       -5.221032    0.845224   -0.198305
     20          6           0       11.838900    0.293023    1.168000
     21          6           0       11.724598   -0.803726   -1.206154
     22          6           0       12.723184   -1.025592    1.585623
     23          6           0       13.426214   -1.648394    0.428532
     24          6           0       12.468763   -1.943272   -0.670570
     25          6           0       11.046017    0.034066   -0.145991
     26          6           0       10.858394    0.563545    2.387147
     27          6           0       12.759196    1.474390    1.078862
     28          6           0       12.555208    0.060534   -2.181115
     29          6           0       -4.690079    2.097447   -0.501586
     30          6           0        9.820108    0.351810   -0.193451
     31          6           0       -3.394741    2.544809   -0.414544
     32          6           0        8.621089    0.778958   -0.439814
     33          6           0       -3.011924    3.942260   -1.038304
     34          6           0       -2.355921    1.744332   -0.092871
     35          6           0        7.399567    0.008926   -0.116495
     36          6           0        7.658693   -1.411420    0.377561
     37          6           0        6.221512    0.687840   -0.167522
     38          6           0       -0.961193    1.882511   -0.216200
     39          6           0        4.973346   -0.005028    0.078648
     40          6           0        0.063617    1.037508    0.151395
     41          6           0        3.846351    0.772010   -0.063152
     42          6           0        1.355675    1.308171   -0.094915
     43          6           0        2.486889    0.360685    0.134044
     44          6           0        2.193422   -1.026663    0.693675
     45          1           0      -13.039416   -3.011122   -0.917979
     46          1           0      -13.423968   -1.620827   -1.808008
     47          1           0      -13.960845    0.384753    1.656926
     48          1           0      -13.596017    0.931707    0.012951
     49          1           0      -14.609755   -1.383511    0.496468
     50          1           0      -10.192740   -3.077186   -1.283577
     51          1           0      -11.372646   -2.710789   -2.800125
     52          1           0      -10.003287   -1.750642   -2.561713
     53          1           0       -9.342345    0.869795   -1.005408
     54          1           0      -10.011765    0.779755    2.446068
     55          1           0      -11.786230   -0.197687    3.203498
     56          1           0      -10.602151   -1.009249    1.959343
     57          1           0      -11.818459    2.282905   -0.184652
     58          1           0      -12.020443    2.456639    1.477949
     59          1           0      -10.480518    2.354065    0.688406
     60          1           0      -12.168218   -2.187009    1.501640
     61          1           0       -8.897912   -1.711742    0.894445
     62          1           0       -5.689815   -1.951306   -0.041725
     63          1           0       -5.789460   -1.284645    1.634706
     64          1           0       -6.880835   -2.716628    0.823384
     65          1           0       -7.257210    1.513957   -0.379123
     66          1           0       -4.549716   -0.024332    0.064776
     67          1           0       13.255933   -0.743456    2.545141
     68          1           0       11.971192   -1.800924    1.830760
     69          1           0       13.983270   -2.694434    0.875209
     70          1           0       13.033661   -2.332710   -1.456826
     71          1           0       11.760547   -2.872151   -0.271519
     72          1           0       11.446945    0.713801    3.227889
     73          1           0       10.466362    1.460230    2.164312
     74          1           0       10.079223   -0.308076    2.380664
     75          1           0       13.443069    1.350886    0.192342
     76          1           0       12.200829    2.329229    1.162467
     77          1           0       13.418643    1.399410    1.917232
     78          1           0       13.162167   -0.539515   -2.975858
     79          1           0       11.759445    0.926893   -2.635690
     80          1           0       13.324577    0.507353   -1.554889
     81          1           0       -5.485091    2.761311   -0.858019
     82          1           0        9.883481   -0.835888   -2.350362
     83          1           0       14.974788   -0.614339    0.756483
     84          1           0        8.390639    1.819415   -0.655982
     85          1           0       -2.551986    4.729278   -0.421121
     86          1           0       -2.450389    3.932800   -1.917466
     87          1           0       -4.027690    4.417524   -1.277681
     88          1           0       -2.583785    0.692870    0.169183
     89          1           0        6.753337   -2.037036    0.244949
     90          1           0        8.294274   -2.063617   -0.213139
     91          1           0        7.799706   -1.344628    1.468093
     92          1           0        6.334472    1.815669   -0.574300
     93          1           0       -0.533306    2.737010   -0.584294
     94          1           0        4.806252   -1.072202    0.119932
     95          1           0       -0.349096    0.247094    0.808314
     96          1           0        3.844872    1.828863   -0.405141
     97          1           0        1.549601    2.312576   -0.485054
     98          1           0        1.030063   -1.293386    0.795845
     99          1           0        2.403814   -1.779517    0.142870
    100          1           0        2.792567   -1.224643    1.704649
 ---------------------------------------------------------------------

 SCF Done:  E(RCAM-B3LYP) =  -1857.31397138     A.U. after   15 cycles

 Excitation energies and oscillator strengths:

 Excited State   1:      Singlet-A      2.0901 eV  593.21 nm  f=3.0847  <S**2>=0.000
     163 ->166        -0.13235
     164 ->165         0.69754
     164 <-165        -0.10115
 This state for optimization and/or second-order correction.
 Total Energy, E(TD-HF/TD-DFT) =  -1857.23716303
 Copying the excited state density for this state as the 1-particle RhoCI density.

 The electronic state is 1-A.
 Alpha  occ. eigenvalues --  -19.22712 -19.22611 -19.21656 -19.19805 -10.32353
 Alpha  occ. eigenvalues --  -10.31896 -10.31570 -10.31321 -10.30778 -10.28968
 Alpha  occ. eigenvalues --  -10.28441 -10.28238 -10.27989 -10.27580 -10.27396
 Alpha  occ. eigenvalues --  -10.27212 -10.27189 -10.27167 -10.27150 -10.26869
 Alpha  occ. eigenvalues --  -10.26776 -10.26537 -10.26474 -10.26473 -10.26423
 Alpha  occ. eigenvalues --  -10.26333 -10.26215 -10.26212 -10.26202 -10.26145
 Alpha  occ. eigenvalues --  -10.26141 -10.26083 -10.26067 -10.25948 -10.25919
 Alpha  occ. eigenvalues --  -10.25780 -10.25747 -10.25699 -10.25562 -10.25549
 Alpha  occ. eigenvalues --  -10.25301 -10.24101 -10.23767 -10.22786  -1.17116
 Alpha  occ. eigenvalues --   -1.11860  -1.10698  -1.06761  -0.93127  -0.92950
 Alpha  occ. eigenvalues --   -0.92048  -0.91347  -0.90155  -0.89492  -0.88177
 Alpha  occ. eigenvalues --   -0.87944  -0.87103  -0.85454  -0.84650  -0.83073
 Alpha  occ. eigenvalues --   -0.82084  -0.80755  -0.80562  -0.78609  -0.77640
 Alpha  occ. eigenvalues --   -0.76713  -0.76591  -0.76462  -0.76253  -0.75571
 Alpha  occ. eigenvalues --   -0.75336  -0.74162  -0.73131  -0.70485  -0.69938
 Alpha  occ. eigenvalues --   -0.68795  -0.67389  -0.65377  -0.64443  -0.64210
 Alpha  occ. eigenvalues --   -0.63304  -0.62699  -0.61138  -0.60360  -0.59537
 Alpha  occ. eigenvalues --   -0.58767  -0.58569  -0.58195  -0.57373  -0.56916
 Alpha  occ. eigenvalues --   -0.56243  -0.55053  -0.54749  -0.54528  -0.54016
 Alpha  occ. eigenvalues --   -0.53483  -0.53312  -0.52385  -0.52290  -0.51702
 Alpha  occ. eigenvalues --   -0.51543  -0.50904  -0.50749  -0.50545  -0.50106
 Alpha  occ. eigenvalues --   -0.49998  -0.49738  -0.49012  -0.48887  -0.48714
 Alpha  occ. eigenvalues --   -0.48288  -0.48122  -0.47888  -0.47503  -0.46682
 Alpha  occ. eigenvalues --   -0.46507  -0.46441  -0.45883  -0.45734  -0.45197
 Alpha  occ. eigenvalues --   -0.45134  -0.44324  -0.44101  -0.43482  -0.43359
 Alpha  occ. eigenvalues --   -0.43206  -0.42699  -0.42665  -0.42324  -0.42173
 Alpha  occ. eigenvalues --   -0.42135  -0.41907  -0.41753  -0.41491  -0.41300
 Alpha  occ. eigenvalues --   -0.40973  -0.40418  -0.40366  -0.40105  -0.40033
 Alpha  occ. eigenvalues --   -0.39810  -0.39488  -0.39375  -0.39045  -0.38306
 Alpha  occ. eigenvalues --   -0.38202  -0.37843  -0.37742  -0.37405  -0.36761
 Alpha  occ. eigenvalues --   -0.36367  -0.36041  -0.35455  -0.34485  -0.34085
 Alpha  occ. eigenvalues --   -0.32841  -0.32248  -0.31994  -0.31536  -0.30698
 Alpha  occ. eigenvalues --   -0.30026  -0.27989  -0.24504  -0.19448
 Alpha virt. eigenvalues --   -0.06445  -0.00737   0.03475   0.06342   0.07283
 Alpha virt. eigenvalues --    0.09150   0.09723   0.10601   0.11692   0.12252
 Alpha virt. eigenvalues --    0.12431   0.12861   0.13335   0.13708   0.13910

 Mulliken charges:
               1
     1  O   -0.500701
     2  O   -0.535660
     3  O   -0.609531
     4  O   -0.534278
     5  C    0.154963
     6  C    0.274785
     7  C    0.031247
     8  C   -0.227776
     9  C   -0.182377
    10  C    0.152876
    11  C   -0.319727
    12  C   -0.096713
    13  C   -0.289238
    14  C   -0.330444
    15  C   -0.096052
    16  C    0.138412
    17  C   -0.399573
    18  C   -0.122514
    19  C   -0.074542
    20  C   -0.028847
    21  C    0.284412
    22  C   -0.200012
    23  C    0.164877
    24  C   -0.178568
    25  C   -0.073300
    26  C   -0.290542
    27  C   -0.290719
    28  C   -0.283046
    29  C   -0.134113
    30  C    0.202580
    31  C    0.115419
    32  C   -0.305705
    33  C   -0.379759
    34  C   -0.120502
    35  C    0.110714
    36  C   -0.381038
    37  C   -0.117992
    38  C   -0.085736
    39  C   -0.104927
    40  C   -0.043733
    41  C   -0.098909
    42  C   -0.148163
    43  C    0.087207
    44  C   -0.371775
    45  H    0.095507
    46  H    0.120811
    47  H    0.091320
    48  H    0.121306
    49  H    0.104440
    50  H    0.085250
    51  H    0.103093
    52  H    0.127225
    53  H    0.098251
    54  H    0.084611
    55  H    0.092222
    56  H    0.077873
    57  H    0.120460
    58  H    0.107078
    59  H    0.096292
    60  H    0.307417
    61  H    0.068580
    62  H    0.136024
    63  H    0.132145
    64  H    0.090527
    65  H    0.080421
    66  H    0.082550
    67  H    0.084123
    68  H    0.098657
    69  H    0.036942
    70  H    0.125801
    71  H    0.103830
    72  H    0.098092
    73  H    0.113278
    74  H    0.099382
    75  H    0.115560
    76  H    0.106951
    77  H    0.086075
    78  H    0.105024
    79  H    0.067824
    80  H    0.129848
    81  H    0.081886
    82  H    0.310757
    83  H    0.312889
    84  H    0.100216
    85  H    0.118674
    86  H    0.135212
    87  H    0.092890
    88  H    0.065856
    89  H    0.098033
    90  H    0.140828
    91  H    0.135066
    92  H    0.087524
    93  H    0.060897
    94  H    0.110223
    95  H    0.087401
    96  H    0.079748
    97  H    0.089880
    98  H    0.092072
    99  H    0.138703
   100  H    0.105476
 Sum of Mulliken charges =  -0.00000

 Dipole moment (field-independent basis, Debye):
    X=              3.6557    Y=              0.1318    Z=              1.4621  Tot=              3.9394
 Quadrupole moment (field-independent basis, Debye-Ang):
   XX=           -275.7271   YY=           -261.9700   ZZ=           -277.2182
   XY=              5.1897   XZ=             33.7107   YZ=             -3.1858

 Normal termination of Gaussian 16 at Wed Jul 31 06:16:00 2019.
