 Gaussian 16, Revision A.03,
 Gaussian 16:  ES64L-G16RevA.03 25-Dec-2016

 -------------------------------------
 # td=(NStates=1) CAM-B3LYP/6-31G(d,p)
 -------------------------------------

 --
 TD
 --
 Symbolic Z-matrix:
 Charge =  0 Multiplicity = 1

                         Standard orientation:
 ---------------------------------------------------------------------
 Center     Atomic      Atomic             Coordinates (Angstroms)
 Number     Number       Type             X           Y           Z
 ---------------------------------------------------------------------
      1          8           0      -11.821042    0.375186   -1.367523
      2          8           0      -12.937257   -2.516978    1.205789
      3          8           0       10.644183   -0.882813   -2.210202
      4          8           0       14.518034   -1.081295   -0.250740
      5          6           0      -11.062400   -0.110305   -0.241328
      6          6           0      -11.746366   -0.993105   -1.215274
      7          6           0      -11.777954    0.290507    1.135413
      8          6           0      -13.099148   -1.497842   -0.961791
      9          6           0      -13.237169   -0.052289    0.989316
     10          6           0      -13.563545   -1.456596    0.550509
     11          6           0      -10.994863   -1.712529   -2.410198
     12          6           0       -9.584866    0.164738   -0.343853
     13          6           0      -11.063041   -0.217135    2.289865
     14          6           0      -11.769676    1.931006    1.141011
     15          6           0       -8.727028   -0.764380    0.154365
     16          6           0       -7.337875   -0.600597    0.070135
     17          6           0       -6.429764   -1.888878    0.157577
     18          6           0       -6.751173    0.602153   -0.134351
     19          6           0       -5.305665    0.804340   -0.271892
     20          6           0       11.879150    0.012846    1.399310
     21          6           0       11.642178   -0.564866   -1.234487
     22          6           0       12.569706   -1.320024    1.482595
     23          6           0       13.338116   -1.844118    0.199129
     24          6           0       12.439489   -1.846847   -1.016497
     25          6           0       11.085854    0.053570    0.074689
     26          6           0       11.025430    0.251554    2.616519
     27          6           0       13.067457    1.132355    1.297196
     28          6           0       12.613800    0.396886   -2.027757
     29          6           0       -4.668530    2.031240   -0.472155
     30          6           0        9.916350    0.598633   -0.020810
     31          6           0       -3.295247    2.343681   -0.499546
     32          6           0        8.677389    1.028036   -0.127932
     33          6           0       -3.010174    3.824348   -0.803501
     34          6           0       -2.294863    1.438330   -0.302354
     35          6           0        7.371600    0.151873    0.086701
     36          6           0        7.691979   -1.335602    0.233779
     37          6           0        6.302879    0.805924    0.077553
     38          6           0       -0.906556    1.872456   -0.318595
     39          6           0        4.984726    0.189536    0.258266
     40          6           0        0.085564    0.912854   -0.172861
     41          6           0        3.835416    0.881934    0.044730
     42          6           0        1.492618    1.167237   -0.113744
     43          6           0        2.527626    0.254727    0.187116
     44          6           0        2.343063   -1.154784    0.413495
     45          1           0      -13.162396   -2.614198   -1.293509
     46          1           0      -13.833910   -0.899297   -1.642085
     47          1           0      -13.635551   -0.125145    1.990435
     48          1           0      -13.773305    0.803303    0.387677
     49          1           0      -14.754095   -1.588125    0.725250
     50          1           0      -10.855000   -2.960835   -2.259147
     51          1           0      -11.586963   -1.513615   -3.435500
     52          1           0       -9.918048   -1.505025   -2.311930
     53          1           0       -9.265367    1.140710   -0.701617
     54          1           0       -9.967538   -0.071159    2.020786
     55          1           0      -11.434346    0.381723    3.208226
     56          1           0      -11.344467   -1.378347    2.559229
     57          1           0      -12.483931    2.172624    0.379555
     58          1           0      -12.190916    2.110602    2.141129
     59          1           0      -10.847740    2.322977    0.947918
     60          1           0      -12.099966   -2.610941    0.960598
     61          1           0       -9.003154   -1.689871    0.600077
     62          1           0       -5.883088   -2.260884   -0.699161
     63          1           0       -5.583647   -2.051193    0.833485
     64          1           0       -7.111938   -2.842009    0.575501
     65          1           0       -7.334734    1.488982   -0.257143
     66          1           0       -4.649341   -0.269123   -0.405497
     67          1           0       13.364129   -1.262227    2.435462
     68          1           0       11.726257   -2.168150    1.531099
     69          1           0       13.739030   -2.805325    0.495720
     70          1           0       12.895879   -1.990648   -1.981755
     71          1           0       11.451995   -2.595048   -0.971197
     72          1           0       11.650919    0.418590    3.702334
     73          1           0       10.666110    1.382684    2.345988
     74          1           0       10.272612   -0.441246    2.592322
     75          1           0       13.515453    1.098518    0.101135
     76          1           0       12.620303    2.159160    1.494632
     77          1           0       13.803612    0.995176    2.215947
     78          1           0       13.180693   -0.224311   -2.874620
     79          1           0       12.045743    1.355097   -2.381563
     80          1           0       13.412868    0.591989   -1.215740
     81          1           0       -5.331640    2.765371   -0.757255
     82          1           0       10.041073   -0.059142   -2.184656
     83          1           0       15.005619   -0.891951    0.665995
     84          1           0        8.432849    1.989940   -0.351035
     85          1           0       -2.446778    4.315181    0.043520
     86          1           0       -2.540105    4.056879   -1.856420
     87          1           0       -3.822390    4.519535   -0.910022
     88          1           0       -2.287923    0.359851   -0.011116
     89          1           0        6.807716   -1.801125   -0.025605
     90          1           0        8.410883   -1.520758   -0.491983
     91          1           0        7.963915   -1.534622    1.226670
     92          1           0        6.414896    1.818841    0.078201
     93          1           0       -0.579690    2.815283   -0.446482
     94          1           0        4.864152   -0.923899    0.544347
     95          1           0       -0.239138   -0.025389    0.140648
     96          1           0        3.955591    1.915069   -0.581289
     97          1           0        1.842023    2.237897   -0.260963
     98          1           0        1.266309   -1.230022    0.659009
     99          1           0        2.851666   -1.624796   -0.635765
    100          1           0        2.946542   -1.575571    1.299498
 ---------------------------------------------------------------------

 SCF Done:  E(RCAM-B3LYP) =  -1857.27753465     A.U. after   14 cycles

 Excitation energies and oscillator strengths:

 Excited State   1:      Singlet-A      2.4963 eV  496.68 nm  f=2.7382  <S**2>=0.000
     163 ->166         0.13938
     164 ->165         0.69129
 This state for optimization and/or second-order correction.
 Total Energy, E(TD-HF/TD-DFT) =  -1857.18579834
 Copying the excited state density for this state as the 1-particle RhoCI density.

 The electronic state is 1-A.
 Alpha  occ. eigenvalues --  -19.22597 -19.21919 -19.21309 -19.21262 -10.32121
 Alpha  occ. eigenvalues --  -10.31954 -10.31929 -10.31835 -10.31818 -10.29010
 Alpha  occ. eigenvalues --  -10.28841 -10.28481 -10.28304 -10.28092 -10.27897
 Alpha  occ. eigenvalues --  -10.27833 -10.27808 -10.27802 -10.27779 -10.27588
 Alpha  occ. eigenvalues --  -10.27403 -10.27243 -10.27211 -10.27164 -10.27127
 Alpha  occ. eigenvalues --  -10.27105 -10.27043 -10.27014 -10.26970 -10.26925
 Alpha  occ. eigenvalues --  -10.26894 -10.26824 -10.26661 -10.26175 -10.26116
 Alpha  occ. eigenvalues --  -10.26105 -10.25902 -10.25871 -10.25729 -10.25710
 Alpha  occ. eigenvalues --  -10.24711 -10.24501 -10.23957 -10.23952  -1.16979
 Alpha  occ. eigenvalues --   -1.12629  -1.08964  -1.07631  -0.93350  -0.92717
 Alpha  occ. eigenvalues --   -0.92458  -0.91634  -0.90883  -0.90541  -0.87330
 Alpha  occ. eigenvalues --   -0.86129  -0.85786  -0.85603  -0.84421  -0.82639
 Alpha  occ. eigenvalues --   -0.81318  -0.80188  -0.79971  -0.78654  -0.78198
 Alpha  occ. eigenvalues --   -0.76662  -0.76546  -0.76069  -0.75469  -0.75018
 Alpha  occ. eigenvalues --   -0.74721  -0.73703  -0.73328  -0.70646  -0.69478
 Alpha  occ. eigenvalues --   -0.68790  -0.67270  -0.65808  -0.63915  -0.63665
 Alpha  occ. eigenvalues --   -0.63645  -0.62065  -0.60567  -0.60270  -0.60161
 Alpha  occ. eigenvalues --   -0.59247  -0.57866  -0.57725  -0.56680  -0.56606
 Alpha  occ. eigenvalues --   -0.56032  -0.55702  -0.55151  -0.54429  -0.53795
 Alpha  occ. eigenvalues --   -0.53410  -0.53041  -0.52785  -0.52219  -0.51799
 Alpha  occ. eigenvalues --   -0.51435  -0.50766  -0.50482  -0.50138  -0.50112
 Alpha  occ. eigenvalues --   -0.49743  -0.49327  -0.48810  -0.48397  -0.48376
 Alpha  occ. eigenvalues --   -0.48265  -0.47581  -0.47186  -0.46958  -0.46935
 Alpha  occ. eigenvalues --   -0.46576  -0.46364  -0.46055  -0.45841  -0.45412
 Alpha  occ. eigenvalues --   -0.45339  -0.45138  -0.45020  -0.44524  -0.43745
 Alpha  occ. eigenvalues --   -0.43713  -0.43054  -0.43019  -0.42848  -0.42456
 Alpha  occ. eigenvalues --   -0.41779  -0.41504  -0.41398  -0.41132  -0.40908
 Alpha  occ. eigenvalues --   -0.40812  -0.40249  -0.40167  -0.39983  -0.39807
 Alpha  occ. eigenvalues --   -0.39516  -0.39436  -0.38821  -0.38609  -0.38541
 Alpha  occ. eigenvalues --   -0.38259  -0.38212  -0.38081  -0.37747  -0.37512
 Alpha  occ. eigenvalues --   -0.36747  -0.36107  -0.35406  -0.34867  -0.34111
 Alpha  occ. eigenvalues --   -0.32514  -0.31975  -0.31656  -0.31625  -0.30436
 Alpha  occ. eigenvalues --   -0.30128  -0.28730  -0.25409  -0.20832
 Alpha virt. eigenvalues --   -0.05282  -0.00395   0.03454   0.05888   0.06205
 Alpha virt. eigenvalues --    0.08558   0.09686   0.10504   0.11329   0.11699
 Alpha virt. eigenvalues --    0.11758   0.12131   0.12336   0.13302   0.13484

 Mulliken charges:
               1
     1  O   -0.494980
     2  O   -0.512745
     3  O   -0.565544
     4  O   -0.555350
     5  C    0.182279
     6  C    0.242538
     7  C    0.025127
     8  C   -0.212823
     9  C   -0.178377
    10  C    0.151899
    11  C   -0.315049
    12  C   -0.124002
    13  C   -0.308675
    14  C   -0.302004
    15  C   -0.074104
    16  C    0.103284
    17  C   -0.388614
    18  C   -0.105966
    19  C   -0.069533
    20  C    0.034457
    21  C    0.227836
    22  C   -0.187315
    23  C    0.152917
    24  C   -0.179247
    25  C   -0.054914
    26  C   -0.276415
    27  C   -0.296534
    28  C   -0.273011
    29  C   -0.125951
    30  C    0.132735
    31  C    0.100718
    32  C   -0.306677
    33  C   -0.381170
    34  C   -0.120662
    35  C    0.112596
    36  C   -0.357995
    37  C   -0.098686
    38  C   -0.053744
    39  C   -0.128254
    40  C   -0.099854
    41  C   -0.102937
    42  C   -0.128494
    43  C    0.110000
    44  C   -0.357953
    45  H    0.083105
    46  H    0.105070
    47  H    0.095413
    48  H    0.105436
    49  H    0.081946
    50  H    0.062757
    51  H    0.117569
    52  H    0.125510
    53  H    0.116914
    54  H    0.110140
    55  H    0.092510
    56  H    0.085488
    57  H    0.122723
    58  H    0.101656
    59  H    0.102512
    60  H    0.293338
    61  H    0.094155
    62  H    0.133546
    63  H    0.128401
    64  H    0.068644
    65  H    0.081388
    66  H    0.066252
    67  H    0.065104
    68  H    0.090805
    69  H    0.100382
    70  H    0.124407
    71  H    0.091415
    72  H    0.081608
    73  H    0.093808
    74  H    0.117657
    75  H    0.105610
    76  H    0.096531
    77  H    0.076315
    78  H    0.101630
    79  H    0.078380
    80  H    0.114441
    81  H    0.082238
    82  H    0.306582
    83  H    0.306646
    84  H    0.099997
    85  H    0.120345
    86  H    0.111143
    87  H    0.117216
    88  H    0.094752
    89  H    0.111642
    90  H    0.137774
    91  H    0.129073
    92  H    0.081939
    93  H    0.081191
    94  H    0.083754
    95  H    0.069710
    96  H    0.084878
    97  H    0.079902
    98  H    0.115935
    99  H    0.114506
   100  H    0.119408
 Sum of Mulliken charges =  -0.00000

 Dipole moment (field-independent basis, Debye):
    X=              2.0381    Y=              0.6058    Z=              2.3279  Tot=              3.1527
 Quadrupole moment (field-independent basis, Debye-Ang):
   XX=           -309.4301   YY=           -262.1401   ZZ=           -280.1225
   XY=             -4.2128   XZ=             36.8484   YZ=             -4.7751

 Normal termination of Gaussian 16 at Mon Jul 29 07:32:31 2019.
