 Gaussian 16, Revision A.03,
 Gaussian 16:  ES64L-G16RevA.03 25-Dec-2016

 -------------------------------------
 # td=(NStates=1) CAM-B3LYP/6-31G(d,p)
 -------------------------------------

 --
 TD
 --
 Symbolic Z-matrix:
 Charge =  0 Multiplicity = 1

                         Standard orientation:
 ---------------------------------------------------------------------
 Center     Atomic      Atomic             Coordinates (Angstroms)
 Number     Number       Type             X           Y           Z
 ---------------------------------------------------------------------
      1          8           0      -11.717037    0.284288   -1.483676
      2          8           0      -12.945325   -2.139331    1.636216
      3          8           0       10.493694   -1.263236   -1.860331
      4          8           0       14.485286   -1.074284   -0.211050
      5          6           0      -11.071848   -0.083706   -0.282866
      6          6           0      -11.710560   -1.170778   -1.098878
      7          6           0      -11.733098    0.528574    0.907916
      8          6           0      -13.155900   -1.676780   -0.848419
      9          6           0      -13.288702    0.131000    0.969734
     10          6           0      -13.571901   -1.259556    0.610588
     11          6           0      -11.101035   -2.073897   -2.129852
     12          6           0       -9.667241   -0.001427   -0.391099
     13          6           0      -11.018163    0.109431    2.183259
     14          6           0      -11.628129    1.979799    0.780205
     15          6           0       -8.693030   -0.835456    0.146384
     16          6           0       -7.197576   -0.639098    0.060357
     17          6           0       -6.436504   -1.950456    0.355822
     18          6           0       -6.722516    0.560644   -0.157555
     19          6           0       -5.288012    0.755210   -0.203016
     20          6           0       11.981249    0.338627    1.269517
     21          6           0       11.623744   -0.689126   -1.115949
     22          6           0       12.683207   -1.034745    1.636668
     23          6           0       13.385618   -1.672537    0.401123
     24          6           0       12.405258   -1.994776   -0.576800
     25          6           0       11.094554    0.097668    0.035288
     26          6           0       11.044503    0.765782    2.339324
     27          6           0       13.011273    1.459261    1.059362
     28          6           0       12.429046    0.081066   -2.125299
     29          6           0       -4.758508    1.977890   -0.457458
     30          6           0        9.910378    0.650491   -0.004221
     31          6           0       -3.370885    2.379596   -0.613821
     32          6           0        8.637279    0.978915   -0.322654
     33          6           0       -3.034678    3.718315   -0.921788
     34          6           0       -2.298561    1.412407   -0.275787
     35          6           0        7.529265    0.148582   -0.121621
     36          6           0        7.734786   -1.229339    0.496110
     37          6           0        6.317621    0.674979   -0.177154
     38          6           0       -0.860436    1.704268   -0.326786
     39          6           0        5.020015   -0.007920   -0.092250
     40          6           0        0.098073    0.781687   -0.027950
     41          6           0        3.838498    0.667669   -0.305673
     42          6           0        1.444008    1.110734   -0.210725
     43          6           0        2.470251    0.203709    0.028061
     44          6           0        2.275209   -1.172855    0.586866
     45          1           0      -13.076429   -2.774617   -0.936057
     46          1           0      -13.895814   -1.249560   -1.410394
     47          1           0      -13.735751    0.417679    1.810866
     48          1           0      -13.848611    0.846628    0.293293
     49          1           0      -14.612430   -1.323698    0.741743
     50          1           0      -10.949447   -3.178353   -1.972674
     51          1           0      -11.681970   -1.888085   -3.163014
     52          1           0       -9.851034   -1.788657   -2.029601
     53          1           0       -9.255933    0.932422   -0.792905
     54          1           0      -10.125560    0.383765    1.970587
     55          1           0      -11.469321    0.574165    2.989334
     56          1           0      -10.925709   -0.946883    2.541641
     57          1           0      -11.901500    2.353373   -0.221022
     58          1           0      -12.032323    2.464672    1.633790
     59          1           0      -10.508839    2.137897    1.125071
     60          1           0      -12.099301   -2.172243    1.469011
     61          1           0       -8.998358   -1.855019    0.611323
     62          1           0       -6.194249   -2.512923   -0.632345
     63          1           0       -5.526339   -1.658867    0.913043
     64          1           0       -7.158951   -2.633601    0.781740
     65          1           0       -7.228606    1.450029   -0.473999
     66          1           0       -4.550112   -0.045609    0.036483
     67          1           0       13.524457   -0.648237    2.284228
     68          1           0       11.966409   -1.740592    2.192371
     69          1           0       13.670971   -2.645792    0.726508
     70          1           0       12.765765   -2.591534   -1.343747
     71          1           0       11.502887   -2.605477   -0.145194
     72          1           0       11.806911    0.979001    3.234656
     73          1           0       10.325686    1.536891    2.182771
     74          1           0       10.403357   -0.097122    2.601519
     75          1           0       13.732881    1.109020    0.206039
     76          1           0       12.515067    2.244831    0.603157
     77          1           0       13.478858    1.595338    2.007954
     78          1           0       12.457515   -0.460003   -3.050410
     79          1           0       12.082695    1.077990   -2.301828
     80          1           0       13.366357    0.297477   -1.670119
     81          1           0       -5.321367    2.802231   -0.810641
     82          1           0        9.785983   -0.627390   -1.934562
     83          1           0       15.203013   -1.056181    0.442090
     84          1           0        8.460351    1.970077   -0.666099
     85          1           0       -2.463228    4.130144   -0.168391
     86          1           0       -2.491326    3.796079   -1.934283
     87          1           0       -3.923267    4.378866   -0.829514
     88          1           0       -2.607816    0.441625   -0.151881
     89          1           0        6.849857   -1.798578    0.608538
     90          1           0        8.544576   -1.691042   -0.166025
     91          1           0        8.120413   -1.126982    1.576939
     92          1           0        6.129855    1.705912   -0.516475
     93          1           0       -0.730005    2.579032   -0.985874
     94          1           0        5.157996   -1.118210    0.192104
     95          1           0       -0.180603   -0.177152    0.262473
     96          1           0        4.041723    1.823497   -0.468389
     97          1           0        1.620076    2.118193   -0.384491
     98          1           0        1.268727   -1.573590    0.937222
     99          1           0        2.897753   -1.752752   -0.250818
    100          1           0        3.171815   -1.210704    1.311204
 ---------------------------------------------------------------------

 SCF Done:  E(RCAM-B3LYP) =  -1857.36623562     A.U. after   14 cycles

 Excitation energies and oscillator strengths:

 Excited State   1:      Singlet-A      2.4184 eV  512.67 nm  f=2.8589  <S**2>=0.000
     163 ->166         0.14165
     164 ->165         0.69055
 This state for optimization and/or second-order correction.
 Total Energy, E(TD-HF/TD-DFT) =  -1857.27736109
 Copying the excited state density for this state as the 1-particle RhoCI density.

 The electronic state is 1-A.
 Alpha  occ. eigenvalues --  -19.23207 -19.21610 -19.19318 -19.19043 -10.32333
 Alpha  occ. eigenvalues --  -10.31619 -10.31288 -10.30266 -10.29661 -10.28341
 Alpha  occ. eigenvalues --  -10.28284 -10.28060 -10.27980 -10.27948 -10.27628
 Alpha  occ. eigenvalues --  -10.27411 -10.27373 -10.27321 -10.27223 -10.27108
 Alpha  occ. eigenvalues --  -10.27034 -10.26919 -10.26733 -10.26645 -10.26563
 Alpha  occ. eigenvalues --  -10.26530 -10.26410 -10.26400 -10.25949 -10.25869
 Alpha  occ. eigenvalues --  -10.25851 -10.25809 -10.25768 -10.25736 -10.25362
 Alpha  occ. eigenvalues --  -10.25306 -10.25183 -10.24754 -10.24666 -10.24579
 Alpha  occ. eigenvalues --  -10.24412 -10.23789 -10.22372 -10.22350  -1.14140
 Alpha  occ. eigenvalues --   -1.12157  -1.09111  -1.07528  -0.93653  -0.92579
 Alpha  occ. eigenvalues --   -0.92296  -0.91916  -0.91296  -0.90088  -0.87503
 Alpha  occ. eigenvalues --   -0.87308  -0.86956  -0.85555  -0.85064  -0.83280
 Alpha  occ. eigenvalues --   -0.82792  -0.81625  -0.80657  -0.78539  -0.77452
 Alpha  occ. eigenvalues --   -0.77336  -0.76974  -0.76076  -0.75966  -0.75836
 Alpha  occ. eigenvalues --   -0.75554  -0.74663  -0.73039  -0.70418  -0.69865
 Alpha  occ. eigenvalues --   -0.68353  -0.66817  -0.65375  -0.65152  -0.64168
 Alpha  occ. eigenvalues --   -0.63720  -0.62865  -0.61324  -0.60502  -0.59764
 Alpha  occ. eigenvalues --   -0.59201  -0.58662  -0.58098  -0.57997  -0.56782
 Alpha  occ. eigenvalues --   -0.56449  -0.55762  -0.55661  -0.55195  -0.54628
 Alpha  occ. eigenvalues --   -0.54326  -0.53410  -0.52828  -0.52393  -0.51552
 Alpha  occ. eigenvalues --   -0.51330  -0.51304  -0.50769  -0.50269  -0.50113
 Alpha  occ. eigenvalues --   -0.50019  -0.49758  -0.48910  -0.48768  -0.48149
 Alpha  occ. eigenvalues --   -0.47924  -0.47529  -0.47460  -0.47192  -0.46996
 Alpha  occ. eigenvalues --   -0.46696  -0.46530  -0.46431  -0.46353  -0.46145
 Alpha  occ. eigenvalues --   -0.45868  -0.45674  -0.45351  -0.44633  -0.44441
 Alpha  occ. eigenvalues --   -0.44127  -0.43777  -0.42922  -0.42729  -0.42698
 Alpha  occ. eigenvalues --   -0.42539  -0.42494  -0.41523  -0.41389  -0.41300
 Alpha  occ. eigenvalues --   -0.41046  -0.40919  -0.40756  -0.40375  -0.39749
 Alpha  occ. eigenvalues --   -0.39547  -0.39333  -0.39163  -0.38742  -0.38572
 Alpha  occ. eigenvalues --   -0.38303  -0.38104  -0.37805  -0.36763  -0.36759
 Alpha  occ. eigenvalues --   -0.36336  -0.35500  -0.34596  -0.34183  -0.33895
 Alpha  occ. eigenvalues --   -0.32560  -0.32063  -0.31915  -0.31694  -0.30531
 Alpha  occ. eigenvalues --   -0.29683  -0.27720  -0.24767  -0.20233
 Alpha virt. eigenvalues --   -0.05015  -0.00664   0.02600   0.05955   0.07292
 Alpha virt. eigenvalues --    0.09855   0.10009   0.10782   0.11679   0.12404
 Alpha virt. eigenvalues --    0.12614   0.12784   0.13159   0.13644   0.13866

 Mulliken charges:
               1
     1  O   -0.521742
     2  O   -0.549005
     3  O   -0.584699
     4  O   -0.532528
     5  C    0.275216
     6  C    0.193019
     7  C   -0.006048
     8  C   -0.184983
     9  C   -0.161674
    10  C    0.123493
    11  C   -0.334463
    12  C   -0.121324
    13  C   -0.300212
    14  C   -0.310715
    15  C   -0.102283
    16  C    0.080428
    17  C   -0.358411
    18  C   -0.092198
    19  C   -0.075417
    20  C   -0.003303
    21  C    0.237216
    22  C   -0.191125
    23  C    0.160849
    24  C   -0.182429
    25  C   -0.014591
    26  C   -0.291725
    27  C   -0.297826
    28  C   -0.305799
    29  C   -0.114013
    30  C    0.055769
    31  C    0.073995
    32  C   -0.262231
    33  C   -0.396425
    34  C   -0.120639
    35  C    0.133696
    36  C   -0.362080
    37  C   -0.120502
    38  C   -0.105016
    39  C   -0.089941
    40  C   -0.058976
    41  C   -0.130405
    42  C   -0.107290
    43  C    0.099514
    44  C   -0.377176
    45  H    0.110110
    46  H    0.125059
    47  H    0.106903
    48  H    0.082922
    49  H    0.094455
    50  H    0.114571
    51  H    0.122740
    52  H    0.083922
    53  H    0.104245
    54  H    0.116755
    55  H    0.106254
    56  H    0.087464
    57  H    0.135900
    58  H    0.109805
    59  H    0.074779
    60  H    0.284217
    61  H    0.068235
    62  H    0.120076
    63  H    0.125265
    64  H    0.116701
    65  H    0.098539
    66  H    0.082971
    67  H    0.069424
    68  H    0.106677
    69  H    0.085090
    70  H    0.114399
    71  H    0.104541
    72  H    0.062964
    73  H    0.122993
    74  H    0.098032
    75  H    0.105124
    76  H    0.115355
    77  H    0.102848
    78  H    0.122304
    79  H    0.091114
    80  H    0.127084
    81  H    0.070040
    82  H    0.299125
    83  H    0.313120
    84  H    0.109245
    85  H    0.145499
    86  H    0.122033
    87  H    0.103722
    88  H    0.068127
    89  H    0.107652
    90  H    0.125448
    91  H    0.113012
    92  H    0.069954
    93  H    0.090448
    94  H    0.076180
    95  H    0.077409
    96  H    0.086339
    97  H    0.083568
    98  H    0.126122
    99  H    0.119222
   100  H    0.127897
 Sum of Mulliken charges =  -0.00000

 Dipole moment (field-independent basis, Debye):
    X=              3.0415    Y=              0.2138    Z=              1.9738  Tot=              3.6321
 Quadrupole moment (field-independent basis, Debye-Ang):
   XX=           -261.7406   YY=           -259.7609   ZZ=           -280.9541
   XY=             -2.8874   XZ=             33.5395   YZ=             -3.1353

 Normal termination of Gaussian 16 at Fri Aug  2 10:18:12 2019.
