 Gaussian 16, Revision A.03,
 Gaussian 16:  ES64L-G16RevA.03 25-Dec-2016

 -------------------------------------
 # td=(NStates=1) CAM-B3LYP/6-31G(d,p)
 -------------------------------------

 --
 TD
 --
 Symbolic Z-matrix:
 Charge =  0 Multiplicity = 1

                         Standard orientation:
 ---------------------------------------------------------------------
 Center     Atomic      Atomic             Coordinates (Angstroms)
 Number     Number       Type             X           Y           Z
 ---------------------------------------------------------------------
      1          8           0      -11.495356    0.124599   -1.609957
      2          8           0      -13.259655   -2.257659    1.574350
      3          8           0       10.389728   -1.093382   -2.011649
      4          8           0       14.478539   -1.201835   -0.323834
      5          6           0      -10.944962   -0.163733   -0.350405
      6          6           0      -11.615319   -1.203355   -1.236256
      7          6           0      -11.715920    0.505399    0.795949
      8          6           0      -12.957681   -1.790085   -0.948832
      9          6           0      -13.230790    0.143955    0.771096
     10          6           0      -13.545315   -1.354485    0.440714
     11          6           0      -10.717231   -2.194701   -2.074010
     12          6           0       -9.476318    0.049505   -0.423395
     13          6           0      -11.166985   -0.047259    2.205579
     14          6           0      -11.596596    2.059691    0.694108
     15          6           0       -8.552448   -0.771852    0.102129
     16          6           0       -7.104839   -0.678013    0.131531
     17          6           0       -6.277462   -1.974912    0.397707
     18          6           0       -6.547117    0.517783   -0.138618
     19          6           0       -5.178803    0.822181   -0.281901
     20          6           0       12.006923    0.154442    1.226773
     21          6           0       11.490196   -0.666926   -1.338541
     22          6           0       12.629558   -1.289786    1.434543
     23          6           0       13.260401   -1.923591    0.149557
     24          6           0       12.339740   -1.938209   -0.920453
     25          6           0       11.084208    0.017238    0.015651
     26          6           0       11.160004    0.436834    2.459975
     27          6           0       12.962399    1.364710    0.936989
     28          6           0       12.301246    0.285117   -2.151568
     29          6           0       -4.715956    1.940726   -0.568861
     30          6           0        9.852346    0.538970   -0.092930
     31          6           0       -3.340644    2.435455   -0.596513
     32          6           0        8.669524    1.019285   -0.104389
     33          6           0       -3.129962    3.880018   -1.038965
     34          6           0       -2.374024    1.531606   -0.161340
     35          6           0        7.460326    0.145827    0.174391
     36          6           0        7.724895   -1.157617    0.486204
     37          6           0        6.247057    0.778263   -0.002449
     38          6           0       -0.955862    1.924802   -0.145181
     39          6           0        4.997074    0.216341    0.232875
     40          6           0        0.030866    0.970891    0.210293
     41          6           0        3.735834    0.880201    0.100070
     42          6           0        1.379224    1.266074    0.033879
     43          6           0        2.410509    0.426686    0.288958
     44          6           0        2.231541   -1.039434    0.800198
     45          1           0      -12.845802   -2.952969   -0.965144
     46          1           0      -13.814330   -1.601976   -1.751646
     47          1           0      -13.625043    0.604002    1.698556
     48          1           0      -13.611482    0.818368    0.079138
     49          1           0      -14.724123   -1.603256    0.590005
     50          1           0      -10.717405   -3.161757   -1.478936
     51          1           0      -11.298855   -2.376161   -2.863440
     52          1           0       -9.598104   -1.847722   -2.264696
     53          1           0       -9.268176    0.992093   -0.963418
     54          1           0      -10.014646    0.191712    2.162267
     55          1           0      -11.575378    0.552863    3.109427
     56          1           0      -11.339426   -0.925869    2.569492
     57          1           0      -11.902850    2.586606   -0.278588
     58          1           0      -12.105449    2.727164    1.476839
     59          1           0      -10.502392    2.538525    0.916665
     60          1           0      -12.302090   -2.568442    1.740943
     61          1           0       -8.931220   -1.736518    0.461990
     62          1           0       -5.902102   -2.648632   -0.525713
     63          1           0       -5.627219   -1.842191    1.154811
     64          1           0       -7.022606   -2.552539    1.017064
     65          1           0       -7.221525    1.273020   -0.409086
     66          1           0       -4.480299    0.078765    0.230307
     67          1           0       13.348182   -0.946950    2.240661
     68          1           0       11.822679   -1.918502    1.784964
     69          1           0       13.578261   -2.939737    0.447440
     70          1           0       12.597943   -2.539035   -1.858918
     71          1           0       11.529097   -2.709310   -0.583114
     72          1           0       11.871576    0.521857    3.427716
     73          1           0       10.649327    1.379879    2.359418
     74          1           0       10.558084   -0.377224    2.609231
     75          1           0       13.742611    1.145062    0.072427
     76          1           0       12.454819    2.147634    0.383645
     77          1           0       13.645678    1.677753    1.828456
     78          1           0       12.577229   -0.461492   -2.944008
     79          1           0       11.770586    1.031086   -2.572058
     80          1           0       13.113659    0.570422   -1.570038
     81          1           0       -5.448210    2.801183   -0.910789
     82          1           0        9.680122   -0.402064   -1.957358
     83          1           0       15.171817   -1.142109    0.358797
     84          1           0        8.408938    2.083635   -0.309860
     85          1           0       -2.430414    4.489053   -0.340458
     86          1           0       -2.631434    4.001887   -2.026388
     87          1           0       -4.258156    4.231220   -1.148653
     88          1           0       -2.525014    0.449518    0.109512
     89          1           0        6.687484   -1.670910    0.828917
     90          1           0        8.083307   -1.934238   -0.383048
     91          1           0        8.281348   -1.288672    1.359517
     92          1           0        6.365910    1.858803   -0.165854
     93          1           0       -0.840223    2.855175   -0.353751
     94          1           0        5.002834   -0.784996    0.478066
     95          1           0       -0.325670   -0.119345    0.365772
     96          1           0        3.805720    1.950842   -0.197252
     97          1           0        1.594768    2.327895   -0.047826
     98          1           0        1.174526   -1.315433    1.053524
     99          1           0        2.598170   -1.720246    0.069233
    100          1           0        2.891118   -1.079755    1.766595
 ---------------------------------------------------------------------

 SCF Done:  E(RCAM-B3LYP) =  -1857.35273779     A.U. after   14 cycles

 Excitation energies and oscillator strengths:

 Excited State   1:      Singlet-A      2.4721 eV  501.53 nm  f=3.2504  <S**2>=0.000
     163 ->166        -0.14604
     164 ->165         0.68949
 This state for optimization and/or second-order correction.
 Total Energy, E(TD-HF/TD-DFT) =  -1857.26188833
 Copying the excited state density for this state as the 1-particle RhoCI density.

 The electronic state is 1-A.
 Alpha  occ. eigenvalues --  -19.22147 -19.21025 -19.20884 -19.20774 -10.32930
 Alpha  occ. eigenvalues --  -10.32554 -10.31606 -10.31466 -10.31407 -10.28696
 Alpha  occ. eigenvalues --  -10.28634 -10.28175 -10.28126 -10.27898 -10.27422
 Alpha  occ. eigenvalues --  -10.27323 -10.27195 -10.27134 -10.26911 -10.26875
 Alpha  occ. eigenvalues --  -10.26840 -10.26832 -10.26788 -10.26781 -10.26629
 Alpha  occ. eigenvalues --  -10.26555 -10.26430 -10.26255 -10.26136 -10.26129
 Alpha  occ. eigenvalues --  -10.26076 -10.26014 -10.26006 -10.25977 -10.25915
 Alpha  occ. eigenvalues --  -10.25817 -10.25630 -10.25536 -10.25065 -10.24945
 Alpha  occ. eigenvalues --  -10.24879 -10.24763 -10.24555 -10.21728  -1.17407
 Alpha  occ. eigenvalues --   -1.11247  -1.07284  -1.06072  -0.93109  -0.92731
 Alpha  occ. eigenvalues --   -0.92157  -0.91337  -0.90377  -0.89342  -0.87410
 Alpha  occ. eigenvalues --   -0.86740  -0.86222  -0.85644  -0.84445  -0.83258
 Alpha  occ. eigenvalues --   -0.82313  -0.81242  -0.79714  -0.78320  -0.77035
 Alpha  occ. eigenvalues --   -0.76983  -0.76227  -0.76036  -0.75872  -0.75774
 Alpha  occ. eigenvalues --   -0.75213  -0.74060  -0.72998  -0.70471  -0.69666
 Alpha  occ. eigenvalues --   -0.68980  -0.66748  -0.65339  -0.64605  -0.64198
 Alpha  occ. eigenvalues --   -0.63837  -0.61640  -0.60755  -0.60363  -0.60213
 Alpha  occ. eigenvalues --   -0.59183  -0.58554  -0.57974  -0.57660  -0.56527
 Alpha  occ. eigenvalues --   -0.56216  -0.55768  -0.54823  -0.54589  -0.53978
 Alpha  occ. eigenvalues --   -0.53390  -0.52672  -0.52357  -0.52285  -0.51525
 Alpha  occ. eigenvalues --   -0.51471  -0.50650  -0.50266  -0.49970  -0.49306
 Alpha  occ. eigenvalues --   -0.49177  -0.49141  -0.48932  -0.48682  -0.48637
 Alpha  occ. eigenvalues --   -0.48363  -0.47828  -0.47610  -0.47339  -0.47313
 Alpha  occ. eigenvalues --   -0.46534  -0.46098  -0.45814  -0.45106  -0.44728
 Alpha  occ. eigenvalues --   -0.44556  -0.44360  -0.43881  -0.43707  -0.43391
 Alpha  occ. eigenvalues --   -0.43239  -0.43137  -0.42929  -0.42781  -0.42474
 Alpha  occ. eigenvalues --   -0.42240  -0.41988  -0.41868  -0.41320  -0.41265
 Alpha  occ. eigenvalues --   -0.40887  -0.40713  -0.40331  -0.39973  -0.39726
 Alpha  occ. eigenvalues --   -0.39593  -0.39540  -0.39111  -0.38918  -0.38749
 Alpha  occ. eigenvalues --   -0.38140  -0.38079  -0.37903  -0.37530  -0.37007
 Alpha  occ. eigenvalues --   -0.36137  -0.35688  -0.35092  -0.34609  -0.33824
 Alpha  occ. eigenvalues --   -0.32589  -0.32104  -0.31860  -0.31557  -0.31288
 Alpha  occ. eigenvalues --   -0.28887  -0.28046  -0.24732  -0.20255
 Alpha virt. eigenvalues --   -0.05162  -0.00317   0.03484   0.05825   0.07870
 Alpha virt. eigenvalues --    0.10262   0.10308   0.10798   0.11373   0.11827
 Alpha virt. eigenvalues --    0.12423   0.12780   0.13084   0.13609   0.13744

 Mulliken charges:
               1
     1  O   -0.486045
     2  O   -0.579091
     3  O   -0.568333
     4  O   -0.570723
     5  C    0.171070
     6  C    0.264940
     7  C    0.033474
     8  C   -0.228451
     9  C   -0.182594
    10  C    0.169347
    11  C   -0.328839
    12  C   -0.096930
    13  C   -0.305334
    14  C   -0.335536
    15  C   -0.080009
    16  C    0.061027
    17  C   -0.363065
    18  C   -0.102000
    19  C   -0.051761
    20  C    0.019738
    21  C    0.257430
    22  C   -0.195669
    23  C    0.169413
    24  C   -0.198229
    25  C   -0.079366
    26  C   -0.283379
    27  C   -0.326503
    28  C   -0.256205
    29  C   -0.101040
    30  C    0.149037
    31  C    0.091069
    32  C   -0.330777
    33  C   -0.373133
    34  C   -0.124153
    35  C    0.151287
    36  C   -0.398334
    37  C   -0.083565
    38  C   -0.047323
    39  C   -0.100074
    40  C   -0.101883
    41  C   -0.129647
    42  C   -0.121884
    43  C    0.119286
    44  C   -0.365498
    45  H    0.107573
    46  H    0.114837
    47  H    0.104657
    48  H    0.112931
    49  H    0.097984
    50  H    0.090277
    51  H    0.127406
    52  H    0.118086
    53  H    0.110209
    54  H    0.093192
    55  H    0.086208
    56  H    0.099180
    57  H    0.120622
    58  H    0.102653
    59  H    0.081712
    60  H    0.298645
    61  H    0.072071
    62  H    0.119359
    63  H    0.133688
    64  H    0.096557
    65  H    0.074821
    66  H    0.076875
    67  H    0.088080
    68  H    0.106641
    69  H    0.092681
    70  H    0.110740
    71  H    0.099831
    72  H    0.069445
    73  H    0.117126
    74  H    0.111750
    75  H    0.115473
    76  H    0.120899
    77  H    0.089561
    78  H    0.098770
    79  H    0.095432
    80  H    0.115054
    81  H    0.057381
    82  H    0.311199
    83  H    0.303203
    84  H    0.104310
    85  H    0.120752
    86  H    0.133167
    87  H    0.104850
    88  H    0.087136
    89  H    0.078500
    90  H    0.126030
    91  H    0.135881
    92  H    0.075248
    93  H    0.059085
    94  H    0.076397
    95  H    0.082313
    96  H    0.072298
    97  H    0.087911
    98  H    0.105425
    99  H    0.132455
   100  H    0.113686
 Sum of Mulliken charges =  -0.00000

 Dipole moment (field-independent basis, Debye):
    X=              2.2312    Y=             -0.2159    Z=              2.2952  Tot=              3.2082
 Quadrupole moment (field-independent basis, Debye-Ang):
   XX=           -288.5675   YY=           -254.9546   ZZ=           -279.5747
   XY=              0.4760   XZ=             36.1965   YZ=             -5.3040

 Normal termination of Gaussian 16 at Mon Jul 29 14:40:42 2019.
