 Gaussian 16, Revision A.03,
 Gaussian 16:  ES64L-G16RevA.03 25-Dec-2016

 -------------------------------------
 # td=(NStates=1) CAM-B3LYP/6-31G(d,p)
 -------------------------------------

 --
 TD
 --
 Symbolic Z-matrix:
 Charge =  0 Multiplicity = 1

                         Standard orientation:
 ---------------------------------------------------------------------
 Center     Atomic      Atomic             Coordinates (Angstroms)
 Number     Number       Type             X           Y           Z
 ---------------------------------------------------------------------
      1          8           0      -11.802342    0.259847   -1.428301
      2          8           0      -12.867506   -2.648513    1.465204
      3          8           0       10.441922   -1.187027   -2.012588
      4          8           0       14.499269   -1.160402   -0.274485
      5          6           0      -11.108959   -0.129030   -0.385661
      6          6           0      -11.656687   -1.218726   -1.176210
      7          6           0      -11.716058    0.300639    0.964917
      8          6           0      -13.106854   -1.765864   -0.817607
      9          6           0      -13.155975   -0.184299    1.132214
     10          6           0      -13.480146   -1.590953    0.654544
     11          6           0      -10.856523   -1.987891   -2.132784
     12          6           0       -9.557135    0.151940   -0.438439
     13          6           0      -10.889487   -0.124624    2.233927
     14          6           0      -11.601631    1.828232    0.795711
     15          6           0       -8.568643   -0.829607   -0.134108
     16          6           0       -7.196292   -0.659973   -0.056261
     17          6           0       -6.296537   -1.834335    0.205268
     18          6           0       -6.633003    0.655531   -0.286092
     19          6           0       -5.261258    0.996918   -0.275061
     20          6           0       11.930428    0.097154    1.282017
     21          6           0       11.627609   -0.744770   -1.263306
     22          6           0       12.653117   -1.215515    1.515959
     23          6           0       13.302867   -1.879266    0.359452
     24          6           0       12.373799   -2.094309   -0.859642
     25          6           0       11.134262    0.051490    0.068768
     26          6           0       10.990005    0.384959    2.491162
     27          6           0       12.936966    1.210796    1.158684
     28          6           0       12.384909    0.175263   -2.058289
     29          6           0       -4.705647    2.242057   -0.378896
     30          6           0        9.904291    0.462261   -0.184956
     31          6           0       -3.399923    2.611155   -0.498806
     32          6           0        8.699595    0.843006   -0.206602
     33          6           0       -3.059012    4.075031   -0.656544
     34          6           0       -2.321352    1.744986   -0.261039
     35          6           0        7.500666    0.128628    0.134293
     36          6           0        7.589978   -1.287063    0.366098
     37          6           0        6.259644    0.782688   -0.059498
     38          6           0       -0.932769    2.101602   -0.342312
     39          6           0        4.968896    0.267471    0.081853
     40          6           0        0.006552    1.088653    0.004926
     41          6           0        3.812176    1.026141    0.022018
     42          6           0        1.379497    1.374988    0.011526
     43          6           0        2.460917    0.512092    0.108777
     44          6           0        2.115978   -1.045173    0.385995
     45          1           0      -13.115800   -2.832449   -1.069796
     46          1           0      -13.805393   -1.165570   -1.496900
     47          1           0      -13.544258    0.062344    1.984175
     48          1           0      -13.865831    0.358898    0.593135
     49          1           0      -14.649785   -1.717608    0.840236
     50          1           0      -10.660101   -2.924788   -1.666812
     51          1           0      -11.545912   -2.358805   -2.938675
     52          1           0       -9.887672   -1.445784   -2.321942
     53          1           0       -9.526787    1.078240   -0.725677
     54          1           0       -9.923903    0.191378    2.354607
     55          1           0      -11.455944    0.274619    3.135000
     56          1           0      -10.862688   -1.285901    2.154669
     57          1           0      -12.080917    1.987816   -0.323689
     58          1           0      -12.181604    2.556818    1.525567
     59          1           0      -10.561671    1.977339    0.785830
     60          1           0      -11.859833   -2.631867    1.361519
     61          1           0       -8.981806   -1.704208   -0.003989
     62          1           0       -5.527523   -1.982211   -0.555918
     63          1           0       -5.957666   -1.558133    1.147909
     64          1           0       -6.806687   -2.868491    0.269800
     65          1           0       -7.392455    1.462944   -0.398533
     66          1           0       -4.594870    0.143289   -0.007876
     67          1           0       13.534281   -0.897661    2.215750
     68          1           0       11.958664   -2.022799    1.820733
     69          1           0       13.602209   -2.890866    0.631386
     70          1           0       13.040930   -2.369852   -1.797651
     71          1           0       11.441102   -2.728975   -0.607639
     72          1           0       11.930240    0.370191    3.411524
     73          1           0       10.708040    1.369653    2.691075
     74          1           0       10.329543   -0.444181    2.488700
     75          1           0       13.705199    0.918745    0.468063
     76          1           0       12.434583    2.021162    0.637663
     77          1           0       13.453935    1.338813    2.141948
     78          1           0       12.352990   -0.308684   -3.054454
     79          1           0       11.806822    1.172139   -2.101942
     80          1           0       13.350549    0.468360   -1.751962
     81          1           0       -5.371363    3.177989   -0.621347
     82          1           0        9.732113   -0.540785   -1.905159
     83          1           0       15.121040   -1.095247    0.495448
     84          1           0        8.487513    1.882750   -0.674116
     85          1           0       -2.097260    4.576940   -0.041990
     86          1           0       -3.143744    4.361026   -1.955733
     87          1           0       -3.951738    4.737475   -0.241368
     88          1           0       -2.564406    0.739037    0.082898
     89          1           0        6.648954   -2.027658    0.653518
     90          1           0        8.161316   -1.797255   -0.396417
     91          1           0        8.214236   -1.335154    1.209061
     92          1           0        6.506167    1.864816   -0.227181
     93          1           0       -0.554280    2.940788   -0.860791
     94          1           0        4.955938   -0.834211    0.115280
     95          1           0       -0.281044    0.068755    0.222820
     96          1           0        4.030643    2.205092   -0.134056
     97          1           0        1.613202    2.322812    0.121666
     98          1           0        1.248954   -1.120324    0.063098
     99          1           0        2.799430   -1.597056   -0.301166
    100          1           0        2.244054   -1.388636    1.525078
 ---------------------------------------------------------------------

 SCF Done:  E(RCAM-B3LYP) =  -1857.27949687     A.U. after   15 cycles

 Excitation energies and oscillator strengths:

 Excited State   1:      Singlet-A      1.9739 eV  628.12 nm  f=3.0835  <S**2>=0.000
     163 ->166        -0.13901
     164 ->165         0.69696
     164 <-165        -0.10445
 This state for optimization and/or second-order correction.
 Total Energy, E(TD-HF/TD-DFT) =  -1857.20695765
 Copying the excited state density for this state as the 1-particle RhoCI density.

 The electronic state is 1-A.
 Alpha  occ. eigenvalues --  -19.22599 -19.22177 -19.20961 -19.19992 -10.31909
 Alpha  occ. eigenvalues --  -10.31816 -10.31724 -10.31517 -10.31386 -10.29742
 Alpha  occ. eigenvalues --  -10.28412 -10.28158 -10.28010 -10.27996 -10.27988
 Alpha  occ. eigenvalues --  -10.27692 -10.27489 -10.27211 -10.27094 -10.27080
 Alpha  occ. eigenvalues --  -10.27030 -10.27006 -10.26955 -10.26942 -10.26919
 Alpha  occ. eigenvalues --  -10.26821 -10.26811 -10.26781 -10.26666 -10.26611
 Alpha  occ. eigenvalues --  -10.26550 -10.26413 -10.26395 -10.26162 -10.26050
 Alpha  occ. eigenvalues --  -10.26027 -10.25961 -10.25816 -10.25164 -10.25066
 Alpha  occ. eigenvalues --  -10.24872 -10.24595 -10.23107 -10.22867  -1.17932
 Alpha  occ. eigenvalues --   -1.08027  -1.07459  -1.06886  -0.94695  -0.92541
 Alpha  occ. eigenvalues --   -0.92334  -0.91359  -0.90605  -0.90115  -0.87628
 Alpha  occ. eigenvalues --   -0.86945  -0.86277  -0.86000  -0.84916  -0.83973
 Alpha  occ. eigenvalues --   -0.82770  -0.81812  -0.80954  -0.78351  -0.77792
 Alpha  occ. eigenvalues --   -0.77160  -0.77018  -0.76613  -0.75988  -0.75831
 Alpha  occ. eigenvalues --   -0.75381  -0.73702  -0.73116  -0.70712  -0.69785
 Alpha  occ. eigenvalues --   -0.68472  -0.66954  -0.66225  -0.65290  -0.65041
 Alpha  occ. eigenvalues --   -0.64168  -0.61564  -0.60185  -0.60041  -0.59635
 Alpha  occ. eigenvalues --   -0.58542  -0.58373  -0.58079  -0.57606  -0.56715
 Alpha  occ. eigenvalues --   -0.56277  -0.55686  -0.54916  -0.54650  -0.54511
 Alpha  occ. eigenvalues --   -0.53932  -0.53700  -0.53062  -0.52235  -0.51941
 Alpha  occ. eigenvalues --   -0.51629  -0.51363  -0.50737  -0.50525  -0.50227
 Alpha  occ. eigenvalues --   -0.49939  -0.49548  -0.49033  -0.48876  -0.48412
 Alpha  occ. eigenvalues --   -0.48103  -0.47984  -0.47824  -0.47211  -0.47127
 Alpha  occ. eigenvalues --   -0.46916  -0.46669  -0.46352  -0.46218  -0.45981
 Alpha  occ. eigenvalues --   -0.45633  -0.44720  -0.44550  -0.44175  -0.44037
 Alpha  occ. eigenvalues --   -0.43905  -0.43223  -0.42978  -0.42623  -0.42324
 Alpha  occ. eigenvalues --   -0.42212  -0.42183  -0.41869  -0.41584  -0.41455
 Alpha  occ. eigenvalues --   -0.40998  -0.40905  -0.40719  -0.40550  -0.40284
 Alpha  occ. eigenvalues --   -0.39965  -0.39533  -0.39124  -0.38949  -0.38787
 Alpha  occ. eigenvalues --   -0.38703  -0.38570  -0.37693  -0.37539  -0.36558
 Alpha  occ. eigenvalues --   -0.36307  -0.35693  -0.35079  -0.34680  -0.34099
 Alpha  occ. eigenvalues --   -0.33180  -0.32586  -0.31755  -0.31512  -0.31113
 Alpha  occ. eigenvalues --   -0.29662  -0.27796  -0.23832  -0.19269
 Alpha virt. eigenvalues --   -0.06760  -0.01914   0.02477   0.05563   0.06854
 Alpha virt. eigenvalues --    0.08807   0.09241   0.10319   0.11572   0.11687
 Alpha virt. eigenvalues --    0.12355   0.12611   0.12671   0.13104   0.13682

 Mulliken charges:
               1
     1  O   -0.491403
     2  O   -0.563940
     3  O   -0.586701
     4  O   -0.554007
     5  C    0.221076
     6  C    0.174040
     7  C    0.019087
     8  C   -0.196896
     9  C   -0.160304
    10  C    0.146042
    11  C   -0.347814
    12  C   -0.091731
    13  C   -0.280072
    14  C   -0.319484
    15  C   -0.087730
    16  C    0.073584
    17  C   -0.376929
    18  C   -0.105442
    19  C   -0.081570
    20  C    0.006780
    21  C    0.245067
    22  C   -0.170267
    23  C    0.117855
    24  C   -0.193188
    25  C   -0.076224
    26  C   -0.259915
    27  C   -0.319698
    28  C   -0.284177
    29  C   -0.116927
    30  C    0.162906
    31  C    0.126742
    32  C   -0.333536
    33  C   -0.354649
    34  C   -0.118207
    35  C    0.144848
    36  C   -0.387431
    37  C   -0.112939
    38  C   -0.091497
    39  C   -0.083197
    40  C   -0.092311
    41  C   -0.114910
    42  C   -0.100129
    43  C    0.052991
    44  C   -0.331382
    45  H    0.104143
    46  H    0.122794
    47  H    0.100151
    48  H    0.100327
    49  H    0.087444
    50  H    0.115158
    51  H    0.116261
    52  H    0.135628
    53  H    0.098275
    54  H    0.118206
    55  H    0.099887
    56  H    0.052213
    57  H    0.112437
    58  H    0.083949
    59  H    0.103341
    60  H    0.303450
    61  H    0.064194
    62  H    0.132469
    63  H    0.145804
    64  H    0.100444
    65  H    0.085727
    66  H    0.081286
    67  H    0.079708
    68  H    0.107136
    69  H    0.104640
    70  H    0.116396
    71  H    0.112403
    72  H    0.034919
    73  H    0.128929
    74  H    0.114116
    75  H    0.126887
    76  H    0.111011
    77  H    0.092232
    78  H    0.113520
    79  H    0.075994
    80  H    0.137447
    81  H    0.073711
    82  H    0.305526
    83  H    0.303261
    84  H    0.106096
    85  H    0.109178
    86  H    0.077421
    87  H    0.102477
    88  H    0.081235
    89  H    0.095125
    90  H    0.136774
    91  H    0.125687
    92  H    0.069846
    93  H    0.109517
    94  H    0.087062
    95  H    0.089002
    96  H    0.082988
    97  H    0.076237
    98  H    0.119609
    99  H    0.111475
   100  H    0.112436
 Sum of Mulliken charges =  -0.00000

 Dipole moment (field-independent basis, Debye):
    X=              3.2709    Y=             -0.3935    Z=              2.5750  Tot=              4.1814
 Quadrupole moment (field-independent basis, Debye-Ang):
   XX=           -277.4443   YY=           -262.3980   ZZ=           -282.8668
   XY=             -0.4759   XZ=             39.6614   YZ=             -0.0383

 Normal termination of Gaussian 16 at Thu Aug  1 20:53:22 2019.
