 Gaussian 16, Revision A.03,
 Gaussian 16:  ES64L-G16RevA.03 25-Dec-2016

 -------------------------------------
 # td=(NStates=1) CAM-B3LYP/6-31G(d,p)
 -------------------------------------

 --
 TD
 --
 Symbolic Z-matrix:
 Charge =  0 Multiplicity = 1

                         Standard orientation:
 ---------------------------------------------------------------------
 Center     Atomic      Atomic             Coordinates (Angstroms)
 Number     Number       Type             X           Y           Z
 ---------------------------------------------------------------------
      1          8           0      -11.705983    0.140443   -1.628132
      2          8           0      -13.084809   -2.372206    1.579754
      3          8           0       10.713710   -1.347111   -2.052276
      4          8           0       14.583366   -0.848843    0.079827
      5          6           0      -11.052114   -0.222209   -0.363313
      6          6           0      -11.650874   -1.206968   -1.163574
      7          6           0      -11.900469    0.591217    0.874343
      8          6           0      -12.963297   -1.868827   -0.865758
      9          6           0      -13.313596   -0.044745    0.901857
     10          6           0      -13.547135   -1.467250    0.554518
     11          6           0      -10.794481   -2.018730   -2.105541
     12          6           0       -9.586183    0.034158   -0.279509
     13          6           0      -11.257736    0.220049    2.349432
     14          6           0      -11.802583    2.059481    0.658309
     15          6           0       -8.605578   -0.741566    0.133512
     16          6           0       -7.248479   -0.531811    0.229908
     17          6           0       -6.446988   -1.689221    0.671460
     18          6           0       -6.638398    0.698435   -0.084960
     19          6           0       -5.262712    0.937629   -0.180601
     20          6           0       11.868712    0.321322    1.247399
     21          6           0       11.742828   -0.705890   -1.165817
     22          6           0       12.739882   -0.966351    1.669396
     23          6           0       13.452151   -1.613596    0.457801
     24          6           0       12.437925   -1.902317   -0.650227
     25          6           0       11.141617    0.024468    0.013008
     26          6           0       10.843140    0.508559    2.427797
     27          6           0       12.938334    1.530606    1.146334
     28          6           0       12.604151    0.199429   -2.065234
     29          6           0       -4.746254    2.143988   -0.538289
     30          6           0        9.852074    0.453652   -0.114445
     31          6           0       -3.418169    2.514724   -0.551368
     32          6           0        8.596334    0.856155   -0.295958
     33          6           0       -3.111361    3.932741   -0.735049
     34          6           0       -2.344404    1.629816   -0.391922
     35          6           0        7.492689    0.039413   -0.066471
     36          6           0        7.690019   -1.352138    0.207903
     37          6           0        6.187296    0.509407   -0.179926
     38          6           0       -0.926052    1.754666   -0.330113
     39          6           0        4.998620   -0.161053   -0.123982
     40          6           0        0.099443    0.804548   -0.100622
     41          6           0        3.883828    0.692017   -0.213694
     42          6           0        1.369943    1.066582   -0.264820
     43          6           0        2.501928    0.235379   -0.106531
     44          6           0        2.343907   -1.234258    0.327452
     45          1           0      -12.948705   -2.923144   -1.003006
     46          1           0      -13.641478   -1.630936   -1.648199
     47          1           0      -13.888253    0.077276    1.970646
     48          1           0      -13.847002    0.544504    0.093112
     49          1           0      -14.617690   -1.632748    0.474374
     50          1           0      -10.752014   -2.966507   -1.556165
     51          1           0      -11.122815   -2.238482   -3.216211
     52          1           0       -9.862210   -1.441825   -2.271118
     53          1           0       -9.377309    1.062393   -0.728315
     54          1           0      -10.229781    0.650760    2.342485
     55          1           0      -11.788210    0.502089    3.216499
     56          1           0      -11.186654   -0.969343    2.304033
     57          1           0      -11.729396    2.010032   -0.593309
     58          1           0      -12.419645    2.545022    1.370523
     59          1           0      -10.915318    2.233244    0.974122
     60          1           0      -12.116516   -2.379284    1.560105
     61          1           0       -9.035463   -1.728303    0.278145
     62          1           0       -5.529792   -2.007621   -0.073528
     63          1           0       -5.885696   -1.530254    1.700218
     64          1           0       -6.852579   -2.652146    1.092529
     65          1           0       -7.248965    1.671930   -0.297144
     66          1           0       -4.566971    0.288760    0.106507
     67          1           0       13.516766   -0.815187    2.445332
     68          1           0       12.127829   -1.842659    2.090307
     69          1           0       13.772161   -2.523064    0.809131
     70          1           0       13.136792   -2.342705   -1.289147
     71          1           0       11.731130   -2.648117   -0.208267
     72          1           0       11.328228    0.601864    3.364548
     73          1           0       10.309970    1.542092    2.335867
     74          1           0       10.001010   -0.219263    2.515527
     75          1           0       13.872669    1.437429    0.510544
     76          1           0       12.283972    2.331457    0.618670
     77          1           0       13.166126    1.809320    2.232573
     78          1           0       12.905693   -0.352730   -2.990110
     79          1           0       12.060921    1.229438   -2.204848
     80          1           0       13.478304    0.428683   -1.508232
     81          1           0       -5.557860    2.933012   -0.779897
     82          1           0       10.018404   -0.697009   -1.978182
     83          1           0       15.244759   -0.815932    0.921301
     84          1           0        8.375357    1.842234   -0.579561
     85          1           0       -2.422061    4.250428    0.019983
     86          1           0       -2.550503    4.175524   -1.766612
     87          1           0       -4.009734    4.342445   -0.758903
     88          1           0       -2.392517    0.378781   -0.386695
     89          1           0        6.681544   -1.876680    0.606645
     90          1           0        8.339236   -2.029972   -0.621409
     91          1           0        8.347842   -1.459269    1.185568
     92          1           0        5.998203    1.676925   -0.458227
     93          1           0       -0.507155    2.872857   -0.137440
     94          1           0        4.966083   -1.259183   -0.113490
     95          1           0       -0.184104   -0.309250    0.073493
     96          1           0        4.080936    1.697409   -0.380568
     97          1           0        1.583106    2.152185   -0.503229
     98          1           0        1.321039   -1.325468    0.759022
     99          1           0        2.579278   -1.947866   -0.561098
    100          1           0        2.900994   -1.490469    1.211481
 ---------------------------------------------------------------------

 SCF Done:  E(RCAM-B3LYP) =  -1857.30359060     A.U. after   16 cycles

 Excitation energies and oscillator strengths:

 Excited State   1:      Singlet-A      1.8231 eV  680.07 nm  f=3.2135  <S**2>=0.000
     163 ->166        -0.12557
     164 ->165         0.70221
     164 <-165        -0.12059
 This state for optimization and/or second-order correction.
 Total Energy, E(TD-HF/TD-DFT) =  -1857.23659214
 Copying the excited state density for this state as the 1-particle RhoCI density.

 The electronic state is 1-A.
 Alpha  occ. eigenvalues --  -19.22709 -19.22181 -19.20961 -19.19783 -10.32621
 Alpha  occ. eigenvalues --  -10.31835 -10.31386 -10.30708 -10.29636 -10.29325
 Alpha  occ. eigenvalues --  -10.28776 -10.28508 -10.28499 -10.28254 -10.28196
 Alpha  occ. eigenvalues --  -10.28076 -10.28025 -10.27976 -10.27859 -10.27827
 Alpha  occ. eigenvalues --  -10.27756 -10.27371 -10.27172 -10.27115 -10.27057
 Alpha  occ. eigenvalues --  -10.27003 -10.26990 -10.26900 -10.26865 -10.26779
 Alpha  occ. eigenvalues --  -10.26539 -10.26479 -10.26184 -10.26008 -10.25946
 Alpha  occ. eigenvalues --  -10.25844 -10.25722 -10.25587 -10.25462 -10.25134
 Alpha  occ. eigenvalues --  -10.25106 -10.24457 -10.24408 -10.23742  -1.15495
 Alpha  occ. eigenvalues --   -1.08980  -1.08688  -1.07443  -0.93613  -0.93387
 Alpha  occ. eigenvalues --   -0.92543  -0.92051  -0.91294  -0.89639  -0.88499
 Alpha  occ. eigenvalues --   -0.86943  -0.86645  -0.86256  -0.84703  -0.83499
 Alpha  occ. eigenvalues --   -0.82981  -0.81306  -0.80488  -0.79169  -0.76929
 Alpha  occ. eigenvalues --   -0.76873  -0.76470  -0.75828  -0.75402  -0.75292
 Alpha  occ. eigenvalues --   -0.74941  -0.74921  -0.72576  -0.70866  -0.69944
 Alpha  occ. eigenvalues --   -0.68589  -0.67522  -0.66614  -0.65317  -0.64001
 Alpha  occ. eigenvalues --   -0.63677  -0.62141  -0.61105  -0.60492  -0.60246
 Alpha  occ. eigenvalues --   -0.58767  -0.58055  -0.57747  -0.57632  -0.56881
 Alpha  occ. eigenvalues --   -0.56697  -0.55502  -0.55259  -0.54613  -0.54140
 Alpha  occ. eigenvalues --   -0.53503  -0.53015  -0.52338  -0.52075  -0.51682
 Alpha  occ. eigenvalues --   -0.50975  -0.50923  -0.50746  -0.50063  -0.49213
 Alpha  occ. eigenvalues --   -0.49075  -0.48703  -0.48622  -0.48359  -0.48148
 Alpha  occ. eigenvalues --   -0.47917  -0.47619  -0.47503  -0.47338  -0.47000
 Alpha  occ. eigenvalues --   -0.46691  -0.46354  -0.46209  -0.45832  -0.45402
 Alpha  occ. eigenvalues --   -0.45027  -0.44726  -0.44643  -0.44513  -0.43946
 Alpha  occ. eigenvalues --   -0.43761  -0.43567  -0.43547  -0.43152  -0.42656
 Alpha  occ. eigenvalues --   -0.42546  -0.42380  -0.41792  -0.41724  -0.41069
 Alpha  occ. eigenvalues --   -0.40947  -0.40894  -0.40698  -0.40457  -0.40009
 Alpha  occ. eigenvalues --   -0.39581  -0.39310  -0.39238  -0.39044  -0.38917
 Alpha  occ. eigenvalues --   -0.38728  -0.38244  -0.37469  -0.37351  -0.36654
 Alpha  occ. eigenvalues --   -0.36130  -0.36052  -0.35111  -0.34568  -0.34206
 Alpha  occ. eigenvalues --   -0.32678  -0.32340  -0.32086  -0.31661  -0.31512
 Alpha  occ. eigenvalues --   -0.29420  -0.27965  -0.24388  -0.19132
 Alpha virt. eigenvalues --   -0.07763  -0.01877   0.02402   0.04948   0.06953
 Alpha virt. eigenvalues --    0.08566   0.09445   0.10167   0.11396   0.11783
 Alpha virt. eigenvalues --    0.12140   0.12385   0.12919   0.13261   0.13767

 Mulliken charges:
               1
     1  O   -0.504695
     2  O   -0.547499
     3  O   -0.569777
     4  O   -0.557398
     5  C    0.119668
     6  C    0.262126
     7  C    0.029144
     8  C   -0.229917
     9  C   -0.169575
    10  C    0.143393
    11  C   -0.326110
    12  C   -0.099691
    13  C   -0.302849
    14  C   -0.304631
    15  C   -0.079136
    16  C    0.128486
    17  C   -0.390949
    18  C   -0.136628
    19  C   -0.009628
    20  C    0.027363
    21  C    0.224658
    22  C   -0.186162
    23  C    0.140741
    24  C   -0.166711
    25  C   -0.027993
    26  C   -0.314920
    27  C   -0.307862
    28  C   -0.303925
    29  C   -0.136159
    30  C    0.081753
    31  C    0.097036
    32  C   -0.260399
    33  C   -0.352631
    34  C   -0.114374
    35  C    0.157825
    36  C   -0.388971
    37  C   -0.113891
    38  C   -0.109930
    39  C   -0.060422
    40  C   -0.075805
    41  C   -0.114699
    42  C   -0.085523
    43  C    0.064855
    44  C   -0.371154
    45  H    0.112147
    46  H    0.123991
    47  H    0.084289
    48  H    0.099099
    49  H    0.106339
    50  H    0.096721
    51  H    0.108713
    52  H    0.122107
    53  H    0.094666
    54  H    0.102372
    55  H    0.120357
    56  H    0.050865
    57  H    0.127488
    58  H    0.111824
    59  H    0.113685
    60  H    0.301304
    61  H    0.075416
    62  H    0.105373
    63  H    0.108563
    64  H    0.120019
    65  H    0.086204
    66  H    0.080109
    67  H    0.068438
    68  H    0.079082
    69  H    0.083288
    70  H    0.115941
    71  H    0.116350
    72  H    0.103067
    73  H    0.090434
    74  H    0.117138
    75  H    0.134846
    76  H    0.091929
    77  H    0.098978
    78  H    0.120551
    79  H    0.084255
    80  H    0.135983
    81  H    0.076416
    82  H    0.295135
    83  H    0.313827
    84  H    0.110735
    85  H    0.131183
    86  H    0.107555
    87  H    0.114104
    88  H    0.058834
    89  H    0.088785
    90  H    0.119936
    91  H    0.103833
    92  H    0.066398
    93  H    0.059717
    94  H    0.109785
    95  H    0.083846
    96  H    0.083593
    97  H    0.078499
    98  H    0.102561
    99  H    0.118465
   100  H    0.127828
 Sum of Mulliken charges =  -0.00000

 Dipole moment (field-independent basis, Debye):
    X=              3.0108    Y=              0.1136    Z=              3.1669  Tot=              4.3712
 Quadrupole moment (field-independent basis, Debye-Ang):
   XX=           -280.2940   YY=           -262.4942   ZZ=           -279.4920
   XY=              1.8695   XZ=             38.7997   YZ=             -1.8233

 Normal termination of Gaussian 16 at Tue Jul 30 03:59:31 2019.
