 Gaussian 16, Revision A.03,
 Gaussian 16:  ES64L-G16RevA.03 25-Dec-2016

 -------------------------------------
 # td=(NStates=1) CAM-B3LYP/6-31G(d,p)
 -------------------------------------

 --
 TD
 --
 Symbolic Z-matrix:
 Charge =  0 Multiplicity = 1

                         Standard orientation:
 ---------------------------------------------------------------------
 Center     Atomic      Atomic             Coordinates (Angstroms)
 Number     Number       Type             X           Y           Z
 ---------------------------------------------------------------------
      1          8           0      -11.749976    0.446891   -1.411543
      2          8           0      -12.961703   -2.634338    1.290982
      3          8           0       10.602472   -0.980090   -2.080366
      4          8           0       14.548121   -0.856438   -0.021984
      5          6           0      -10.930892   -0.073093   -0.277475
      6          6           0      -11.658304   -0.936132   -1.302533
      7          6           0      -11.603432    0.160681    1.136391
      8          6           0      -12.961451   -1.682128   -0.940265
      9          6           0      -13.171504   -0.180907    1.077355
     10          6           0      -13.482251   -1.555189    0.535483
     11          6           0      -10.811507   -1.627377   -2.394969
     12          6           0       -9.509453    0.107558   -0.326637
     13          6           0      -10.919637   -0.483776    2.332657
     14          6           0      -11.587477    1.763049    1.246216
     15          6           0       -8.543406   -0.791481   -0.099498
     16          6           0       -7.152246   -0.658599   -0.077998
     17          6           0       -6.327153   -1.879205    0.016519
     18          6           0       -6.566328    0.658998   -0.111988
     19          6           0       -5.211440    1.000386   -0.196885
     20          6           0       11.721940   -0.022071    1.411509
     21          6           0       11.685462   -0.547131   -1.196908
     22          6           0       12.489303   -1.355532    1.533751
     23          6           0       13.332615   -1.789978    0.351606
     24          6           0       12.539111   -1.797448   -0.961724
     25          6           0       11.024024   -0.009417    0.075973
     26          6           0       10.715145    0.090615    2.604357
     27          6           0       12.789169    1.141920    1.554228
     28          6           0       12.400019    0.534401   -1.993108
     29          6           0       -4.697090    2.256866   -0.241041
     30          6           0        9.844363    0.355633   -0.018913
     31          6           0       -3.326004    2.656140   -0.398690
     32          6           0        8.605043    0.927897   -0.211917
     33          6           0       -3.007597    4.131361   -0.486455
     34          6           0       -2.366637    1.777730   -0.182661
     35          6           0        7.384970    0.062583   -0.146001
     36          6           0        7.721741   -1.352348    0.002894
     37          6           0        6.137571    0.626640   -0.226183
     38          6           0       -0.923065    1.969277   -0.279425
     39          6           0        4.785119    0.065306   -0.035709
     40          6           0        0.037529    0.961018   -0.088434
     41          6           0        3.744602    0.884175   -0.193582
     42          6           0        1.402983    1.110165   -0.270652
     43          6           0        2.428491    0.233080   -0.040723
     44          6           0        2.201724   -1.152880    0.268189
     45          1           0      -12.770406   -2.781266   -0.865119
     46          1           0      -13.722123   -1.330891   -1.669568
     47          1           0      -13.596770   -0.090218    2.136143
     48          1           0      -13.481454    0.701274    0.388562
     49          1           0      -14.615258   -1.671668    0.484931
     50          1           0      -10.278078   -2.547859   -2.059620
     51          1           0      -11.392665   -1.869016   -3.328032
     52          1           0      -10.029075   -1.022326   -2.700723
     53          1           0       -9.325346    1.345177   -0.319560
     54          1           0       -9.828447    0.088050    2.376062
     55          1           0      -11.216066   -0.111819    3.237565
     56          1           0      -10.743247   -1.513500    2.305408
     57          1           0      -12.050570    2.079912    0.250401
     58          1           0      -12.189192    2.038663    2.210871
     59          1           0      -10.570988    2.088444    1.179090
     60          1           0      -11.958926   -2.733489    1.063985
     61          1           0       -8.773069   -1.792472    0.039355
     62          1           0       -5.607702   -2.022911   -0.781487
     63          1           0       -5.486537   -1.614468    0.602544
     64          1           0       -6.894294   -2.645061    0.157158
     65          1           0       -7.334736    1.616607   -0.057835
     66          1           0       -4.396042    0.144825   -0.205232
     67          1           0       13.028284   -1.078416    2.508334
     68          1           0       11.733948   -2.231139    1.648871
     69          1           0       13.688354   -2.718119    0.507009
     70          1           0       13.286887   -1.922197   -1.799070
     71          1           0       11.628725   -2.596601   -0.872105
     72          1           0       11.224406    0.171514    3.594357
     73          1           0       10.209315    1.028533    2.379141
     74          1           0        9.945940   -0.714284    2.620048
     75          1           0       13.424632    0.998352    0.648509
     76          1           0       12.284108    2.048037    1.442735
     77          1           0       13.313646    1.073634    2.569527
     78          1           0       12.977706    0.055331   -2.996473
     79          1           0       11.632342    1.310889   -2.393616
     80          1           0       12.986901    1.093327   -1.146942
     81          1           0       -5.375570    3.075184   -0.618484
     82          1           0       10.151836   -0.200250   -2.359801
     83          1           0       15.144767   -1.029087    0.790226
     84          1           0        8.560358    1.945549   -0.444395
     85          1           0       -2.538916    4.393571    0.463898
     86          1           0       -2.387354    4.288868   -1.407562
     87          1           0       -4.024358    4.777107   -0.419215
     88          1           0       -2.348146    0.556208    0.335292
     89          1           0        6.919221   -2.103908   -0.277471
     90          1           0        8.402686   -1.718163   -0.797724
     91          1           0        7.812849   -1.661629    0.939294
     92          1           0        6.083442    1.693470   -0.240554
     93          1           0       -0.628132    3.093265   -0.402782
     94          1           0        4.601262   -0.926808    0.242460
     95          1           0       -0.527221    0.087107    0.029470
     96          1           0        3.886277    1.952729   -0.397794
     97          1           0        1.735763    2.079842   -0.513597
     98          1           0        1.196516   -1.288644    0.407979
     99          1           0        2.632684   -1.795393   -0.553922
    100          1           0        2.682221   -1.386803    1.172205
 ---------------------------------------------------------------------

 SCF Done:  E(RCAM-B3LYP) =  -1857.33869258     A.U. after   15 cycles

 Excitation energies and oscillator strengths:

 Excited State   1:      Singlet-A      2.3597 eV  525.42 nm  f=2.7185  <S**2>=0.000
     163 ->166         0.14924
     164 ->165         0.68697
 This state for optimization and/or second-order correction.
 Total Energy, E(TD-HF/TD-DFT) =  -1857.25197496
 Copying the excited state density for this state as the 1-particle RhoCI density.

 The electronic state is 1-A.
 Alpha  occ. eigenvalues --  -19.22650 -19.22447 -19.22127 -19.20171 -10.32188
 Alpha  occ. eigenvalues --  -10.32067 -10.31804 -10.31428 -10.30762 -10.28208
 Alpha  occ. eigenvalues --  -10.28030 -10.27722 -10.27673 -10.27560 -10.27548
 Alpha  occ. eigenvalues --  -10.27429 -10.27364 -10.27326 -10.27324 -10.27279
 Alpha  occ. eigenvalues --  -10.27176 -10.27090 -10.27058 -10.26996 -10.26950
 Alpha  occ. eigenvalues --  -10.26499 -10.26448 -10.26374 -10.26310 -10.26079
 Alpha  occ. eigenvalues --  -10.25808 -10.25722 -10.25599 -10.25554 -10.25449
 Alpha  occ. eigenvalues --  -10.25326 -10.25155 -10.25028 -10.25014 -10.24941
 Alpha  occ. eigenvalues --  -10.24786 -10.24775 -10.24359 -10.23800  -1.14744
 Alpha  occ. eigenvalues --   -1.09252  -1.08994  -1.05755  -0.93674  -0.92904
 Alpha  occ. eigenvalues --   -0.92521  -0.91563  -0.90119  -0.89431  -0.87435
 Alpha  occ. eigenvalues --   -0.86301  -0.85876  -0.85404  -0.84717  -0.83939
 Alpha  occ. eigenvalues --   -0.83126  -0.80651  -0.80304  -0.79035  -0.77278
 Alpha  occ. eigenvalues --   -0.77230  -0.76398  -0.76262  -0.76056  -0.75501
 Alpha  occ. eigenvalues --   -0.75160  -0.74770  -0.73440  -0.70361  -0.69755
 Alpha  occ. eigenvalues --   -0.68390  -0.66225  -0.64863  -0.64618  -0.63513
 Alpha  occ. eigenvalues --   -0.62657  -0.62104  -0.61430  -0.60461  -0.59497
 Alpha  occ. eigenvalues --   -0.58317  -0.58072  -0.57448  -0.56823  -0.56296
 Alpha  occ. eigenvalues --   -0.55849  -0.55426  -0.55083  -0.54553  -0.53689
 Alpha  occ. eigenvalues --   -0.53264  -0.52910  -0.52560  -0.51961  -0.51765
 Alpha  occ. eigenvalues --   -0.51056  -0.50716  -0.50708  -0.50257  -0.50170
 Alpha  occ. eigenvalues --   -0.50069  -0.49707  -0.49486  -0.49420  -0.49012
 Alpha  occ. eigenvalues --   -0.48303  -0.48181  -0.47537  -0.47326  -0.47082
 Alpha  occ. eigenvalues --   -0.46664  -0.46279  -0.46033  -0.45880  -0.45717
 Alpha  occ. eigenvalues --   -0.45648  -0.45446  -0.44548  -0.44214  -0.43691
 Alpha  occ. eigenvalues --   -0.43130  -0.43009  -0.42810  -0.42788  -0.42714
 Alpha  occ. eigenvalues --   -0.42187  -0.41887  -0.41771  -0.41169  -0.41080
 Alpha  occ. eigenvalues --   -0.40726  -0.40510  -0.40436  -0.40211  -0.39816
 Alpha  occ. eigenvalues --   -0.39611  -0.39441  -0.38970  -0.38832  -0.38598
 Alpha  occ. eigenvalues --   -0.38371  -0.37816  -0.37472  -0.37228  -0.37071
 Alpha  occ. eigenvalues --   -0.36397  -0.35466  -0.34343  -0.34009  -0.33634
 Alpha  occ. eigenvalues --   -0.33281  -0.32691  -0.32417  -0.31683  -0.30971
 Alpha  occ. eigenvalues --   -0.30503  -0.27374  -0.23927  -0.20256
 Alpha virt. eigenvalues --   -0.05342  -0.00815   0.03127   0.07108   0.07886
 Alpha virt. eigenvalues --    0.09264   0.09364   0.09807   0.10144   0.10759
 Alpha virt. eigenvalues --    0.11895   0.13153   0.13364   0.13620   0.14196

 Mulliken charges:
               1
     1  O   -0.505738
     2  O   -0.551852
     3  O   -0.562085
     4  O   -0.563187
     5  C    0.170384
     6  C    0.257564
     7  C   -0.000241
     8  C   -0.238174
     9  C   -0.166689
    10  C    0.168643
    11  C   -0.335876
    12  C   -0.091937
    13  C   -0.287419
    14  C   -0.318137
    15  C   -0.064415
    16  C    0.087429
    17  C   -0.363524
    18  C   -0.115762
    19  C   -0.060674
    20  C   -0.015530
    21  C    0.248562
    22  C   -0.173825
    23  C    0.121742
    24  C   -0.189476
    25  C   -0.091725
    26  C   -0.301239
    27  C   -0.315119
    28  C   -0.273452
    29  C   -0.120051
    30  C    0.170916
    31  C    0.052884
    32  C   -0.247952
    33  C   -0.364800
    34  C   -0.081133
    35  C    0.101141
    36  C   -0.396017
    37  C   -0.134731
    38  C   -0.101559
    39  C   -0.076110
    40  C   -0.087413
    41  C   -0.093041
    42  C   -0.120474
    43  C    0.108230
    44  C   -0.374715
    45  H    0.105331
    46  H    0.113401
    47  H    0.088446
    48  H    0.106081
    49  H    0.095929
    50  H    0.094796
    51  H    0.104263
    52  H    0.130955
    53  H    0.083775
    54  H    0.070575
    55  H    0.121939
    56  H    0.096115
    57  H    0.127365
    58  H    0.095872
    59  H    0.098948
    60  H    0.307455
    61  H    0.063706
    62  H    0.129082
    63  H    0.133514
    64  H    0.107435
    65  H    0.071933
    66  H    0.072306
    67  H    0.083454
    68  H    0.095138
    69  H    0.111595
    70  H    0.123076
    71  H    0.109542
    72  H    0.092192
    73  H    0.113785
    74  H    0.104266
    75  H    0.140996
    76  H    0.108272
    77  H    0.088953
    78  H    0.100474
    79  H    0.079423
    80  H    0.104331
    81  H    0.078551
    82  H    0.299888
    83  H    0.305769
    84  H    0.106918
    85  H    0.140930
    86  H    0.130270
    87  H    0.096402
    88  H    0.054244
    89  H    0.088861
    90  H    0.146416
    91  H    0.133927
    92  H    0.069377
    93  H    0.070086
    94  H    0.082036
    95  H    0.073649
    96  H    0.095589
    97  H    0.075190
    98  H    0.118941
    99  H    0.124925
   100  H    0.129887
 Sum of Mulliken charges =  -0.00000

 Dipole moment (field-independent basis, Debye):
    X=              4.7665    Y=             -0.8700    Z=              2.1024  Tot=              5.2817
 Quadrupole moment (field-independent basis, Debye-Ang):
   XX=           -295.9090   YY=           -259.1037   ZZ=           -276.0357
   XY=             -5.9363   XZ=             27.8037   YZ=             -1.8346

 Normal termination of Gaussian 16 at Mon Jul 29 03:56:55 2019.
