 Gaussian 16, Revision A.03,
 Gaussian 16:  ES64L-G16RevA.03 25-Dec-2016

 -------------------------------------
 # td=(NStates=1) CAM-B3LYP/6-31G(d,p)
 -------------------------------------

 --
 TD
 --
 Symbolic Z-matrix:
 Charge =  0 Multiplicity = 1

                         Standard orientation:
 ---------------------------------------------------------------------
 Center     Atomic      Atomic             Coordinates (Angstroms)
 Number     Number       Type             X           Y           Z
 ---------------------------------------------------------------------
      1          8           0      -11.877674    0.394894   -1.396597
      2          8           0      -13.003190   -2.533817    1.339629
      3          8           0       10.548675   -0.816392   -2.142655
      4          8           0       14.472638   -0.991537   -0.157397
      5          6           0      -11.076162   -0.154406   -0.279463
      6          6           0      -11.716628   -1.024468   -1.256141
      7          6           0      -11.676468    0.268385    1.135276
      8          6           0      -13.036063   -1.573190   -0.877693
      9          6           0      -13.151147   -0.079057    1.192289
     10          6           0      -13.489669   -1.561756    0.585913
     11          6           0      -11.037884   -1.780947   -2.313694
     12          6           0       -9.555636    0.061649   -0.479882
     13          6           0      -10.898140   -0.450171    2.349645
     14          6           0      -11.496522    1.812429    1.230095
     15          6           0       -8.617981   -0.842000    0.121954
     16          6           0       -7.095895   -0.516872   -0.117882
     17          6           0       -6.348926   -1.804596    0.031352
     18          6           0       -6.644389    0.658285   -0.211174
     19          6           0       -5.186233    0.920053   -0.310721
     20          6           0       12.020776   -0.113074    1.313431
     21          6           0       11.619981   -0.543514   -1.229429
     22          6           0       12.764349   -1.505809    1.460268
     23          6           0       13.384449   -1.873620    0.160425
     24          6           0       12.287495   -1.931866   -0.980069
     25          6           0       11.009725   -0.005143    0.060386
     26          6           0       11.061373    0.038592    2.618933
     27          6           0       12.875440    1.167837    1.502704
     28          6           0       12.539177    0.568044   -1.853643
     29          6           0       -4.673841    2.208660   -0.336276
     30          6           0        9.899085    0.626553    0.097551
     31          6           0       -3.406938    2.578374   -0.342229
     32          6           0        8.639471    0.973071    0.021247
     33          6           0       -2.999953    4.052875   -0.599060
     34          6           0       -2.221886    1.684866   -0.339477
     35          6           0        7.394908    0.087692    0.047091
     36          6           0        7.583165   -1.322677    0.135346
     37          6           0        6.135175    0.739108   -0.121617
     38          6           0       -0.913820    2.065998   -0.283554
     39          6           0        4.904405    0.078509    0.078815
     40          6           0        0.012677    0.934546   -0.215595
     41          6           0        3.724085    0.786289   -0.109171
     42          6           0        1.400776    1.214467   -0.282761
     43          6           0        2.422136    0.324551   -0.045000
     44          6           0        2.299447   -1.147751   -0.006311
     45          1           0      -13.089026   -2.776195   -1.109815
     46          1           0      -13.758513   -1.061705   -1.523467
     47          1           0      -13.512125    0.149347    2.146256
     48          1           0      -13.611874    0.656991    0.330165
     49          1           0      -14.599361   -1.462019    0.642270
     50          1           0      -10.843092   -2.876178   -2.088080
     51          1           0      -11.792513   -1.782575   -3.208426
     52          1           0      -10.031290   -1.267021   -2.476841
     53          1           0       -9.481474    0.969368   -1.227192
     54          1           0       -9.874162   -0.130014    2.405187
     55          1           0      -11.473888   -0.222006    3.178257
     56          1           0      -10.951594   -1.485595    2.061498
     57          1           0      -11.883002    2.062984    0.232432
     58          1           0      -11.945801    2.249864    2.363872
     59          1           0      -10.432092    2.250696    1.466405
     60          1           0      -12.039130   -2.717779    1.167045
     61          1           0       -8.953862   -1.939633    0.550631
     62          1           0       -5.760883   -2.040244   -0.758652
     63          1           0       -5.617748   -1.790986    0.985688
     64          1           0       -7.029244   -2.439184    0.112795
     65          1           0       -7.430305    1.565727   -0.091991
     66          1           0       -4.523677    0.087435   -0.165493
     67          1           0       13.197627   -1.225206    2.453401
     68          1           0       11.927800   -2.215640    1.550003
     69          1           0       13.777112   -2.965490    0.087852
     70          1           0       12.624864   -2.190707   -2.023141
     71          1           0       11.457060   -2.724473   -0.774563
     72          1           0       11.656724    0.006653    3.430127
     73          1           0       10.620625    1.011929    2.687098
     74          1           0       10.153741   -0.696811    2.735092
     75          1           0       13.731609    1.299180    0.550112
     76          1           0       12.142123    2.093762    1.439840
     77          1           0       13.285749    1.177399    2.488827
     78          1           0       12.853836    0.381168   -2.902305
     79          1           0       11.839536    1.493870   -1.978773
     80          1           0       13.380974    0.674547   -1.098206
     81          1           0       -5.349566    3.004310   -0.527208
     82          1           0        9.957862   -0.046645   -2.381042
     83          1           0       15.111927   -1.080824    0.568025
     84          1           0        8.425526    1.882878    0.121268
     85          1           0       -2.467986    4.330509    0.368244
     86          1           0       -2.325491    4.227528   -1.349154
     87          1           0       -3.918173    4.579831   -0.706928
     88          1           0       -2.230805    0.439120   -0.288465
     89          1           0        6.783710   -1.854696    0.257107
     90          1           0        8.227006   -1.507707   -0.679721
     91          1           0        7.955397   -1.479014    1.178162
     92          1           0        6.110176    1.794867   -0.201361
     93          1           0       -0.565442    3.092087   -0.254412
     94          1           0        4.936611   -0.892827    0.214127
     95          1           0       -0.294061   -0.163596   -0.084560
     96          1           0        3.795960    1.916418   -0.190776
     97          1           0        1.650821    2.253073   -0.271418
     98          1           0        1.287517   -1.413313   -0.119403
     99          1           0        2.747501   -1.768109   -0.730935
    100          1           0        2.619718   -1.580037    0.985405
 ---------------------------------------------------------------------

 SCF Done:  E(RCAM-B3LYP) =  -1857.24528739     A.U. after   15 cycles

 Excitation energies and oscillator strengths:

 Excited State   1:      Singlet-A      1.9056 eV  650.65 nm  f=2.8656  <S**2>=0.000
     163 ->166         0.10894
     164 ->165         0.70904
     164 <-165        -0.14095
 This state for optimization and/or second-order correction.
 Total Energy, E(TD-HF/TD-DFT) =  -1857.17525946
 Copying the excited state density for this state as the 1-particle RhoCI density.

 The electronic state is 1-A.
 Alpha  occ. eigenvalues --  -19.22580 -19.22459 -19.22149 -19.20301 -10.33093
 Alpha  occ. eigenvalues --  -10.31942 -10.31807 -10.31432 -10.31010 -10.29964
 Alpha  occ. eigenvalues --  -10.29233 -10.28805 -10.27900 -10.27842 -10.27602
 Alpha  occ. eigenvalues --  -10.27408 -10.27332 -10.27213 -10.27057 -10.26979
 Alpha  occ. eigenvalues --  -10.26884 -10.26847 -10.26574 -10.26506 -10.26442
 Alpha  occ. eigenvalues --  -10.26418 -10.26379 -10.25975 -10.25899 -10.25852
 Alpha  occ. eigenvalues --  -10.25718 -10.25605 -10.25470 -10.25340 -10.25098
 Alpha  occ. eigenvalues --  -10.25005 -10.24985 -10.24951 -10.24788 -10.24586
 Alpha  occ. eigenvalues --  -10.24404 -10.23995 -10.23775 -10.23345  -1.14516
 Alpha  occ. eigenvalues --   -1.12831  -1.10494  -1.07906  -0.92553  -0.92103
 Alpha  occ. eigenvalues --   -0.91822  -0.90755  -0.90236  -0.89120  -0.87292
 Alpha  occ. eigenvalues --   -0.86403  -0.85919  -0.85121  -0.83912  -0.83308
 Alpha  occ. eigenvalues --   -0.81875  -0.81315  -0.80043  -0.79132  -0.77833
 Alpha  occ. eigenvalues --   -0.77522  -0.76298  -0.75959  -0.75639  -0.74506
 Alpha  occ. eigenvalues --   -0.74375  -0.73285  -0.72124  -0.70575  -0.69780
 Alpha  occ. eigenvalues --   -0.69113  -0.66681  -0.64845  -0.63839  -0.63539
 Alpha  occ. eigenvalues --   -0.63215  -0.62756  -0.61647  -0.61074  -0.59492
 Alpha  occ. eigenvalues --   -0.58919  -0.58591  -0.57378  -0.57161  -0.56432
 Alpha  occ. eigenvalues --   -0.55918  -0.54886  -0.54755  -0.54580  -0.54084
 Alpha  occ. eigenvalues --   -0.53535  -0.52953  -0.52750  -0.52034  -0.51619
 Alpha  occ. eigenvalues --   -0.51467  -0.50902  -0.50516  -0.50470  -0.49224
 Alpha  occ. eigenvalues --   -0.49160  -0.49075  -0.48567  -0.48478  -0.48260
 Alpha  occ. eigenvalues --   -0.47968  -0.47704  -0.47584  -0.47450  -0.47320
 Alpha  occ. eigenvalues --   -0.47107  -0.46917  -0.46181  -0.45963  -0.45704
 Alpha  occ. eigenvalues --   -0.45428  -0.44654  -0.44519  -0.44292  -0.44123
 Alpha  occ. eigenvalues --   -0.43945  -0.43739  -0.43618  -0.42715  -0.42593
 Alpha  occ. eigenvalues --   -0.42429  -0.42210  -0.41829  -0.41199  -0.41148
 Alpha  occ. eigenvalues --   -0.40576  -0.40490  -0.40254  -0.40018  -0.39785
 Alpha  occ. eigenvalues --   -0.39565  -0.39075  -0.38882  -0.38429  -0.38226
 Alpha  occ. eigenvalues --   -0.37739  -0.37702  -0.37097  -0.36953  -0.36527
 Alpha  occ. eigenvalues --   -0.36002  -0.35276  -0.34797  -0.34383  -0.33663
 Alpha  occ. eigenvalues --   -0.32582  -0.32262  -0.31784  -0.31244  -0.30013
 Alpha  occ. eigenvalues --   -0.29380  -0.28112  -0.24183  -0.18168
 Alpha virt. eigenvalues --   -0.06562   0.00161   0.02714   0.05859   0.07464
 Alpha virt. eigenvalues --    0.08682   0.10060   0.10473   0.11919   0.12008
 Alpha virt. eigenvalues --    0.12102   0.12348   0.13050   0.13573   0.14102

 Mulliken charges:
               1
     1  O   -0.520353
     2  O   -0.506775
     3  O   -0.590934
     4  O   -0.547255
     5  C    0.150282
     6  C    0.281053
     7  C    0.016122
     8  C   -0.220154
     9  C   -0.194395
    10  C    0.170011
    11  C   -0.327962
    12  C   -0.110095
    13  C   -0.282982
    14  C   -0.293947
    15  C   -0.142621
    16  C    0.087693
    17  C   -0.332871
    18  C   -0.108657
    19  C   -0.098140
    20  C   -0.023430
    21  C    0.248037
    22  C   -0.171524
    23  C    0.143783
    24  C   -0.203264
    25  C   -0.036529
    26  C   -0.313682
    27  C   -0.278000
    28  C   -0.291868
    29  C   -0.097856
    30  C    0.107992
    31  C    0.045806
    32  C   -0.219731
    33  C   -0.365174
    34  C   -0.102205
    35  C    0.073534
    36  C   -0.347792
    37  C   -0.112198
    38  C   -0.069409
    39  C   -0.061708
    40  C   -0.110289
    41  C   -0.127171
    42  C   -0.128523
    43  C    0.134560
    44  C   -0.382995
    45  H    0.065618
    46  H    0.123582
    47  H    0.095192
    48  H    0.080721
    49  H    0.101668
    50  H    0.105295
    51  H    0.112062
    52  H    0.116908
    53  H    0.134999
    54  H    0.117926
    55  H    0.112108
    56  H    0.054257
    57  H    0.134062
    58  H    0.062734
    59  H    0.092344
    60  H    0.314432
    61  H    0.095483
    62  H    0.127730
    63  H    0.099071
    64  H    0.101621
    65  H    0.084237
    66  H    0.090061
    67  H    0.102977
    68  H    0.111865
    69  H    0.077729
    70  H    0.125145
    71  H    0.116484
    72  H    0.096199
    73  H    0.112305
    74  H    0.090005
    75  H    0.085575
    76  H    0.101930
    77  H    0.101330
    78  H    0.106619
    79  H    0.076456
    80  H    0.131273
    81  H    0.076108
    82  H    0.310175
    83  H    0.314595
    84  H    0.079003
    85  H    0.114223
    86  H    0.135635
    87  H    0.106487
    88  H    0.064173
    89  H    0.108420
    90  H    0.146643
    91  H    0.113020
    92  H    0.075708
    93  H    0.099311
    94  H    0.071169
    95  H    0.097193
    96  H    0.065809
    97  H    0.079691
    98  H    0.099835
    99  H    0.133331
   100  H    0.113086
 Sum of Mulliken charges =  -0.00000

 Dipole moment (field-independent basis, Debye):
    X=              4.4599    Y=             -1.7088    Z=              1.9923  Tot=              5.1749
 Quadrupole moment (field-independent basis, Debye-Ang):
   XX=           -281.0881   YY=           -257.9441   ZZ=           -276.1883
   XY=              2.0305   XZ=             32.5509   YZ=             -0.3652

 Normal termination of Gaussian 16 at Mon Jul 29 04:02:57 2019.
