 Gaussian 16, Revision A.03,
 Gaussian 16:  ES64L-G16RevA.03 25-Dec-2016

 -------------------------------------
 # td=(NStates=1) CAM-B3LYP/6-31G(d,p)
 -------------------------------------

 --
 TD
 --
 Symbolic Z-matrix:
 Charge =  0 Multiplicity = 1

                         Standard orientation:
 ---------------------------------------------------------------------
 Center     Atomic      Atomic             Coordinates (Angstroms)
 Number     Number       Type             X           Y           Z
 ---------------------------------------------------------------------
      1          8           0      -11.606955    0.023245   -1.664828
      2          8           0      -12.724346   -2.552377    1.424491
      3          8           0       10.503637   -1.350159   -1.960782
      4          8           0       14.453628   -1.111087   -0.068304
      5          6           0      -11.011504   -0.175525   -0.330773
      6          6           0      -11.592116   -1.326552   -1.169104
      7          6           0      -11.825453    0.311832    0.745453
      8          6           0      -12.910141   -1.970435   -0.907636
      9          6           0      -13.274459   -0.196993    0.821863
     10          6           0      -13.434908   -1.688501    0.451204
     11          6           0      -10.604839   -2.176667   -2.088038
     12          6           0       -9.567869    0.123807   -0.364968
     13          6           0      -11.110646   -0.020028    2.179270
     14          6           0      -11.773210    1.834571    0.781332
     15          6           0       -8.653530   -0.709773    0.171068
     16          6           0       -7.175941   -0.405364    0.190585
     17          6           0       -6.341047   -1.548245    0.677507
     18          6           0       -6.662600    0.816470   -0.066400
     19          6           0       -5.222072    1.139209   -0.184646
     20          6           0       11.909228    0.134595    1.238489
     21          6           0       11.611887   -0.891290   -1.255875
     22          6           0       12.660533   -1.213757    1.508780
     23          6           0       13.292023   -1.880111    0.253313
     24          6           0       12.365510   -2.125331   -0.772082
     25          6           0       11.049543   -0.100126   -0.026167
     26          6           0       11.088631    0.574689    2.397436
     27          6           0       12.816960    1.304937    1.068334
     28          6           0       12.438439    0.003654   -2.210111
     29          6           0       -4.751449    2.351725   -0.454503
     30          6           0        9.910468    0.460512   -0.119227
     31          6           0       -3.389410    2.599647   -0.410335
     32          6           0        8.669735    0.963406   -0.303122
     33          6           0       -2.977813    4.060924   -0.900498
     34          6           0       -2.381710    1.619136   -0.103345
     35          6           0        7.388576    0.266363   -0.078431
     36          6           0        7.510524   -1.207557    0.556887
     37          6           0        6.150579    0.801925   -0.252295
     38          6           0       -0.981777    1.946034   -0.117835
     39          6           0        4.889011    0.273667   -0.006193
     40          6           0       -0.018401    1.038468    0.017904
     41          6           0        3.680033    0.931719   -0.233874
     42          6           0        1.383321    1.277241   -0.224276
     43          6           0        2.469537    0.393501    0.004389
     44          6           0        2.340296   -0.872665    0.900649
     45          1           0      -12.584631   -3.046083   -1.025441
     46          1           0      -13.635557   -1.726506   -1.776388
     47          1           0      -13.640244   -0.128184    1.710802
     48          1           0      -13.869760    0.307150    0.022173
     49          1           0      -14.542436   -2.246615    0.344712
     50          1           0      -10.345798   -3.128740   -1.497582
     51          1           0      -11.038260   -2.561576   -3.045629
     52          1           0       -9.808150   -1.647999   -2.300584
     53          1           0       -9.111551    0.943733   -0.765975
     54          1           0      -10.138937    0.574653    2.311922
     55          1           0      -11.786579    0.384025    2.934865
     56          1           0      -11.263287   -1.075998    2.417309
     57          1           0      -12.066968    2.368776   -0.205657
     58          1           0      -12.407854    2.490982    1.543751
     59          1           0      -10.731214    2.300894    0.823447
     60          1           0      -11.868008   -2.780098    1.070144
     61          1           0       -9.154907   -1.388474    0.644297
     62          1           0       -6.180919   -2.111033   -0.232785
     63          1           0       -5.341783   -1.130445    1.361585
     64          1           0       -6.880802   -2.130515    1.298968
     65          1           0       -7.104511    1.658170   -0.614722
     66          1           0       -4.421558    0.350051    0.281650
     67          1           0       13.234022   -0.830911    2.322821
     68          1           0       11.947269   -2.066504    1.918993
     69          1           0       13.667740   -2.806364    0.627769
     70          1           0       12.910355   -2.800348   -1.622810
     71          1           0       11.642531   -2.778163   -0.550633
     72          1           0       11.625012    0.800371    3.497726
     73          1           0       10.513334    1.499228    2.189934
     74          1           0       10.322085   -0.235638    2.634825
     75          1           0       13.572314    1.102243    0.338453
     76          1           0       12.291075    2.256225    0.913943
     77          1           0       13.492405    1.316202    1.898646
     78          1           0       12.583654   -0.542091   -3.153534
     79          1           0       11.581116    0.769746   -2.464880
     80          1           0       13.306623    0.502101   -1.895302
     81          1           0       -5.571605    3.010743   -0.767918
     82          1           0        9.706851   -0.736788   -1.976487
     83          1           0       15.219552   -1.189501    0.637150
     84          1           0        8.535568    2.060324   -0.667090
     85          1           0       -2.582728    4.650930   -0.126849
     86          1           0       -2.109860    4.016177   -1.821584
     87          1           0       -3.772168    4.692431   -1.265809
     88          1           0       -2.546680    0.632620    0.222642
     89          1           0        6.584434   -1.748327    1.028719
     90          1           0        8.008237   -2.103765   -0.276153
     91          1           0        8.480472   -1.012697    1.509481
     92          1           0        6.336454    1.820353   -0.438321
     93          1           0       -0.811898    2.875683   -0.602190
     94          1           0        4.911561   -0.764965    0.231070
     95          1           0       -0.534693    0.050013    0.435703
     96          1           0        3.719620    1.855237   -0.659568
     97          1           0        1.608708    2.319855   -0.817135
     98          1           0        1.386825   -1.121842    0.955262
     99          1           0        3.067412   -1.588455    0.290764
    100          1           0        2.806761   -0.571953    1.998511
 ---------------------------------------------------------------------

 SCF Done:  E(RCAM-B3LYP) =  -1857.23756094     A.U. after   15 cycles

 Excitation energies and oscillator strengths:

 Excited State   1:      Singlet-A      2.2932 eV  540.66 nm  f=3.1299  <S**2>=0.000
     163 ->166        -0.14501
     164 ->165         0.68954
 This state for optimization and/or second-order correction.
 Total Energy, E(TD-HF/TD-DFT) =  -1857.15328674
 Copying the excited state density for this state as the 1-particle RhoCI density.

 The electronic state is 1-A.
 Alpha  occ. eigenvalues --  -19.21697 -19.21608 -19.21608 -19.20067 -10.32772
 Alpha  occ. eigenvalues --  -10.32584 -10.32375 -10.32067 -10.30468 -10.30024
 Alpha  occ. eigenvalues --  -10.28817 -10.28674 -10.28644 -10.28390 -10.28327
 Alpha  occ. eigenvalues --  -10.28282 -10.27258 -10.27187 -10.27172 -10.27154
 Alpha  occ. eigenvalues --  -10.27108 -10.27071 -10.27066 -10.26792 -10.26712
 Alpha  occ. eigenvalues --  -10.26679 -10.26547 -10.26546 -10.26375 -10.25901
 Alpha  occ. eigenvalues --  -10.25864 -10.25829 -10.25772 -10.25755 -10.25745
 Alpha  occ. eigenvalues --  -10.25440 -10.25413 -10.25388 -10.25201 -10.25090
 Alpha  occ. eigenvalues --  -10.25082 -10.24731 -10.23718 -10.23143  -1.13859
 Alpha  occ. eigenvalues --   -1.09407  -1.08882  -1.08203  -0.93248  -0.92751
 Alpha  occ. eigenvalues --   -0.92330  -0.91836  -0.90744  -0.89777  -0.88254
 Alpha  occ. eigenvalues --   -0.87760  -0.87503  -0.85611  -0.85143  -0.82715
 Alpha  occ. eigenvalues --   -0.81779  -0.80944  -0.79775  -0.77809  -0.77635
 Alpha  occ. eigenvalues --   -0.76939  -0.76867  -0.76100  -0.75045  -0.75002
 Alpha  occ. eigenvalues --   -0.74566  -0.74129  -0.72536  -0.70708  -0.70253
 Alpha  occ. eigenvalues --   -0.69220  -0.67304  -0.66067  -0.64551  -0.64023
 Alpha  occ. eigenvalues --   -0.63375  -0.62522  -0.61342  -0.60539  -0.60280
 Alpha  occ. eigenvalues --   -0.59631  -0.58989  -0.58759  -0.58053  -0.57417
 Alpha  occ. eigenvalues --   -0.55677  -0.55141  -0.54889  -0.54559  -0.54217
 Alpha  occ. eigenvalues --   -0.53876  -0.52661  -0.52411  -0.51941  -0.51250
 Alpha  occ. eigenvalues --   -0.51178  -0.50966  -0.50598  -0.50279  -0.49569
 Alpha  occ. eigenvalues --   -0.49456  -0.49439  -0.48792  -0.48669  -0.48429
 Alpha  occ. eigenvalues --   -0.47641  -0.47485  -0.47262  -0.47103  -0.46757
 Alpha  occ. eigenvalues --   -0.46556  -0.46153  -0.45715  -0.45221  -0.45039
 Alpha  occ. eigenvalues --   -0.44646  -0.44445  -0.44343  -0.43960  -0.43845
 Alpha  occ. eigenvalues --   -0.43546  -0.43470  -0.42839  -0.42819  -0.42326
 Alpha  occ. eigenvalues --   -0.42097  -0.42031  -0.41591  -0.41349  -0.41111
 Alpha  occ. eigenvalues --   -0.40756  -0.40720  -0.40487  -0.39532  -0.39282
 Alpha  occ. eigenvalues --   -0.39157  -0.38994  -0.38603  -0.38205  -0.37964
 Alpha  occ. eigenvalues --   -0.37816  -0.37615  -0.37434  -0.37279  -0.36820
 Alpha  occ. eigenvalues --   -0.36537  -0.35880  -0.35521  -0.34635  -0.34286
 Alpha  occ. eigenvalues --   -0.32762  -0.32210  -0.31492  -0.31447  -0.31109
 Alpha  occ. eigenvalues --   -0.30294  -0.28788  -0.24664  -0.19926
 Alpha virt. eigenvalues --   -0.05686  -0.01010   0.03140   0.05982   0.07169
 Alpha virt. eigenvalues --    0.09135   0.09513   0.10294   0.10491   0.11107
 Alpha virt. eigenvalues --    0.11166   0.11772   0.13049   0.13435   0.13678

 Mulliken charges:
               1
     1  O   -0.512552
     2  O   -0.559768
     3  O   -0.594313
     4  O   -0.575269
     5  C    0.213009
     6  C    0.213124
     7  C    0.024103
     8  C   -0.226116
     9  C   -0.158942
    10  C    0.147824
    11  C   -0.310129
    12  C   -0.081550
    13  C   -0.333893
    14  C   -0.323180
    15  C   -0.050673
    16  C    0.061495
    17  C   -0.346918
    18  C   -0.129263
    19  C   -0.057251
    20  C    0.007481
    21  C    0.273451
    22  C   -0.183727
    23  C    0.179732
    24  C   -0.178463
    25  C   -0.074929
    26  C   -0.294614
    27  C   -0.292793
    28  C   -0.276994
    29  C   -0.102071
    30  C    0.151545
    31  C    0.062174
    32  C   -0.310520
    33  C   -0.369504
    34  C   -0.116986
    35  C    0.123845
    36  C   -0.330348
    37  C   -0.100058
    38  C   -0.052700
    39  C   -0.105823
    40  C   -0.092281
    41  C   -0.057128
    42  C   -0.143649
    43  C    0.077654
    44  C   -0.321422
    45  H    0.104640
    46  H    0.124746
    47  H    0.116780
    48  H    0.114506
    49  H    0.083922
    50  H    0.075856
    51  H    0.111600
    52  H    0.129167
    53  H    0.088406
    54  H    0.113776
    55  H    0.103703
    56  H    0.113387
    57  H    0.101023
    58  H    0.096327
    59  H    0.100741
    60  H    0.304058
    61  H    0.060905
    62  H    0.137121
    63  H    0.092137
    64  H    0.126042
    65  H    0.084297
    66  H    0.064904
    67  H    0.086216
    68  H    0.074860
    69  H    0.083665
    70  H    0.093781
    71  H    0.134233
    72  H    0.072017
    73  H    0.112836
    74  H    0.090974
    75  H    0.121902
    76  H    0.105503
    77  H    0.090832
    78  H    0.112699
    79  H    0.066938
    80  H    0.128639
    81  H    0.089102
    82  H    0.316174
    83  H    0.317810
    84  H    0.106511
    85  H    0.136480
    86  H    0.092114
    87  H    0.115241
    88  H    0.080724
    89  H    0.110756
    90  H    0.081533
    91  H    0.069144
    92  H    0.067475
    93  H    0.074450
    94  H    0.074847
    95  H    0.072718
    96  H    0.077874
    97  H    0.081096
    98  H    0.119323
    99  H    0.108024
   100  H    0.113855
 Sum of Mulliken charges =  -0.00000

 Dipole moment (field-independent basis, Debye):
    X=              0.2737    Y=             -0.2575    Z=              1.7088  Tot=              1.7497
 Quadrupole moment (field-independent basis, Debye-Ang):
   XX=           -255.0260   YY=           -257.9613   ZZ=           -280.7773
   XY=             -0.6783   XZ=             31.7792   YZ=             -1.9393

 Normal termination of Gaussian 16 at Thu Aug  1 19:06:34 2019.
