 Gaussian 16, Revision A.03,
 Gaussian 16:  ES64L-G16RevA.03 25-Dec-2016

 -------------------------------------
 # td=(NStates=1) CAM-B3LYP/6-31G(d,p)
 -------------------------------------

 --
 TD
 --
 Symbolic Z-matrix:
 Charge =  0 Multiplicity = 1

                         Standard orientation:
 ---------------------------------------------------------------------
 Center     Atomic      Atomic             Coordinates (Angstroms)
 Number     Number       Type             X           Y           Z
 ---------------------------------------------------------------------
      1          8           0      -11.639834    0.312347   -1.649348
      2          8           0      -13.152689   -2.455974    1.250599
      3          8           0       10.531717   -1.165839   -2.219124
      4          8           0       14.402171   -0.925159   -0.272752
      5          6           0      -10.989117   -0.181717   -0.400954
      6          6           0      -11.672590   -1.141773   -1.294485
      7          6           0      -11.655255    0.385857    0.804171
      8          6           0      -13.029856   -1.710047   -1.013696
      9          6           0      -13.233989    0.073616    0.813923
     10          6           0      -13.543941   -1.469024    0.416002
     11          6           0      -10.749375   -1.914470   -2.247024
     12          6           0       -9.485648    0.030221   -0.360187
     13          6           0      -10.996856   -0.137095    2.120867
     14          6           0      -11.585217    1.916984    0.960253
     15          6           0       -8.660847   -0.772864    0.368681
     16          6           0       -7.250033   -0.532999    0.388250
     17          6           0       -6.415713   -1.756729    0.761040
     18          6           0       -6.614624    0.610432    0.039274
     19          6           0       -5.188108    0.824762    0.008881
     20          6           0       11.930489    0.114655    1.275696
     21          6           0       11.580687   -0.685181   -1.284640
     22          6           0       12.719573   -1.135323    1.491262
     23          6           0       13.340039   -1.800939    0.315650
     24          6           0       12.387794   -1.993172   -0.841304
     25          6           0       10.963481    0.060052    0.060404
     26          6           0       11.137489    0.334959    2.605604
     27          6           0       12.830120    1.271113    1.150291
     28          6           0       12.462256    0.246975   -2.210091
     29          6           0       -4.716818    2.115992   -0.378637
     30          6           0        9.865897    0.490415   -0.112639
     31          6           0       -3.333902    2.492829   -0.501719
     32          6           0        8.616035    0.997345   -0.083592
     33          6           0       -3.004884    3.824126   -0.889393
     34          6           0       -2.332942    1.622840   -0.226537
     35          6           0        7.423910    0.158263    0.014830
     36          6           0        7.602678   -1.298822    0.338077
     37          6           0        6.090799    0.758597   -0.040861
     38          6           0       -0.891185    1.844725   -0.248991
     39          6           0        4.970599    0.138710    0.002218
     40          6           0        0.091172    0.940938   -0.034779
     41          6           0        3.778066    0.792567   -0.057849
     42          6           0        1.385523    1.157324   -0.142012
     43          6           0        2.470744    0.341138    0.082007
     44          6           0        2.163365   -1.140754    0.467539
     45          1           0      -12.937326   -2.854749   -1.358118
     46          1           0      -13.848732   -1.261433   -1.692550
     47          1           0      -13.832289   -0.000080    1.835277
     48          1           0      -13.749991    0.815953    0.143267
     49          1           0      -14.628967   -1.482293    0.125598
     50          1           0      -10.026123   -2.750437   -1.732492
     51          1           0      -11.215417   -2.220671   -2.993868
     52          1           0       -9.901739   -1.284117   -2.597050
     53          1           0       -9.313220    0.994253   -0.831207
     54          1           0       -9.914026    0.086772    2.458484
     55          1           0      -11.660946    0.035044    3.067199
     56          1           0      -11.020036   -1.213002    1.953966
     57          1           0      -11.885977    2.220519   -0.117784
     58          1           0      -12.380571    2.170874    1.671415
     59          1           0      -10.563110    2.326447    1.032633
     60          1           0      -12.278702   -2.764778    1.027033
     61          1           0       -9.103774   -1.542276    0.896103
     62          1           0       -5.426868   -2.009891    0.126674
     63          1           0       -5.802875   -1.526802    1.739748
     64          1           0       -7.090007   -2.524775    1.162856
     65          1           0       -7.164899    1.508555   -0.046096
     66          1           0       -4.420779    0.019469    0.417108
     67          1           0       13.587518   -1.162883    2.181773
     68          1           0       12.281334   -2.091637    1.834701
     69          1           0       13.848044   -2.635075    0.661993
     70          1           0       12.948456   -2.340529   -1.655528
     71          1           0       11.701878   -2.893632   -0.427557
     72          1           0       11.828957    0.568910    3.463478
     73          1           0       10.323691    1.059698    2.728057
     74          1           0       10.594023   -0.543167    2.729382
     75          1           0       13.380587    1.152879    0.103375
     76          1           0       12.189889    2.184344    0.928717
     77          1           0       13.238902    1.646344    2.306905
     78          1           0       13.056707   -0.407427   -2.976426
     79          1           0       11.961051    1.007786   -2.436426
     80          1           0       13.531794    0.692983   -1.892288
     81          1           0       -5.362833    3.019707   -0.752055
     82          1           0       10.048322   -0.477430   -2.309479
     83          1           0       15.057381   -0.727318    0.475365
     84          1           0        8.569888    2.055644   -0.201170
     85          1           0       -2.450617    4.483388   -0.093983
     86          1           0       -2.323890    3.906694   -1.448144
     87          1           0       -4.013910    4.369420   -1.274119
     88          1           0       -2.500364    0.544065   -0.114243
     89          1           0        6.804386   -1.925839    0.136999
     90          1           0        8.446018   -1.823933   -0.270885
     91          1           0        7.889578   -1.549126    1.220802
     92          1           0        6.230696    1.884911   -0.111523
     93          1           0       -0.637284    2.950991   -0.569043
     94          1           0        4.956444   -0.784255    0.446570
     95          1           0       -0.202464   -0.164121    0.296613
     96          1           0        3.652404    1.903777   -0.204744
     97          1           0        1.627310    2.346050   -0.484837
     98          1           0        0.939471   -1.207823    0.268528
     99          1           0        2.708010   -1.957148    0.038791
    100          1           0        2.365198   -1.198978    1.544006
 ---------------------------------------------------------------------

 SCF Done:  E(RCAM-B3LYP) =  -1857.14382397     A.U. after   15 cycles

 Excitation energies and oscillator strengths:

 Excited State   1:      Singlet-A      2.0395 eV  607.91 nm  f=3.4208  <S**2>=0.000
     163 ->166         0.14915
     164 ->165         0.69042
 This state for optimization and/or second-order correction.
 Total Energy, E(TD-HF/TD-DFT) =  -1857.06887299
 Copying the excited state density for this state as the 1-particle RhoCI density.

 The electronic state is 1-A.
 Alpha  occ. eigenvalues --  -19.22684 -19.21519 -19.20663 -19.20306 -10.34034
 Alpha  occ. eigenvalues --  -10.32342 -10.31655 -10.31479 -10.30231 -10.28917
 Alpha  occ. eigenvalues --  -10.28667 -10.28557 -10.28141 -10.27836 -10.27642
 Alpha  occ. eigenvalues --  -10.27523 -10.27490 -10.27487 -10.27416 -10.27271
 Alpha  occ. eigenvalues --  -10.27044 -10.26997 -10.26986 -10.26881 -10.26858
 Alpha  occ. eigenvalues --  -10.26803 -10.26767 -10.26705 -10.26609 -10.26249
 Alpha  occ. eigenvalues --  -10.26108 -10.26067 -10.25905 -10.25886 -10.25878
 Alpha  occ. eigenvalues --  -10.25686 -10.25588 -10.25034 -10.25001 -10.24713
 Alpha  occ. eigenvalues --  -10.24695 -10.24571 -10.24458 -10.23704  -1.13097
 Alpha  occ. eigenvalues --   -1.11678  -1.11091  -1.06774  -0.93936  -0.93167
 Alpha  occ. eigenvalues --   -0.92522  -0.91842  -0.90869  -0.89858  -0.88727
 Alpha  occ. eigenvalues --   -0.86544  -0.86325  -0.85909  -0.85324  -0.84035
 Alpha  occ. eigenvalues --   -0.82284  -0.81356  -0.80579  -0.79083  -0.78146
 Alpha  occ. eigenvalues --   -0.76717  -0.76672  -0.76321  -0.75790  -0.75757
 Alpha  occ. eigenvalues --   -0.74990  -0.74686  -0.73076  -0.70973  -0.70267
 Alpha  occ. eigenvalues --   -0.69286  -0.67645  -0.66111  -0.65539  -0.64797
 Alpha  occ. eigenvalues --   -0.63369  -0.61528  -0.61234  -0.60490  -0.59887
 Alpha  occ. eigenvalues --   -0.59738  -0.58297  -0.58058  -0.57535  -0.56543
 Alpha  occ. eigenvalues --   -0.56022  -0.55641  -0.55326  -0.54849  -0.54823
 Alpha  occ. eigenvalues --   -0.53746  -0.53129  -0.52767  -0.52536  -0.52151
 Alpha  occ. eigenvalues --   -0.51373  -0.51193  -0.50174  -0.50107  -0.49773
 Alpha  occ. eigenvalues --   -0.49635  -0.49462  -0.49138  -0.48612  -0.48444
 Alpha  occ. eigenvalues --   -0.48014  -0.47846  -0.47701  -0.47581  -0.46954
 Alpha  occ. eigenvalues --   -0.46838  -0.46665  -0.46424  -0.46051  -0.45394
 Alpha  occ. eigenvalues --   -0.45292  -0.44732  -0.44376  -0.43985  -0.43718
 Alpha  occ. eigenvalues --   -0.43283  -0.43082  -0.43048  -0.42247  -0.42183
 Alpha  occ. eigenvalues --   -0.42132  -0.42041  -0.41613  -0.41431  -0.40993
 Alpha  occ. eigenvalues --   -0.40840  -0.40794  -0.40584  -0.40404  -0.39635
 Alpha  occ. eigenvalues --   -0.39382  -0.39309  -0.39162  -0.38937  -0.38123
 Alpha  occ. eigenvalues --   -0.38055  -0.37500  -0.37299  -0.36785  -0.36431
 Alpha  occ. eigenvalues --   -0.36226  -0.35707  -0.34897  -0.34820  -0.34311
 Alpha  occ. eigenvalues --   -0.33105  -0.32557  -0.31862  -0.31843  -0.31298
 Alpha  occ. eigenvalues --   -0.30910  -0.28070  -0.23834  -0.19219
 Alpha virt. eigenvalues --   -0.06644  -0.01741   0.02747   0.06061   0.08439
 Alpha virt. eigenvalues --    0.09611   0.09770   0.09965   0.10342   0.11016
 Alpha virt. eigenvalues --    0.11496   0.12334   0.12409   0.13479   0.13697

 Mulliken charges:
               1
     1  O   -0.524923
     2  O   -0.513882
     3  O   -0.521728
     4  O   -0.573537
     5  C    0.161049
     6  C    0.254375
     7  C    0.040871
     8  C   -0.249241
     9  C   -0.210621
    10  C    0.162799
    11  C   -0.315493
    12  C   -0.084420
    13  C   -0.299145
    14  C   -0.310432
    15  C   -0.083204
    16  C    0.105894
    17  C   -0.383570
    18  C   -0.108928
    19  C   -0.085250
    20  C    0.042940
    21  C    0.201410
    22  C   -0.166832
    23  C    0.125619
    24  C   -0.166028
    25  C   -0.128993
    26  C   -0.311988
    27  C   -0.302013
    28  C   -0.287168
    29  C   -0.122665
    30  C    0.183718
    31  C    0.130967
    32  C   -0.254839
    33  C   -0.353002
    34  C   -0.127979
    35  C    0.089198
    36  C   -0.391777
    37  C   -0.077323
    38  C   -0.104524
    39  C   -0.084197
    40  C   -0.062966
    41  C   -0.109467
    42  C   -0.111286
    43  C    0.102000
    44  C   -0.363114
    45  H    0.086877
    46  H    0.118591
    47  H    0.099584
    48  H    0.113553
    49  H    0.091773
    50  H    0.078749
    51  H    0.118640
    52  H    0.128577
    53  H    0.118698
    54  H    0.108040
    55  H    0.095006
    56  H    0.067640
    57  H    0.104962
    58  H    0.116637
    59  H    0.100393
    60  H    0.313764
    61  H    0.086392
    62  H    0.119366
    63  H    0.104186
    64  H    0.107745
    65  H    0.085858
    66  H    0.097402
    67  H    0.086724
    68  H    0.096724
    69  H    0.092625
    70  H    0.123595
    71  H    0.085390
    72  H    0.092434
    73  H    0.106952
    74  H    0.108721
    75  H    0.130261
    76  H    0.094236
    77  H    0.076273
    78  H    0.112309
    79  H    0.102512
    80  H    0.107271
    81  H    0.079951
    82  H    0.284044
    83  H    0.296149
    84  H    0.110909
    85  H    0.104911
    86  H    0.133125
    87  H    0.086208
    88  H    0.070431
    89  H    0.114991
    90  H    0.114532
    91  H    0.136827
    92  H    0.076988
    93  H    0.065396
    94  H    0.092098
    95  H    0.080800
    96  H    0.071227
    97  H    0.061051
    98  H    0.079813
    99  H    0.125607
   100  H    0.126173
 Sum of Mulliken charges =  -0.00000

 Dipole moment (field-independent basis, Debye):
    X=              2.5697    Y=             -0.7380    Z=              2.8534  Tot=              3.9102
 Quadrupole moment (field-independent basis, Debye-Ang):
   XX=           -269.0080   YY=           -259.0395   ZZ=           -279.7420
   XY=              7.1289   XZ=             33.6907   YZ=             -5.8496

 Normal termination of Gaussian 16 at Tue Jul 30 11:32:41 2019.
