 Gaussian 16, Revision A.03,
 Gaussian 16:  ES64L-G16RevA.03 25-Dec-2016

 -------------------------------------
 # td=(NStates=1) CAM-B3LYP/6-31G(d,p)
 -------------------------------------

 --
 TD
 --
 Symbolic Z-matrix:
 Charge =  0 Multiplicity = 1

                         Standard orientation:
 ---------------------------------------------------------------------
 Center     Atomic      Atomic             Coordinates (Angstroms)
 Number     Number       Type             X           Y           Z
 ---------------------------------------------------------------------
      1          8           0      -11.554584    0.380069   -1.597820
      2          8           0      -12.941372   -2.443889    1.248792
      3          8           0       10.825238   -1.179021   -2.224167
      4          8           0       14.546851   -0.854293   -0.014669
      5          6           0      -10.970870   -0.045656   -0.373516
      6          6           0      -11.644361   -1.092511   -1.303538
      7          6           0      -11.865301    0.424406    0.849133
      8          6           0      -12.996367   -1.696741   -1.058809
      9          6           0      -13.272930   -0.079562    0.771316
     10          6           0      -13.486292   -1.445796    0.354137
     11          6           0      -10.737852   -1.990953   -2.233092
     12          6           0       -9.525921    0.071619   -0.248284
     13          6           0      -11.260806   -0.052626    2.248637
     14          6           0      -11.723887    1.903614    0.934746
     15          6           0       -8.627479   -0.832568    0.311251
     16          6           0       -7.229845   -0.579650    0.372127
     17          6           0       -6.434751   -1.810534    0.877727
     18          6           0       -6.690073    0.550715    0.164386
     19          6           0       -5.277532    0.919560   -0.030015
     20          6           0       11.906201    0.235850    1.265280
     21          6           0       11.846360   -0.642117   -1.295561
     22          6           0       12.639827   -1.126959    1.602478
     23          6           0       13.323113   -1.722779    0.415368
     24          6           0       12.505544   -1.956939   -0.796738
     25          6           0       11.033314    0.071199   -0.052616
     26          6           0       11.006409    0.422862    2.428808
     27          6           0       12.838950    1.444756    1.246601
     28          6           0       12.620372    0.351336   -2.047181
     29          6           0       -4.733228    2.182424   -0.465838
     30          6           0        9.832095    0.439085   -0.045854
     31          6           0       -3.380681    2.533982   -0.425750
     32          6           0        8.586690    0.836327   -0.298362
     33          6           0       -2.955304    3.996763   -0.825516
     34          6           0       -2.389757    1.522454   -0.274823
     35          6           0        7.475970   -0.010895   -0.011695
     36          6           0        7.612132   -1.457307    0.241533
     37          6           0        6.192456    0.638151   -0.041588
     38          6           0       -1.012880    1.786015   -0.333336
     39          6           0        4.928372    0.046323    0.008525
     40          6           0        0.030070    0.909987   -0.194199
     41          6           0        3.750743    0.718064   -0.027783
     42          6           0        1.398928    1.113773   -0.170616
     43          6           0        2.433446    0.301979    0.018430
     44          6           0        2.121442   -1.200150    0.261765
     45          1           0      -12.833270   -2.672773   -1.294616
     46          1           0      -13.825232   -1.226864   -1.708010
     47          1           0      -13.613490    0.115937    1.699478
     48          1           0      -13.677221    0.445336    0.108206
     49          1           0      -14.634138   -1.571288    0.441619
     50          1           0      -10.641929   -2.996278   -1.664866
     51          1           0      -11.294501   -1.932336   -3.255104
     52          1           0       -9.751133   -1.532958   -2.446413
     53          1           0       -9.503798    1.131851   -0.707025
     54          1           0      -10.281051    0.206666    2.370773
     55          1           0      -11.751320    0.513763    3.040977
     56          1           0      -11.389746   -1.043736    2.458254
     57          1           0      -12.025745    2.238068    0.037597
     58          1           0      -12.178391    2.331621    1.788139
     59          1           0      -10.718017    2.151383    1.152321
     60          1           0      -11.964472   -2.820037    1.019686
     61          1           0       -9.184614   -1.522916    0.716864
     62          1           0       -5.628910   -1.935475    0.255702
     63          1           0       -5.946396   -1.782165    1.908732
     64          1           0       -7.293356   -2.717440    0.878457
     65          1           0       -7.541540    1.435073   -0.152204
     66          1           0       -4.545768    0.123656    0.192269
     67          1           0       13.628591   -0.952577    2.311032
     68          1           0       12.074319   -1.933388    2.187232
     69          1           0       13.729617   -2.599798    0.827620
     70          1           0       13.134660   -2.403240   -1.514561
     71          1           0       11.541028   -2.720135   -0.595389
     72          1           0       11.619724    0.556181    3.359098
     73          1           0       10.486250    1.208040    2.322893
     74          1           0       10.372544   -0.398873    2.626574
     75          1           0       13.686408    1.445007    0.563114
     76          1           0       12.229167    2.206617    0.942895
     77          1           0       13.187580    1.650884    2.405683
     78          1           0       12.931847   -0.163848   -2.912352
     79          1           0       12.147648    1.260530   -2.332323
     80          1           0       13.542745    0.600972   -1.337098
     81          1           0       -5.620012    2.763766   -0.672058
     82          1           0       10.148129   -0.520614   -2.365324
     83          1           0       15.159137   -0.754666    0.675731
     84          1           0        8.367728    1.895335   -0.638122
     85          1           0       -1.969728    4.419485   -0.304966
     86          1           0       -2.718305    4.041026   -2.047748
     87          1           0       -3.887886    4.663605   -0.797055
     88          1           0       -2.874001    0.528678    0.033656
     89          1           0        6.796838   -1.987976    0.114447
     90          1           0        8.439907   -1.875112   -0.468823
     91          1           0        7.948923   -1.780512    1.146095
     92          1           0        5.916852    1.656962   -0.181284
     93          1           0       -0.792333    2.798691   -0.541832
     94          1           0        4.787281   -1.107045   -0.023158
     95          1           0       -0.309952   -0.088188   -0.060161
     96          1           0        3.925804    1.808941   -0.062732
     97          1           0        1.927961    2.051056   -0.410710
     98          1           0        1.034042   -1.287727    0.353851
     99          1           0        2.594141   -1.718551   -0.681908
    100          1           0        2.830405   -1.490560    1.034539
 ---------------------------------------------------------------------

 SCF Done:  E(RCAM-B3LYP) =  -1857.27237351     A.U. after   15 cycles

 Excitation energies and oscillator strengths:

 Excited State   1:      Singlet-A      2.1450 eV  578.01 nm  f=3.1651  <S**2>=0.000
     163 ->166         0.14760
     164 ->165         0.69018
 This state for optimization and/or second-order correction.
 Total Energy, E(TD-HF/TD-DFT) =  -1857.19354573
 Copying the excited state density for this state as the 1-particle RhoCI density.

 The electronic state is 1-A.
 Alpha  occ. eigenvalues --  -19.22351 -19.21556 -19.20826 -19.19825 -10.32816
 Alpha  occ. eigenvalues --  -10.32435 -10.31638 -10.30995 -10.30923 -10.29003
 Alpha  occ. eigenvalues --  -10.28785 -10.28733 -10.28067 -10.27928 -10.27806
 Alpha  occ. eigenvalues --  -10.27585 -10.27572 -10.27505 -10.27419 -10.27167
 Alpha  occ. eigenvalues --  -10.27149 -10.27113 -10.27104 -10.26925 -10.26762
 Alpha  occ. eigenvalues --  -10.26756 -10.26634 -10.26498 -10.26449 -10.26431
 Alpha  occ. eigenvalues --  -10.26407 -10.26282 -10.26198 -10.26074 -10.25909
 Alpha  occ. eigenvalues --  -10.25826 -10.25292 -10.25016 -10.24306 -10.23618
 Alpha  occ. eigenvalues --  -10.22274 -10.22135 -10.21987 -10.21619  -1.13276
 Alpha  occ. eigenvalues --   -1.07762  -1.07035  -1.06961  -0.93295  -0.92922
 Alpha  occ. eigenvalues --   -0.92775  -0.91779  -0.91336  -0.90636  -0.87965
 Alpha  occ. eigenvalues --   -0.87711  -0.87203  -0.85920  -0.85017  -0.84015
 Alpha  occ. eigenvalues --   -0.82276  -0.81979  -0.80832  -0.78463  -0.77869
 Alpha  occ. eigenvalues --   -0.77311  -0.76922  -0.76540  -0.76405  -0.76307
 Alpha  occ. eigenvalues --   -0.76132  -0.74929  -0.73666  -0.70671  -0.70206
 Alpha  occ. eigenvalues --   -0.69248  -0.67390  -0.65563  -0.64769  -0.64036
 Alpha  occ. eigenvalues --   -0.63900  -0.61702  -0.61329  -0.60257  -0.59539
 Alpha  occ. eigenvalues --   -0.59096  -0.58784  -0.57789  -0.57349  -0.57111
 Alpha  occ. eigenvalues --   -0.56121  -0.55431  -0.54743  -0.54606  -0.54275
 Alpha  occ. eigenvalues --   -0.54177  -0.53636  -0.53179  -0.52685  -0.52080
 Alpha  occ. eigenvalues --   -0.51730  -0.51499  -0.50994  -0.50290  -0.49843
 Alpha  occ. eigenvalues --   -0.49722  -0.49530  -0.49052  -0.48598  -0.48266
 Alpha  occ. eigenvalues --   -0.47891  -0.47499  -0.47384  -0.46898  -0.46711
 Alpha  occ. eigenvalues --   -0.46455  -0.46165  -0.46006  -0.45757  -0.45651
 Alpha  occ. eigenvalues --   -0.45252  -0.44882  -0.44751  -0.44634  -0.44305
 Alpha  occ. eigenvalues --   -0.44205  -0.43863  -0.43477  -0.43299  -0.43174
 Alpha  occ. eigenvalues --   -0.42647  -0.42474  -0.42407  -0.41671  -0.41664
 Alpha  occ. eigenvalues --   -0.41166  -0.40917  -0.40554  -0.40342  -0.39808
 Alpha  occ. eigenvalues --   -0.39673  -0.39191  -0.39166  -0.39068  -0.38635
 Alpha  occ. eigenvalues --   -0.38410  -0.37608  -0.37313  -0.37004  -0.36916
 Alpha  occ. eigenvalues --   -0.36475  -0.35916  -0.35234  -0.34312  -0.33530
 Alpha  occ. eigenvalues --   -0.33025  -0.32290  -0.32095  -0.31608  -0.31492
 Alpha  occ. eigenvalues --   -0.30738  -0.28194  -0.24327  -0.19823
 Alpha virt. eigenvalues --   -0.06272  -0.01548   0.02256   0.06266   0.07468
 Alpha virt. eigenvalues --    0.07519   0.09860   0.10115   0.11176   0.12206
 Alpha virt. eigenvalues --    0.12568   0.12736   0.13344   0.13448   0.13870

 Mulliken charges:
               1
     1  O   -0.519642
     2  O   -0.576650
     3  O   -0.579574
     4  O   -0.578272
     5  C    0.170110
     6  C    0.193528
     7  C    0.007468
     8  C   -0.205165
     9  C   -0.120812
    10  C    0.161888
    11  C   -0.325319
    12  C   -0.084434
    13  C   -0.333109
    14  C   -0.309471
    15  C   -0.086490
    16  C    0.130912
    17  C   -0.359737
    18  C   -0.115547
    19  C   -0.096446
    20  C    0.010652
    21  C    0.252801
    22  C   -0.170795
    23  C    0.134434
    24  C   -0.165527
    25  C   -0.117817
    26  C   -0.279226
    27  C   -0.290920
    28  C   -0.300255
    29  C   -0.116795
    30  C    0.160585
    31  C    0.089847
    32  C   -0.269217
    33  C   -0.358997
    34  C   -0.093508
    35  C    0.105618
    36  C   -0.370793
    37  C   -0.114649
    38  C   -0.070738
    39  C   -0.072676
    40  C   -0.102578
    41  C   -0.143518
    42  C   -0.104564
    43  C    0.128925
    44  C   -0.361915
    45  H    0.111184
    46  H    0.116246
    47  H    0.105783
    48  H    0.099927
    49  H    0.088200
    50  H    0.093700
    51  H    0.115710
    52  H    0.130383
    53  H    0.115126
    54  H    0.106592
    55  H    0.091172
    56  H    0.105007
    57  H    0.119640
    58  H    0.100756
    59  H    0.103039
    60  H    0.304845
    61  H    0.076246
    62  H    0.132055
    63  H    0.121566
    64  H    0.080012
    65  H    0.059065
    66  H    0.071436
    67  H    0.057574
    68  H    0.100663
    69  H    0.094574
    70  H    0.127881
    71  H    0.109791
    72  H    0.084031
    73  H    0.106470
    74  H    0.101409
    75  H    0.119205
    76  H    0.113551
    77  H    0.073810
    78  H    0.121893
    79  H    0.102939
    80  H    0.127103
    81  H    0.091185
    82  H    0.298315
    83  H    0.300257
    84  H    0.116644
    85  H    0.119114
    86  H    0.101705
    87  H    0.113516
    88  H    0.076417
    89  H    0.122513
    90  H    0.116396
    91  H    0.133227
    92  H    0.077247
    93  H    0.075323
    94  H    0.065574
    95  H    0.075665
    96  H    0.070752
    97  H    0.063321
    98  H    0.111533
    99  H    0.108161
   100  H    0.122937
 Sum of Mulliken charges =  -0.00000

 Dipole moment (field-independent basis, Debye):
    X=              2.0691    Y=             -0.6170    Z=              1.8011  Tot=              2.8118
 Quadrupole moment (field-independent basis, Debye-Ang):
   XX=           -265.5608   YY=           -259.2628   ZZ=           -278.8372
   XY=              3.1351   XZ=             32.9712   YZ=             -4.1843

 Normal termination of Gaussian 16 at Mon Jul 29 14:19:12 2019.
