 Gaussian 16, Revision A.03,
 Gaussian 16:  ES64L-G16RevA.03 25-Dec-2016

 -------------------------------------
 # td=(NStates=1) CAM-B3LYP/6-31G(d,p)
 -------------------------------------

 --
 TD
 --
 Symbolic Z-matrix:
 Charge =  0 Multiplicity = 1

                         Standard orientation:
 ---------------------------------------------------------------------
 Center     Atomic      Atomic             Coordinates (Angstroms)
 Number     Number       Type             X           Y           Z
 ---------------------------------------------------------------------
      1          8           0      -11.697813    0.220186   -1.566971
      2          8           0      -12.748709   -2.536273    1.429959
      3          8           0       10.725436   -0.844736   -2.141171
      4          8           0       14.525099   -0.989889    0.062414
      5          6           0      -11.100046   -0.106432   -0.359737
      6          6           0      -11.676182   -1.190890   -1.157315
      7          6           0      -11.777914    0.317330    1.043358
      8          6           0      -13.040694   -1.763989   -0.972124
      9          6           0      -13.189074   -0.114797    0.840018
     10          6           0      -13.403348   -1.652202    0.519697
     11          6           0      -10.765884   -2.057079   -2.167013
     12          6           0       -9.584045    0.110354   -0.434036
     13          6           0      -10.875321   -0.036244    2.250788
     14          6           0      -11.719866    1.858446    1.023656
     15          6           0       -8.578784   -0.731896    0.189684
     16          6           0       -7.071433   -0.455771    0.176306
     17          6           0       -6.297841   -1.641638    0.523741
     18          6           0       -6.576127    0.790649   -0.043769
     19          6           0       -5.254077    1.066111   -0.040817
     20          6           0       11.751971   -0.009664    1.423121
     21          6           0       11.732453   -0.460333   -1.174173
     22          6           0       12.572267   -1.414134    1.557156
     23          6           0       13.472738   -1.811321    0.286364
     24          6           0       12.490753   -1.792463   -1.003251
     25          6           0       10.973845    0.045935    0.111346
     26          6           0       10.796333    0.096940    2.575669
     27          6           0       12.743120    1.168401    1.528479
     28          6           0       12.675445    0.626504   -1.869724
     29          6           0       -4.725655    2.309171   -0.293621
     30          6           0        9.757583    0.440158   -0.065245
     31          6           0       -3.370880    2.638860   -0.386391
     32          6           0        8.550557    0.910104   -0.210107
     33          6           0       -2.988120    4.176064   -0.343503
     34          6           0       -2.304018    1.655085   -0.360629
     35          6           0        7.399083    0.085074   -0.006748
     36          6           0        7.666238   -1.452399    0.027732
     37          6           0        6.201974    0.517495   -0.141402
     38          6           0       -0.961718    1.940909   -0.428890
     39          6           0        4.895356   -0.008420   -0.114124
     40          6           0       -0.013466    0.951525   -0.312130
     41          6           0        3.739368    0.702946   -0.256739
     42          6           0        1.380431    1.242415   -0.317318
     43          6           0        2.380201    0.258235   -0.203431
     44          6           0        2.083088   -1.250831    0.055872
     45          1           0      -12.866419   -2.863981   -1.172715
     46          1           0      -13.806998   -1.531810   -1.553629
     47          1           0      -13.675674   -0.090216    1.817987
     48          1           0      -13.711644    0.418390    0.160091
     49          1           0      -14.518723   -1.964967    0.622204
     50          1           0      -10.325651   -2.982605   -1.816862
     51          1           0      -11.372464   -2.402076   -3.007893
     52          1           0      -10.044754   -1.433357   -2.708980
     53          1           0       -9.097908    0.871315   -1.077324
     54          1           0      -10.041923    0.506791    2.321294
     55          1           0      -11.546636    0.249563    3.028314
     56          1           0      -10.865091   -1.148947    2.279900
     57          1           0      -12.281350    2.206661    0.130085
     58          1           0      -12.440771    2.150877    1.814869
     59          1           0      -10.795037    2.141673    1.099965
     60          1           0      -11.730630   -2.433750    1.241003
     61          1           0       -9.139500   -1.870013    0.573283
     62          1           0       -6.086634   -2.242797   -0.474039
     63          1           0       -5.329381   -1.601942    1.105020
     64          1           0       -6.904714   -2.412204    1.185720
     65          1           0       -7.169824    1.553568   -0.196163
     66          1           0       -4.499387    0.341625   -0.024019
     67          1           0       13.179342   -1.502550    2.492471
     68          1           0       11.785276   -2.202302    1.628980
     69          1           0       13.676150   -2.764744    0.357259
     70          1           0       12.991159   -2.031671   -1.957294
     71          1           0       11.825598   -2.746836   -0.823431
     72          1           0       11.287538    0.097402    3.658449
     73          1           0       10.151513    0.984844    2.667346
     74          1           0       10.218255   -0.786496    2.197077
     75          1           0       13.520469    1.110797    0.926853
     76          1           0       12.241378    2.300212    1.558045
     77          1           0       13.379291    0.931397    2.402932
     78          1           0       12.785559    0.392227   -2.823139
     79          1           0       12.051137    1.697716   -1.780334
     80          1           0       13.565357    0.797096   -1.123865
     81          1           0       -5.395973    2.976456   -0.570682
     82          1           0       10.180833   -0.114480   -2.430880
     83          1           0       15.001643   -0.777000    0.856339
     84          1           0        8.344587    2.013881   -0.491809
     85          1           0       -2.506519    4.446821    0.530469
     86          1           0       -2.412170    4.495556   -1.332792
     87          1           0       -3.827902    4.711076   -0.546392
     88          1           0       -2.385276    0.468666   -0.287792
     89          1           0        6.553322   -1.871015   -0.018219
     90          1           0        8.414108   -1.719830   -0.667311
     91          1           0        7.885220   -1.648871    0.981291
     92          1           0        6.111233    1.751191   -0.401256
     93          1           0       -0.664130    2.943256   -0.664171
     94          1           0        4.699923   -1.225202   -0.076334
     95          1           0       -0.612493   -0.059150   -0.225977
     96          1           0        3.890817    1.738915   -0.418074
     97          1           0        1.537994    2.320222   -0.275591
     98          1           0        1.231133   -1.345920   -0.045778
     99          1           0        2.530162   -1.723012   -0.807151
    100          1           0        2.654641   -1.663993    1.064297
 ---------------------------------------------------------------------

 SCF Done:  E(RCAM-B3LYP) =  -1857.21436208     A.U. after   15 cycles

 Excitation energies and oscillator strengths:

 Excited State   1:      Singlet-A      2.1416 eV  578.92 nm  f=2.9052  <S**2>=0.000
     163 ->166        -0.12573
     164 ->165         0.69863
 This state for optimization and/or second-order correction.
 Total Energy, E(TD-HF/TD-DFT) =  -1857.13565792
 Copying the excited state density for this state as the 1-particle RhoCI density.

 The electronic state is 1-A.
 Alpha  occ. eigenvalues --  -19.22827 -19.22775 -19.22468 -19.19984 -10.32512
 Alpha  occ. eigenvalues --  -10.32439 -10.32300 -10.31470 -10.30813 -10.29983
 Alpha  occ. eigenvalues --  -10.28765 -10.28502 -10.28296 -10.28052 -10.27589
 Alpha  occ. eigenvalues --  -10.27500 -10.27443 -10.27335 -10.27274 -10.27229
 Alpha  occ. eigenvalues --  -10.27121 -10.27077 -10.27046 -10.26966 -10.26298
 Alpha  occ. eigenvalues --  -10.26153 -10.26087 -10.25999 -10.25776 -10.25621
 Alpha  occ. eigenvalues --  -10.25480 -10.25424 -10.25423 -10.25303 -10.25093
 Alpha  occ. eigenvalues --  -10.25001 -10.24946 -10.24914 -10.24772 -10.24725
 Alpha  occ. eigenvalues --  -10.24315 -10.24312 -10.24105 -10.23322  -1.16135
 Alpha  occ. eigenvalues --   -1.13061  -1.08852  -1.08341  -0.92849  -0.92709
 Alpha  occ. eigenvalues --   -0.91768  -0.91414  -0.91014  -0.89666  -0.87533
 Alpha  occ. eigenvalues --   -0.87124  -0.85507  -0.84988  -0.83875  -0.82650
 Alpha  occ. eigenvalues --   -0.81789  -0.80347  -0.80238  -0.79309  -0.77405
 Alpha  occ. eigenvalues --   -0.77299  -0.77181  -0.76581  -0.76379  -0.75999
 Alpha  occ. eigenvalues --   -0.74658  -0.73624  -0.73061  -0.70777  -0.70353
 Alpha  occ. eigenvalues --   -0.68714  -0.67072  -0.65589  -0.64775  -0.63985
 Alpha  occ. eigenvalues --   -0.63645  -0.62852  -0.61971  -0.60696  -0.59530
 Alpha  occ. eigenvalues --   -0.59328  -0.58879  -0.57870  -0.57476  -0.56731
 Alpha  occ. eigenvalues --   -0.55476  -0.55070  -0.54716  -0.54502  -0.54336
 Alpha  occ. eigenvalues --   -0.53762  -0.53751  -0.53096  -0.52691  -0.52082
 Alpha  occ. eigenvalues --   -0.51413  -0.51194  -0.50706  -0.50589  -0.50548
 Alpha  occ. eigenvalues --   -0.49810  -0.49301  -0.48602  -0.48402  -0.48350
 Alpha  occ. eigenvalues --   -0.48200  -0.47705  -0.47636  -0.47449  -0.47076
 Alpha  occ. eigenvalues --   -0.46948  -0.46715  -0.46374  -0.46264  -0.45973
 Alpha  occ. eigenvalues --   -0.45419  -0.44685  -0.44300  -0.43809  -0.43679
 Alpha  occ. eigenvalues --   -0.43639  -0.43229  -0.42744  -0.42672  -0.42609
 Alpha  occ. eigenvalues --   -0.42352  -0.42230  -0.41718  -0.41370  -0.41141
 Alpha  occ. eigenvalues --   -0.40601  -0.40572  -0.40446  -0.40268  -0.39729
 Alpha  occ. eigenvalues --   -0.39671  -0.39568  -0.39177  -0.38794  -0.38582
 Alpha  occ. eigenvalues --   -0.38307  -0.38273  -0.38199  -0.36553  -0.36194
 Alpha  occ. eigenvalues --   -0.35976  -0.35848  -0.35294  -0.35082  -0.33569
 Alpha  occ. eigenvalues --   -0.33249  -0.32313  -0.32014  -0.31409  -0.30537
 Alpha  occ. eigenvalues --   -0.30091  -0.27954  -0.24553  -0.19363
 Alpha virt. eigenvalues --   -0.05951  -0.00458   0.03337   0.06341   0.06911
 Alpha virt. eigenvalues --    0.07602   0.10004   0.10157   0.11544   0.11796
 Alpha virt. eigenvalues --    0.13018   0.13152   0.13713   0.13938   0.14315

 Mulliken charges:
               1
     1  O   -0.506389
     2  O   -0.542950
     3  O   -0.574361
     4  O   -0.517417
     5  C    0.254325
     6  C    0.190514
     7  C   -0.014781
     8  C   -0.193060
     9  C   -0.195161
    10  C    0.129008
    11  C   -0.340417
    12  C   -0.129528
    13  C   -0.278310
    14  C   -0.294579
    15  C   -0.100931
    16  C    0.088175
    17  C   -0.380350
    18  C   -0.072552
    19  C   -0.034477
    20  C    0.017525
    21  C    0.250162
    22  C   -0.236493
    23  C    0.178257
    24  C   -0.186154
    25  C   -0.110972
    26  C   -0.287838
    27  C   -0.280475
    28  C   -0.295757
    29  C   -0.110749
    30  C    0.227229
    31  C    0.032323
    32  C   -0.299036
    33  C   -0.361172
    34  C   -0.123074
    35  C    0.093431
    36  C   -0.359554
    37  C   -0.092710
    38  C   -0.050962
    39  C   -0.089444
    40  C   -0.095362
    41  C   -0.097327
    42  C   -0.136773
    43  C    0.059249
    44  C   -0.295121
    45  H    0.099916
    46  H    0.129521
    47  H    0.098567
    48  H    0.122709
    49  H    0.085050
    50  H    0.111135
    51  H    0.108008
    52  H    0.124241
    53  H    0.108592
    54  H    0.131488
    55  H    0.110945
    56  H    0.074079
    57  H    0.109814
    58  H    0.095279
    59  H    0.108404
    60  H    0.305965
    61  H    0.049495
    62  H    0.114365
    63  H    0.119608
    64  H    0.106746
    65  H    0.068502
    66  H    0.076617
    67  H    0.089126
    68  H    0.102452
    69  H    0.088400
    70  H    0.111868
    71  H    0.092466
    72  H    0.080738
    73  H    0.113055
    74  H    0.099676
    75  H    0.102390
    76  H    0.088100
    77  H    0.075873
    78  H    0.126772
    79  H    0.059173
    80  H    0.132513
    81  H    0.066116
    82  H    0.299185
    83  H    0.307106
    84  H    0.104453
    85  H    0.142307
    86  H    0.098715
    87  H    0.119117
    88  H    0.073451
    89  H    0.083220
    90  H    0.145282
    91  H    0.134132
    92  H    0.041018
    93  H    0.083902
    94  H    0.067620
    95  H    0.078045
    96  H    0.074390
    97  H    0.099170
    98  H    0.091573
    99  H    0.122822
   100  H    0.110764
 Sum of Mulliken charges =  -0.00000

 Dipole moment (field-independent basis, Debye):
    X=              2.3178    Y=              0.3898    Z=              1.4195  Tot=              2.7458
 Quadrupole moment (field-independent basis, Debye-Ang):
   XX=           -252.4676   YY=           -259.8516   ZZ=           -277.0688
   XY=             -1.8694   XZ=             32.0838   YZ=             -0.3728

 Normal termination of Gaussian 16 at Thu Aug  1 07:01:00 2019.
