 Gaussian 16, Revision A.03,
 Gaussian 16:  ES64L-G16RevA.03 25-Dec-2016

 -------------------------------------
 # td=(NStates=1) CAM-B3LYP/6-31G(d,p)
 -------------------------------------

 --
 TD
 --
 Symbolic Z-matrix:
 Charge =  0 Multiplicity = 1

                         Standard orientation:
 ---------------------------------------------------------------------
 Center     Atomic      Atomic             Coordinates (Angstroms)
 Number     Number       Type             X           Y           Z
 ---------------------------------------------------------------------
      1          8           0      -11.679769    0.165305   -1.683893
      2          8           0      -12.997348   -2.380720    1.508543
      3          8           0       10.565958   -0.962110   -2.048780
      4          8           0       14.556045   -0.912983   -0.217038
      5          6           0      -11.108875   -0.184213   -0.446790
      6          6           0      -11.714129   -1.242444   -1.247556
      7          6           0      -11.837598    0.419313    0.838765
      8          6           0      -13.051010   -1.786914   -0.881004
      9          6           0      -13.327113   -0.069156    0.823428
     10          6           0      -13.661194   -1.506150    0.486419
     11          6           0      -10.893739   -2.155424   -1.994702
     12          6           0       -9.652414    0.073386   -0.387780
     13          6           0      -11.117319    0.069044    2.079986
     14          6           0      -11.817606    2.000814    0.694366
     15          6           0       -8.713512   -0.734272    0.117381
     16          6           0       -7.204059   -0.580066    0.205431
     17          6           0       -6.430251   -1.876806    0.599753
     18          6           0       -6.612099    0.578802    0.020213
     19          6           0       -5.229728    0.882595   -0.020450
     20          6           0       12.033570   -0.080574    1.411928
     21          6           0       11.616167   -0.535382   -1.322226
     22          6           0       12.747540   -1.411538    1.423016
     23          6           0       13.439744   -1.850055    0.117771
     24          6           0       12.578106   -1.809174   -1.149614
     25          6           0       11.234371   -0.022315    0.087357
     26          6           0       11.109990    0.114315    2.594595
     27          6           0       13.044913    1.067870    1.427442
     28          6           0       12.458148    0.511102   -2.055241
     29          6           0       -4.776548    2.067327   -0.407659
     30          6           0        9.961074    0.447323    0.018866
     31          6           0       -3.334635    2.499620   -0.540365
     32          6           0        8.694440    0.929464    0.080415
     33          6           0       -3.059343    4.009939   -0.659240
     34          6           0       -2.259813    1.587394   -0.363006
     35          6           0        7.413764    0.229187    0.158764
     36          6           0        7.605073   -1.255001    0.050126
     37          6           0        6.220714    0.776135    0.056370
     38          6           0       -0.993425    1.897405   -0.236574
     39          6           0        4.969818    0.235332   -0.062533
     40          6           0        0.059044    0.991303   -0.091464
     41          6           0        3.761515    0.933717    0.012131
     42          6           0        1.377405    1.274652   -0.146708
     43          6           0        2.491998    0.475666    0.056031
     44          6           0        2.343263   -1.045747    0.295876
     45          1           0      -13.280585   -2.831995   -1.029067
     46          1           0      -13.802559   -1.266972   -1.521886
     47          1           0      -13.726138    0.059320    1.708234
     48          1           0      -13.933418    0.644739    0.209365
     49          1           0      -14.542540   -1.689876    0.640822
     50          1           0      -10.520612   -3.124135   -1.560089
     51          1           0      -11.318362   -2.556879   -3.019564
     52          1           0       -9.858123   -1.778641   -2.222773
     53          1           0       -9.234948    0.887151   -0.975809
     54          1           0      -10.214560    0.789217    2.100304
     55          1           0      -11.516541    0.465140    3.032922
     56          1           0      -10.869925   -1.142454    2.365205
     57          1           0      -12.359565    2.167161   -0.153276
     58          1           0      -12.308802    2.515734    1.761738
     59          1           0      -10.930384    2.181549    0.858034
     60          1           0      -11.937724   -2.207392    1.572211
     61          1           0       -8.881220   -1.584098    0.860201
     62          1           0       -6.008443   -2.628126   -0.310734
     63          1           0       -5.566987   -1.589567    1.268211
     64          1           0       -6.961380   -2.573130    1.271566
     65          1           0       -7.236129    1.633579   -0.248776
     66          1           0       -4.516339    0.036322    0.162615
     67          1           0       13.371384   -1.614466    2.209935
     68          1           0       12.003821   -2.196138    1.737105
     69          1           0       13.602060   -2.874230    0.256906
     70          1           0       12.948579   -2.179874   -2.087590
     71          1           0       11.800383   -2.655616   -0.944857
     72          1           0       11.520962   -0.141541    3.424945
     73          1           0       10.752791    1.088740    2.703501
     74          1           0       10.427991   -0.742826    2.938660
     75          1           0       13.747228    1.114070    0.553032
     76          1           0       12.463792    1.931717    1.022343
     77          1           0       13.396333    1.183490    2.468504
     78          1           0       12.541365   -0.037549   -3.059792
     79          1           0       11.682963    1.465979   -2.457962
     80          1           0       13.272659    0.854553   -1.543372
     81          1           0       -5.495259    2.754091   -0.664161
     82          1           0        9.766196   -0.313610   -2.133395
     83          1           0       15.282192   -1.126040    0.445059
     84          1           0        8.543455    2.057246   -0.091622
     85          1           0       -2.674410    4.618215    0.354841
     86          1           0       -2.142073    3.956031   -1.186165
     87          1           0       -4.086928    4.640727   -1.256817
     88          1           0       -2.443976    0.457840   -0.134286
     89          1           0        6.600690   -1.723794   -0.231341
     90          1           0        8.428019   -1.692590   -0.421682
     91          1           0        7.902419   -1.604463    1.183349
     92          1           0        6.395093    1.933111    0.010958
     93          1           0       -0.749621    2.827282   -0.186559
     94          1           0        4.955601   -0.998574    0.050567
     95          1           0       -0.156778   -0.066145   -0.334999
     96          1           0        3.685046    2.038133   -0.198369
     97          1           0        1.616749    2.214800   -0.677784
     98          1           0        1.312068   -1.304668    0.663978
     99          1           0        2.490856   -1.701685   -0.637416
    100          1           0        3.007079   -1.403632    1.123274
 ---------------------------------------------------------------------

 SCF Done:  E(RCAM-B3LYP) =  -1857.16287107     A.U. after   15 cycles

 Excitation energies and oscillator strengths:

 Excited State   1:      Singlet-A      2.1702 eV  571.30 nm  f=3.1784  <S**2>=0.000
     163 ->166         0.12079
     164 ->165         0.70023
     164 <-165        -0.10701
 This state for optimization and/or second-order correction.
 Total Energy, E(TD-HF/TD-DFT) =  -1857.08311673
 Copying the excited state density for this state as the 1-particle RhoCI density.

 The electronic state is 1-A.
 Alpha  occ. eigenvalues --  -19.22772 -19.22455 -19.21765 -19.20066 -10.32562
 Alpha  occ. eigenvalues --  -10.32112 -10.32050 -10.31613 -10.29304 -10.29069
 Alpha  occ. eigenvalues --  -10.28897 -10.28509 -10.28279 -10.28118 -10.28064
 Alpha  occ. eigenvalues --  -10.28035 -10.27957 -10.27575 -10.27411 -10.27313
 Alpha  occ. eigenvalues --  -10.27300 -10.27281 -10.27187 -10.26986 -10.26480
 Alpha  occ. eigenvalues --  -10.26275 -10.26237 -10.26231 -10.26158 -10.26138
 Alpha  occ. eigenvalues --  -10.26115 -10.26039 -10.25891 -10.25822 -10.25627
 Alpha  occ. eigenvalues --  -10.25535 -10.25461 -10.25331 -10.25036 -10.24719
 Alpha  occ. eigenvalues --  -10.24712 -10.24588 -10.23469 -10.23448  -1.15752
 Alpha  occ. eigenvalues --   -1.11221  -1.07757  -1.04616  -0.93109  -0.92939
 Alpha  occ. eigenvalues --   -0.92135  -0.91568  -0.90949  -0.90216  -0.87905
 Alpha  occ. eigenvalues --   -0.87462  -0.85850  -0.85825  -0.84815  -0.83581
 Alpha  occ. eigenvalues --   -0.82556  -0.81714  -0.80258  -0.78665  -0.77925
 Alpha  occ. eigenvalues --   -0.77078  -0.76500  -0.76130  -0.75866  -0.75774
 Alpha  occ. eigenvalues --   -0.75713  -0.74021  -0.73124  -0.71567  -0.70233
 Alpha  occ. eigenvalues --   -0.69089  -0.67413  -0.66132  -0.65887  -0.64946
 Alpha  occ. eigenvalues --   -0.64031  -0.62252  -0.61388  -0.59999  -0.59541
 Alpha  occ. eigenvalues --   -0.58962  -0.58289  -0.58052  -0.57063  -0.56816
 Alpha  occ. eigenvalues --   -0.55820  -0.55509  -0.55001  -0.54793  -0.54461
 Alpha  occ. eigenvalues --   -0.54241  -0.53250  -0.52927  -0.52881  -0.52234
 Alpha  occ. eigenvalues --   -0.51847  -0.51517  -0.51263  -0.50752  -0.49872
 Alpha  occ. eigenvalues --   -0.49679  -0.49406  -0.48971  -0.48485  -0.48152
 Alpha  occ. eigenvalues --   -0.47884  -0.47196  -0.46785  -0.46728  -0.46405
 Alpha  occ. eigenvalues --   -0.46181  -0.45770  -0.45494  -0.45178  -0.44968
 Alpha  occ. eigenvalues --   -0.44726  -0.44654  -0.44194  -0.43949  -0.43620
 Alpha  occ. eigenvalues --   -0.43413  -0.43332  -0.42670  -0.42586  -0.42187
 Alpha  occ. eigenvalues --   -0.42064  -0.41881  -0.41758  -0.41585  -0.40827
 Alpha  occ. eigenvalues --   -0.40778  -0.40539  -0.40452  -0.40106  -0.39528
 Alpha  occ. eigenvalues --   -0.39202  -0.39060  -0.38645  -0.38497  -0.37971
 Alpha  occ. eigenvalues --   -0.37783  -0.37632  -0.37284  -0.37221  -0.36797
 Alpha  occ. eigenvalues --   -0.36140  -0.35151  -0.35059  -0.34744  -0.33901
 Alpha  occ. eigenvalues --   -0.32856  -0.32661  -0.32437  -0.31554  -0.30603
 Alpha  occ. eigenvalues --   -0.28883  -0.28272  -0.25361  -0.19776
 Alpha virt. eigenvalues --   -0.06623  -0.00350   0.02985   0.05746   0.07075
 Alpha virt. eigenvalues --    0.08385   0.09401   0.10305   0.10996   0.11576
 Alpha virt. eigenvalues --    0.11832   0.12146   0.12538   0.12802   0.13357

 Mulliken charges:
               1
     1  O   -0.511548
     2  O   -0.594877
     3  O   -0.568061
     4  O   -0.548693
     5  C    0.230829
     6  C    0.289528
     7  C   -0.008915
     8  C   -0.219543
     9  C   -0.178249
    10  C    0.188576
    11  C   -0.366556
    12  C   -0.132571
    13  C   -0.298528
    14  C   -0.265694
    15  C   -0.054818
    16  C    0.052483
    17  C   -0.367174
    18  C   -0.103121
    19  C   -0.032553
    20  C    0.040564
    21  C    0.280925
    22  C   -0.198345
    23  C    0.133470
    24  C   -0.187962
    25  C   -0.056556
    26  C   -0.302479
    27  C   -0.314862
    28  C   -0.263645
    29  C   -0.111229
    30  C    0.110104
    31  C    0.048349
    32  C   -0.300773
    33  C   -0.339891
    34  C   -0.096925
    35  C    0.173298
    36  C   -0.377237
    37  C   -0.099713
    38  C   -0.037700
    39  C   -0.118537
    40  C   -0.106751
    41  C   -0.114142
    42  C   -0.143226
    43  C    0.139057
    44  C   -0.381700
    45  H    0.117153
    46  H    0.114650
    47  H    0.103357
    48  H    0.084116
    49  H    0.089091
    50  H    0.116581
    51  H    0.104159
    52  H    0.122293
    53  H    0.108504
    54  H    0.102345
    55  H    0.115295
    56  H    0.059594
    57  H    0.136760
    58  H    0.060166
    59  H    0.110358
    60  H    0.298969
    61  H    0.067807
    62  H    0.100684
    63  H    0.118502
    64  H    0.116387
    65  H    0.066849
    66  H    0.085879
    67  H    0.095202
    68  H    0.088751
    69  H    0.101834
    70  H    0.116264
    71  H    0.087129
    72  H    0.105849
    73  H    0.122807
    74  H    0.083834
    75  H    0.133090
    76  H    0.096355
    77  H    0.100450
    78  H    0.105938
    79  H    0.037652
    80  H    0.127592
    81  H    0.072435
    82  H    0.320625
    83  H    0.304956
    84  H    0.095598
    85  H    0.106179
    86  H    0.133361
    87  H    0.081222
    88  H    0.078801
    89  H    0.094133
    90  H    0.141610
    91  H    0.089242
    92  H    0.067866
    93  H    0.061984
    94  H    0.083254
    95  H    0.087564
    96  H    0.074858
    97  H    0.085157
    98  H    0.101579
    99  H    0.117145
   100  H    0.115579
 Sum of Mulliken charges =  -0.00000

 Dipole moment (field-independent basis, Debye):
    X=              3.2327    Y=             -0.8929    Z=              2.3701  Tot=              4.1067
 Quadrupole moment (field-independent basis, Debye-Ang):
   XX=           -259.0114   YY=           -260.9926   ZZ=           -276.5127
   XY=            -21.8364   XZ=             30.7972   YZ=             -0.5788

 Normal termination of Gaussian 16 at Wed Jul 31 04:03:51 2019.
