 Gaussian 16, Revision A.03,
 Gaussian 16:  ES64L-G16RevA.03 25-Dec-2016

 -------------------------------------
 # td=(NStates=1) CAM-B3LYP/6-31G(d,p)
 -------------------------------------

 --
 TD
 --
 Symbolic Z-matrix:
 Charge =  0 Multiplicity = 1

                         Standard orientation:
 ---------------------------------------------------------------------
 Center     Atomic      Atomic             Coordinates (Angstroms)
 Number     Number       Type             X           Y           Z
 ---------------------------------------------------------------------
      1          8           0      -11.641147    0.121056   -1.598745
      2          8           0      -13.081147   -2.441549    1.421101
      3          8           0       10.663631   -1.169608   -2.034723
      4          8           0       14.544318   -1.015907   -0.145327
      5          6           0      -11.039959   -0.142449   -0.321555
      6          6           0      -11.582885   -1.266063   -1.221382
      7          6           0      -11.742671    0.359214    0.946685
      8          6           0      -12.950794   -1.847382   -0.936444
      9          6           0      -13.354461   -0.034365    0.802636
     10          6           0      -13.547908   -1.483914    0.345874
     11          6           0      -10.757860   -2.158371   -2.136671
     12          6           0       -9.603562    0.088865   -0.410174
     13          6           0      -11.161340   -0.220744    2.210758
     14          6           0      -11.670038    1.862351    0.852235
     15          6           0       -8.602473   -0.724713    0.092957
     16          6           0       -7.112559   -0.583585    0.193432
     17          6           0       -6.267365   -1.725952    0.555220
     18          6           0       -6.533568    0.644852   -0.081739
     19          6           0       -5.166771    0.961851    0.048210
     20          6           0       11.877530    0.061891    1.353745
     21          6           0       11.623337   -0.705686   -1.243067
     22          6           0       12.642905   -1.231480    1.485707
     23          6           0       13.443291   -1.843618    0.234090
     24          6           0       12.494995   -1.880963   -0.813484
     25          6           0       11.029411    0.035641    0.082927
     26          6           0       10.947694    0.183346    2.543230
     27          6           0       12.769630    1.283808    1.357932
     28          6           0       12.553600    0.249679   -2.077871
     29          6           0       -4.626413    2.155103   -0.334391
     30          6           0        9.857482    0.493018    0.065931
     31          6           0       -3.336057    2.632733   -0.450065
     32          6           0        8.568070    0.878097   -0.224329
     33          6           0       -2.983025    4.095094   -0.777374
     34          6           0       -2.349265    1.630124   -0.198269
     35          6           0        7.337160    0.081153   -0.030780
     36          6           0        7.542056   -1.348115    0.310309
     37          6           0        6.190479    0.759576   -0.155071
     38          6           0       -0.944375    1.867381   -0.308380
     39          6           0        4.916089    0.179978    0.036674
     40          6           0        0.012724    0.986805   -0.130589
     41          6           0        3.752271    0.929109   -0.146125
     42          6           0        1.411198    1.333956   -0.224254
     43          6           0        2.459283    0.495216    0.047218
     44          6           0        2.319864   -0.999427    0.224902
     45          1           0      -12.742220   -2.848596   -0.927251
     46          1           0      -13.598709   -1.469028   -1.810840
     47          1           0      -13.699994    0.217966    1.926463
     48          1           0      -13.830736    0.765393    0.125407
     49          1           0      -14.523581   -1.551374    0.407694
     50          1           0      -10.466348   -3.102004   -1.539071
     51          1           0      -11.212437   -2.221750   -3.060616
     52          1           0       -9.969245   -1.364834   -2.408720
     53          1           0       -9.255536    1.027186   -0.837916
     54          1           0      -10.189442    0.140095    2.306688
     55          1           0      -11.915498    0.194661    3.027574
     56          1           0      -11.337324   -1.334114    2.367588
     57          1           0      -11.921852    2.441628   -0.119030
     58          1           0      -12.294949    2.317600    1.646786
     59          1           0      -10.555512    2.149428    1.119845
     60          1           0      -12.045938   -2.065342    1.428259
     61          1           0       -8.802897   -1.715919    0.643166
     62          1           0       -5.685236   -2.167410   -0.375068
     63          1           0       -5.455292   -1.395215    1.316291
     64          1           0       -6.786196   -2.705212    1.016672
     65          1           0       -7.251412    1.455951   -0.178128
     66          1           0       -4.435216    0.214739    0.094227
     67          1           0       13.279118   -1.032224    2.298102
     68          1           0       11.998687   -1.991505    1.837164
     69          1           0       13.497360   -2.815313    0.694000
     70          1           0       12.973467   -2.223013   -1.690072
     71          1           0       11.603020   -2.621804   -0.524492
     72          1           0       11.341441    0.052770    3.502132
     73          1           0       10.309825    1.109494    2.284981
     74          1           0       10.025479   -0.639911    2.382326
     75          1           0       13.294595    1.195895    0.382005
     76          1           0       12.089098    1.978997    1.480170
     77          1           0       13.674680    1.268450    2.015814
     78          1           0       12.708605   -0.323209   -3.028873
     79          1           0       12.018225    1.152420   -2.601986
     80          1           0       13.437839    0.843556   -1.766063
     81          1           0       -5.276358    2.955580   -0.493152
     82          1           0        9.968352   -0.457415   -2.291453
     83          1           0       14.976146   -0.631939    0.721563
     84          1           0        8.448617    1.799958   -0.524452
     85          1           0       -2.633512    4.757219    0.064728
     86          1           0       -2.409279    4.276069   -1.728428
     87          1           0       -3.970714    4.640173   -0.759517
     88          1           0       -2.538892    0.656005   -0.001295
     89          1           0        6.548952   -1.892647    0.436354
     90          1           0        8.178562   -1.925151   -0.480383
     91          1           0        8.000539   -1.364173    1.247203
     92          1           0        6.126131    1.769773   -0.564605
     93          1           0       -0.668899    2.891879   -0.540317
     94          1           0        4.738371   -0.841370    0.275306
     95          1           0       -0.315583    0.090489    0.225770
     96          1           0        3.784266    1.947671   -0.217350
     97          1           0        1.647849    2.376330   -0.349597
     98          1           0        1.085296   -1.344593    0.358900
     99          1           0        2.820440   -1.589889   -0.436128
    100          1           0        2.834291   -1.316454    1.071227
 ---------------------------------------------------------------------

 SCF Done:  E(RCAM-B3LYP) =  -1857.32288657     A.U. after   15 cycles

 Excitation energies and oscillator strengths:

 Excited State   1:      Singlet-A      2.2659 eV  547.18 nm  f=2.9979  <S**2>=0.000
     163 ->166        -0.14860
     164 ->165         0.69029
 This state for optimization and/or second-order correction.
 Total Energy, E(TD-HF/TD-DFT) =  -1857.23961741
 Copying the excited state density for this state as the 1-particle RhoCI density.

 The electronic state is 1-A.
 Alpha  occ. eigenvalues --  -19.23394 -19.22720 -19.21802 -19.21063 -10.33094
 Alpha  occ. eigenvalues --  -10.31689 -10.31376 -10.30840 -10.28963 -10.28153
 Alpha  occ. eigenvalues --  -10.28110 -10.27847 -10.27702 -10.27637 -10.27582
 Alpha  occ. eigenvalues --  -10.27376 -10.27158 -10.26992 -10.26883 -10.26634
 Alpha  occ. eigenvalues --  -10.26566 -10.26511 -10.26491 -10.26308 -10.26260
 Alpha  occ. eigenvalues --  -10.26257 -10.26241 -10.26112 -10.26098 -10.25994
 Alpha  occ. eigenvalues --  -10.25965 -10.25926 -10.25652 -10.25533 -10.25525
 Alpha  occ. eigenvalues --  -10.25430 -10.25410 -10.25392 -10.25052 -10.24779
 Alpha  occ. eigenvalues --  -10.24732 -10.24630 -10.24318 -10.23791  -1.14486
 Alpha  occ. eigenvalues --   -1.12855  -1.09332  -1.05062  -0.93813  -0.93147
 Alpha  occ. eigenvalues --   -0.92423  -0.91318  -0.90978  -0.89976  -0.88172
 Alpha  occ. eigenvalues --   -0.87468  -0.87207  -0.85540  -0.84449  -0.82946
 Alpha  occ. eigenvalues --   -0.82050  -0.81134  -0.80434  -0.79157  -0.77714
 Alpha  occ. eigenvalues --   -0.77203  -0.76886  -0.76438  -0.76130  -0.75726
 Alpha  occ. eigenvalues --   -0.75661  -0.74265  -0.73598  -0.71152  -0.70146
 Alpha  occ. eigenvalues --   -0.68834  -0.67625  -0.65028  -0.64808  -0.64104
 Alpha  occ. eigenvalues --   -0.63786  -0.62571  -0.61682  -0.61257  -0.59630
 Alpha  occ. eigenvalues --   -0.59329  -0.59248  -0.59012  -0.57916  -0.56749
 Alpha  occ. eigenvalues --   -0.56200  -0.55785  -0.55137  -0.54714  -0.54222
 Alpha  occ. eigenvalues --   -0.53883  -0.53386  -0.53121  -0.52732  -0.52589
 Alpha  occ. eigenvalues --   -0.51619  -0.51494  -0.51352  -0.50840  -0.50341
 Alpha  occ. eigenvalues --   -0.49619  -0.49462  -0.49355  -0.49308  -0.48863
 Alpha  occ. eigenvalues --   -0.48570  -0.48325  -0.48001  -0.47604  -0.47404
 Alpha  occ. eigenvalues --   -0.46997  -0.46452  -0.45889  -0.45697  -0.45312
 Alpha  occ. eigenvalues --   -0.45093  -0.44936  -0.44117  -0.44050  -0.44010
 Alpha  occ. eigenvalues --   -0.43297  -0.43093  -0.42838  -0.42672  -0.42536
 Alpha  occ. eigenvalues --   -0.42350  -0.41754  -0.41622  -0.41561  -0.40957
 Alpha  occ. eigenvalues --   -0.40817  -0.40773  -0.40636  -0.40166  -0.39763
 Alpha  occ. eigenvalues --   -0.39719  -0.39588  -0.39537  -0.39302  -0.39066
 Alpha  occ. eigenvalues --   -0.38985  -0.38509  -0.38340  -0.37558  -0.36720
 Alpha  occ. eigenvalues --   -0.36470  -0.35734  -0.35063  -0.34071  -0.33371
 Alpha  occ. eigenvalues --   -0.33176  -0.32324  -0.31943  -0.31149  -0.30952
 Alpha  occ. eigenvalues --   -0.30591  -0.28249  -0.23981  -0.20164
 Alpha virt. eigenvalues --   -0.05837  -0.01000   0.03290   0.06356   0.08362
 Alpha virt. eigenvalues --    0.09147   0.10297   0.10384   0.11563   0.12084
 Alpha virt. eigenvalues --    0.12257   0.12651   0.13201   0.13477   0.13871

 Mulliken charges:
               1
     1  O   -0.515546
     2  O   -0.573293
     3  O   -0.556252
     4  O   -0.558129
     5  C    0.245277
     6  C    0.183852
     7  C   -0.013864
     8  C   -0.161153
     9  C   -0.197551
    10  C    0.144101
    11  C   -0.324401
    12  C   -0.135075
    13  C   -0.309692
    14  C   -0.314853
    15  C   -0.072552
    16  C    0.091716
    17  C   -0.381624
    18  C   -0.102517
    19  C   -0.064853
    20  C   -0.002089
    21  C    0.291937
    22  C   -0.232156
    23  C    0.190041
    24  C   -0.169718
    25  C   -0.056550
    26  C   -0.303293
    27  C   -0.276419
    28  C   -0.322449
    29  C   -0.102767
    30  C    0.082209
    31  C    0.085261
    32  C   -0.252051
    33  C   -0.380502
    34  C   -0.104923
    35  C    0.128632
    36  C   -0.372631
    37  C   -0.111223
    38  C   -0.075683
    39  C   -0.087726
    40  C   -0.060272
    41  C   -0.115922
    42  C   -0.143757
    43  C    0.136036
    44  C   -0.376274
    45  H    0.119396
    46  H    0.108403
    47  H    0.085204
    48  H    0.107129
    49  H    0.104308
    50  H    0.111043
    51  H    0.127829
    52  H    0.120011
    53  H    0.103456
    54  H    0.131524
    55  H    0.102039
    56  H    0.112303
    57  H    0.126375
    58  H    0.100445
    59  H    0.083523
    60  H    0.291682
    61  H    0.060877
    62  H    0.117054
    63  H    0.117799
    64  H    0.096313
    65  H    0.081097
    66  H    0.077781
    67  H    0.076278
    68  H    0.099465
    69  H    0.102298
    70  H    0.112454
    71  H    0.090927
    72  H    0.107268
    73  H    0.105922
    74  H    0.069826
    75  H    0.112441
    76  H    0.108278
    77  H    0.080353
    78  H    0.107433
    79  H    0.059796
    80  H    0.128287
    81  H    0.059117
    82  H    0.323552
    83  H    0.316813
    84  H    0.095220
    85  H    0.128245
    86  H    0.134946
    87  H    0.106200
    88  H    0.076345
    89  H    0.097243
    90  H    0.128160
    91  H    0.139033
    92  H    0.089682
    93  H    0.071627
    94  H    0.074168
    95  H    0.073337
    96  H    0.068323
    97  H    0.083179
    98  H    0.072310
    99  H    0.137783
   100  H    0.126803
 Sum of Mulliken charges =  -0.00000

 Dipole moment (field-independent basis, Debye):
    X=              3.5900    Y=              1.6694    Z=              1.7094  Tot=              4.3124
 Quadrupole moment (field-independent basis, Debye-Ang):
   XX=           -300.0771   YY=           -261.6479   ZZ=           -276.0057
   XY=            -10.6950   XZ=             27.5821   YZ=             -2.3857

 Normal termination of Gaussian 16 at Thu Aug  1 23:29:37 2019.
