 Gaussian 16, Revision A.03,
 Gaussian 16:  ES64L-G16RevA.03 25-Dec-2016

 -------------------------------------
 # td=(NStates=1) CAM-B3LYP/6-31G(d,p)
 -------------------------------------

 --
 TD
 --
 Symbolic Z-matrix:
 Charge =  0 Multiplicity = 1

                         Standard orientation:
 ---------------------------------------------------------------------
 Center     Atomic      Atomic             Coordinates (Angstroms)
 Number     Number       Type             X           Y           Z
 ---------------------------------------------------------------------
      1          8           0      -11.710231    0.506267   -1.339364
      2          8           0      -13.024850   -2.747803    0.819081
      3          8           0       10.770017   -0.704387   -2.201682
      4          8           0       14.634792   -1.072550   -0.097878
      5          6           0      -11.012653   -0.061957   -0.265330
      6          6           0      -11.633047   -0.901855   -1.324772
      7          6           0      -11.804264    0.166663    1.039151
      8          6           0      -13.084724   -1.607017   -1.193974
      9          6           0      -13.258432   -0.210140    0.951485
     10          6           0      -13.590520   -1.567586    0.220281
     11          6           0      -10.811308   -1.544826   -2.323883
     12          6           0       -9.516592    0.221136   -0.288317
     13          6           0      -11.091284   -0.529396    2.189158
     14          6           0      -11.678415    1.702824    1.375973
     15          6           0       -8.592686   -0.684036    0.201706
     16          6           0       -7.228030   -0.469988    0.231227
     17          6           0       -6.343638   -1.700231    0.263912
     18          6           0       -6.608538    0.727737    0.019718
     19          6           0       -5.246625    0.991062   -0.136153
     20          6           0       11.850542   -0.064770    1.347288
     21          6           0       11.684401   -0.396571   -1.258041
     22          6           0       12.642317   -1.349367    1.375732
     23          6           0       13.395394   -1.772198    0.145318
     24          6           0       12.459773   -1.743378   -1.139613
     25          6           0       11.108788    0.067743    0.018656
     26          6           0       10.913544   -0.027232    2.634461
     27          6           0       12.909209    1.185265    1.399678
     28          6           0       12.714053    0.695205   -2.031521
     29          6           0       -4.696562    2.273563   -0.372195
     30          6           0        9.915008    0.492444    0.045596
     31          6           0       -3.317232    2.492307   -0.326589
     32          6           0        8.588538    0.850848   -0.107441
     33          6           0       -2.906246    3.954415   -0.536263
     34          6           0       -2.319111    1.626424   -0.217907
     35          6           0        7.450154   -0.030513   -0.034384
     36          6           0        7.614206   -1.517903    0.381358
     37          6           0        6.216806    0.570802   -0.176770
     38          6           0       -0.982491    1.931542   -0.074541
     39          6           0        4.825861    0.074518   -0.086578
     40          6           0       -0.026318    0.901202   -0.031185
     41          6           0        3.712776    0.804358   -0.162841
     42          6           0        1.312216    1.125959   -0.009433
     43          6           0        2.356677    0.205347   -0.001274
     44          6           0        2.196432   -1.189011    0.261154
     45          1           0      -13.072123   -2.507965   -1.789497
     46          1           0      -13.798506   -0.947559   -1.992152
     47          1           0      -13.626743   -0.232334    2.035971
     48          1           0      -13.794967    0.465655    0.169414
     49          1           0      -14.718762   -1.626903    0.339683
     50          1           0      -10.644662   -2.639464   -2.027037
     51          1           0      -11.317262   -1.369571   -3.197131
     52          1           0       -9.968580   -1.031555   -2.489667
     53          1           0       -9.276693    1.276487   -0.615037
     54          1           0      -10.393177    0.368542    2.667039
     55          1           0      -11.972149   -0.869280    3.126106
     56          1           0      -10.748015   -1.681055    1.913258
     57          1           0      -12.295794    2.215007    0.676723
     58          1           0      -12.081438    1.650170    2.528152
     59          1           0      -10.777368    2.172675    1.351432
     60          1           0      -12.140220   -2.691185    0.939447
     61          1           0       -9.152216   -1.648958    0.698359
     62          1           0       -5.664820   -1.780714   -0.691823
     63          1           0       -5.616840   -1.592491    1.132560
     64          1           0       -6.752492   -2.628508    0.416967
     65          1           0       -7.177890    1.684358    0.053178
     66          1           0       -4.443732    0.254050    0.026040
     67          1           0       13.268443   -1.665985    2.263204
     68          1           0       11.871498   -2.062908    1.350268
     69          1           0       13.797294   -2.834801    0.301287
     70          1           0       13.086271   -2.049681   -1.924253
     71          1           0       11.746115   -2.541552   -0.941829
     72          1           0       11.325415   -0.317592    3.532841
     73          1           0       10.536090    0.996721    2.841459
     74          1           0        9.904672   -0.556421    2.608030
     75          1           0       13.782677    0.965942    0.659287
     76          1           0       12.185483    2.168974    1.155500
     77          1           0       13.214246    1.328660    2.547880
     78          1           0       13.047537    0.318849   -3.067332
     79          1           0       12.171434    1.712793   -2.262202
     80          1           0       13.436665    0.943831   -1.303970
     81          1           0       -5.495098    3.137986   -0.580341
     82          1           0        9.874259   -0.052016   -2.138183
     83          1           0       15.192436   -0.911700    0.588278
     84          1           0        8.242608    1.962383   -0.114237
     85          1           0       -2.569376    4.473329    0.472222
     86          1           0       -2.042271    3.979356   -1.201312
     87          1           0       -3.699882    4.694276   -1.018468
     88          1           0       -2.741388    0.499432   -0.088586
     89          1           0        6.552573   -2.102242    0.292527
     90          1           0        8.258999   -1.967118   -0.507046
     91          1           0        8.012830   -1.647322    1.386308
     92          1           0        6.198799    1.638341   -0.324944
     93          1           0       -0.357457    2.776169   -0.157951
     94          1           0        4.772656   -1.099246    0.300944
     95          1           0       -0.362944   -0.005443    0.226186
     96          1           0        3.836722    1.801081   -0.152743
     97          1           0        1.534456    2.299654   -0.082707
     98          1           0        1.163485   -1.525169   -0.043344
     99          1           0        2.957306   -1.733026   -0.557148
    100          1           0        2.666222   -1.477513    1.210044
 ---------------------------------------------------------------------

 SCF Done:  E(RCAM-B3LYP) =  -1857.26235667     A.U. after   15 cycles

 Excitation energies and oscillator strengths:

 Excited State   1:      Singlet-A      2.1801 eV  568.70 nm  f=2.9400  <S**2>=0.000
     163 ->166        -0.13384
     164 ->165         0.69512
 This state for optimization and/or second-order correction.
 Total Energy, E(TD-HF/TD-DFT) =  -1857.18223865
 Copying the excited state density for this state as the 1-particle RhoCI density.

 The electronic state is 1-A.
 Alpha  occ. eigenvalues --  -19.22141 -19.20687 -19.20050 -19.19984 -10.32144
 Alpha  occ. eigenvalues --  -10.31743 -10.31688 -10.31636 -10.31358 -10.29799
 Alpha  occ. eigenvalues --  -10.29618 -10.29320 -10.28694 -10.28249 -10.28172
 Alpha  occ. eigenvalues --  -10.28127 -10.27974 -10.27971 -10.27844 -10.27768
 Alpha  occ. eigenvalues --  -10.27656 -10.27598 -10.27539 -10.27460 -10.27283
 Alpha  occ. eigenvalues --  -10.27153 -10.27024 -10.27012 -10.27000 -10.26946
 Alpha  occ. eigenvalues --  -10.26931 -10.26739 -10.26604 -10.26587 -10.26542
 Alpha  occ. eigenvalues --  -10.26175 -10.26041 -10.25445 -10.25323 -10.25226
 Alpha  occ. eigenvalues --  -10.25017 -10.24906 -10.24489 -10.23539  -1.17014
 Alpha  occ. eigenvalues --   -1.10035  -1.09778  -1.09360  -0.93452  -0.93367
 Alpha  occ. eigenvalues --   -0.92586  -0.91771  -0.90882  -0.90527  -0.88187
 Alpha  occ. eigenvalues --   -0.86570  -0.86234  -0.85373  -0.84016  -0.83573
 Alpha  occ. eigenvalues --   -0.82794  -0.81301  -0.79351  -0.78665  -0.76890
 Alpha  occ. eigenvalues --   -0.76284  -0.76167  -0.75887  -0.75367  -0.74992
 Alpha  occ. eigenvalues --   -0.74096  -0.73973  -0.73194  -0.70423  -0.70103
 Alpha  occ. eigenvalues --   -0.68772  -0.67191  -0.65510  -0.65278  -0.64760
 Alpha  occ. eigenvalues --   -0.64285  -0.63058  -0.61823  -0.60414  -0.60202
 Alpha  occ. eigenvalues --   -0.59302  -0.59153  -0.57800  -0.56705  -0.56631
 Alpha  occ. eigenvalues --   -0.55780  -0.55075  -0.54803  -0.54616  -0.53849
 Alpha  occ. eigenvalues --   -0.53574  -0.53257  -0.52256  -0.51684  -0.51627
 Alpha  occ. eigenvalues --   -0.51294  -0.51152  -0.50358  -0.50326  -0.50230
 Alpha  occ. eigenvalues --   -0.49511  -0.49183  -0.49106  -0.48760  -0.48683
 Alpha  occ. eigenvalues --   -0.48470  -0.47816  -0.47527  -0.47214  -0.46658
 Alpha  occ. eigenvalues --   -0.46520  -0.46143  -0.45966  -0.45739  -0.44916
 Alpha  occ. eigenvalues --   -0.44714  -0.44586  -0.44227  -0.43718  -0.43558
 Alpha  occ. eigenvalues --   -0.43213  -0.43081  -0.43003  -0.42577  -0.42337
 Alpha  occ. eigenvalues --   -0.42257  -0.42177  -0.42102  -0.41835  -0.41278
 Alpha  occ. eigenvalues --   -0.41104  -0.41026  -0.40409  -0.40241  -0.40140
 Alpha  occ. eigenvalues --   -0.39825  -0.39692  -0.39547  -0.38627  -0.38440
 Alpha  occ. eigenvalues --   -0.38260  -0.37719  -0.37494  -0.36944  -0.36805
 Alpha  occ. eigenvalues --   -0.36273  -0.35636  -0.35476  -0.34616  -0.33749
 Alpha  occ. eigenvalues --   -0.32450  -0.32040  -0.31736  -0.31678  -0.31226
 Alpha  occ. eigenvalues --   -0.29151  -0.27867  -0.24978  -0.20151
 Alpha virt. eigenvalues --   -0.06448  -0.01449   0.02108   0.05885   0.06403
 Alpha virt. eigenvalues --    0.07948   0.09535   0.10369   0.10942   0.11651
 Alpha virt. eigenvalues --    0.11756   0.11939   0.12307   0.12320   0.13222

 Mulliken charges:
               1
     1  O   -0.498999
     2  O   -0.548073
     3  O   -0.578659
     4  O   -0.555876
     5  C    0.192969
     6  C    0.222373
     7  C    0.048435
     8  C   -0.184575
     9  C   -0.194317
    10  C    0.148896
    11  C   -0.316371
    12  C   -0.110132
    13  C   -0.280548
    14  C   -0.313109
    15  C   -0.087649
    16  C    0.102297
    17  C   -0.370553
    18  C   -0.117658
    19  C   -0.059310
    20  C    0.020153
    21  C    0.292732
    22  C   -0.191987
    23  C    0.145082
    24  C   -0.178444
    25  C   -0.065760
    26  C   -0.330982
    27  C   -0.300967
    28  C   -0.303680
    29  C   -0.129993
    30  C    0.133201
    31  C    0.120879
    32  C   -0.290039
    33  C   -0.371575
    34  C   -0.120849
    35  C    0.135641
    36  C   -0.356637
    37  C   -0.126020
    38  C   -0.079344
    39  C   -0.091490
    40  C   -0.061906
    41  C   -0.077517
    42  C   -0.127476
    43  C    0.113852
    44  C   -0.382692
    45  H    0.118036
    46  H    0.069786
    47  H    0.102429
    48  H    0.111111
    49  H    0.103423
    50  H    0.102947
    51  H    0.117831
    52  H    0.119846
    53  H    0.107194
    54  H    0.115369
    55  H    0.059173
    56  H    0.065612
    57  H    0.123250
    58  H    0.078156
    59  H    0.114248
    60  H    0.292049
    61  H    0.075317
    62  H    0.113540
    63  H    0.112800
    64  H    0.115661
    65  H    0.080733
    66  H    0.078289
    67  H    0.087972
    68  H    0.112020
    69  H    0.070077
    70  H    0.124650
    71  H    0.109351
    72  H    0.114676
    73  H    0.105177
    74  H    0.100743
    75  H    0.123320
    76  H    0.082522
    77  H    0.086255
    78  H    0.109412
    79  H    0.068781
    80  H    0.115921
    81  H    0.088657
    82  H    0.303771
    83  H    0.294413
    84  H    0.112279
    85  H    0.105802
    86  H    0.123597
    87  H    0.093991
    88  H    0.070679
    89  H    0.093767
    90  H    0.120928
    91  H    0.135074
    92  H    0.071947
    93  H    0.088112
    94  H    0.059987
    95  H    0.071923
    96  H    0.082820
    97  H    0.064395
    98  H    0.119421
    99  H    0.095487
   100  H    0.141953
 Sum of Mulliken charges =  -0.00000

 Dipole moment (field-independent basis, Debye):
    X=              1.2628    Y=             -0.0257    Z=              3.1190  Tot=              3.3650
 Quadrupole moment (field-independent basis, Debye-Ang):
   XX=           -311.6727   YY=           -265.5598   ZZ=           -277.0635
   XY=             -9.2886   XZ=             37.9787   YZ=             -1.8655

 Normal termination of Gaussian 16 at Fri Aug  2 04:02:48 2019.
