 Gaussian 16, Revision A.03,
 Gaussian 16:  ES64L-G16RevA.03 25-Dec-2016

 -------------------------------------
 # td=(NStates=1) CAM-B3LYP/6-31G(d,p)
 -------------------------------------

 --
 TD
 --
 Symbolic Z-matrix:
 Charge =  0 Multiplicity = 1

                         Standard orientation:
 ---------------------------------------------------------------------
 Center     Atomic      Atomic             Coordinates (Angstroms)
 Number     Number       Type             X           Y           Z
 ---------------------------------------------------------------------
      1          8           0      -11.712539    0.293232   -1.401813
      2          8           0      -13.258167   -2.500523    1.562092
      3          8           0       10.625892   -1.080185   -2.050106
      4          8           0       14.560123   -0.787737    0.037791
      5          6           0      -11.079386   -0.116901   -0.246525
      6          6           0      -11.717538   -1.099066   -1.200893
      7          6           0      -11.769066    0.303374    0.982913
      8          6           0      -13.039397   -1.840789   -0.943298
      9          6           0      -13.239385   -0.053418    0.996306
     10          6           0      -13.629849   -1.486490    0.644621
     11          6           0      -10.836821   -1.835406   -2.251701
     12          6           0       -9.606109    0.132722   -0.448037
     13          6           0      -11.030616   -0.144186    2.245205
     14          6           0      -11.769147    1.869165    1.030289
     15          6           0       -8.611363   -0.745372   -0.065566
     16          6           0       -7.207214   -0.564161   -0.030573
     17          6           0       -6.293134   -1.805696    0.257757
     18          6           0       -6.575427    0.685796   -0.175580
     19          6           0       -5.205403    0.909540   -0.161375
     20          6           0       11.891857   -0.022789    1.409331
     21          6           0       11.707241   -0.633663   -1.131441
     22          6           0       12.715615   -1.361727    1.496685
     23          6           0       13.484264   -1.694942    0.306936
     24          6           0       12.578235   -1.816313   -0.943964
     25          6           0       11.134577   -0.034730    0.031218
     26          6           0       10.847957    0.059086    2.596757
     27          6           0       12.765545    1.309847    1.436092
     28          6           0       12.587061    0.464915   -1.895622
     29          6           0       -4.666193    2.214359   -0.272192
     30          6           0        9.886475    0.435975    0.004516
     31          6           0       -3.333078    2.552777   -0.335718
     32          6           0        8.642482    0.873473   -0.182318
     33          6           0       -2.985343    3.982402   -0.530073
     34          6           0       -2.303673    1.631400   -0.326331
     35          6           0        7.423443    0.020312   -0.049333
     36          6           0        7.561576   -1.449661    0.167641
     37          6           0        6.176821    0.564963   -0.292779
     38          6           0       -0.954309    1.906287   -0.370076
     39          6           0        4.875971    0.046802   -0.034428
     40          6           0        0.109102    0.930562   -0.370759
     41          6           0        3.776480    0.878128   -0.063622
     42          6           0        1.398751    1.205842   -0.202291
     43          6           0        2.444398    0.415424   -0.141006
     44          6           0        2.329412   -1.047154    0.083793
     45          1           0      -12.958148   -3.029253   -1.144683
     46          1           0      -13.773624   -1.488353   -1.610426
     47          1           0      -13.723736    0.099457    1.985269
     48          1           0      -13.541821    0.627307    0.365266
     49          1           0      -14.648103   -1.407175    0.724025
     50          1           0      -10.516389   -2.704914   -2.025057
     51          1           0      -11.430143   -1.973191   -3.098569
     52          1           0       -9.840564   -1.265289   -2.198193
     53          1           0       -9.521971    1.090103   -1.190056
     54          1           0       -9.962406    0.031745    2.183826
     55          1           0      -11.581954    0.188883    3.121225
     56          1           0      -11.262853   -1.240468    2.301958
     57          1           0      -12.068456    2.074480    0.068358
     58          1           0      -12.404959    2.499543    1.865214
     59          1           0      -10.674032    2.076437    1.075227
     60          1           0      -12.374641   -2.757879    1.291186
     61          1           0       -8.787604   -1.785825    0.254913
     62          1           0       -5.979333   -2.224970   -0.680283
     63          1           0       -5.486680   -1.535201    0.974585
     64          1           0       -6.892512   -2.630984    0.655662
     65          1           0       -7.274850    1.728385   -0.017875
     66          1           0       -4.656469    0.165941   -0.093822
     67          1           0       13.557051   -1.252550    2.363427
     68          1           0       12.218856   -2.257514    1.784121
     69          1           0       13.912901   -2.904327    0.300933
     70          1           0       13.205495   -1.911601   -1.850420
     71          1           0       11.885592   -2.420639   -0.644195
     72          1           0       11.394410   -0.014353    3.586277
     73          1           0       10.310856    0.977807    2.664417
     74          1           0       10.298747   -0.751469    2.615319
     75          1           0       13.688441    1.239613    0.818187
     76          1           0       12.218404    2.226757    1.117999
     77          1           0       13.277800    1.404531    2.481352
     78          1           0       12.923526   -0.160989   -2.792171
     79          1           0       11.795802    1.525944   -2.262129
     80          1           0       13.355086    0.984881   -1.409035
     81          1           0       -5.364146    3.052071   -0.325666
     82          1           0        9.926911   -0.282561   -2.002858
     83          1           0       14.956795   -0.555652    0.908367
     84          1           0        8.533371    1.869506   -0.456559
     85          1           0       -2.187684    4.216503    0.317632
     86          1           0       -2.558684    4.030865   -1.674671
     87          1           0       -3.813264    4.616889   -0.337625
     88          1           0       -2.717681    0.622976   -0.019635
     89          1           0        6.537788   -2.157394   -0.157618
     90          1           0        8.463389   -1.732443   -0.516321
     91          1           0        7.878356   -1.578860    1.190763
     92          1           0        6.281282    1.604169   -0.482762
     93          1           0       -0.667736    2.915431   -0.514788
     94          1           0        4.811145   -1.043937    0.272364
     95          1           0       -0.138737   -0.061423   -0.299699
     96          1           0        4.054541    2.105224   -0.356882
     97          1           0        1.675889    2.310602   -0.528848
     98          1           0        1.328972   -1.493445   -0.135610
     99          1           0        2.913857   -1.460000   -0.718414
    100          1           0        2.772568   -1.445809    0.925949
 ---------------------------------------------------------------------

 SCF Done:  E(RCAM-B3LYP) =  -1857.25575737     A.U. after   16 cycles

 Excitation energies and oscillator strengths:

 Excited State   1:      Singlet-A      1.8983 eV  653.12 nm  f=3.0411  <S**2>=0.000
     163 ->166         0.12218
     164 ->165         0.70366
     164 <-165        -0.12281
 This state for optimization and/or second-order correction.
 Total Energy, E(TD-HF/TD-DFT) =  -1857.18599488
 Copying the excited state density for this state as the 1-particle RhoCI density.

 The electronic state is 1-A.
 Alpha  occ. eigenvalues --  -19.22957 -19.22604 -19.21749 -19.21123 -10.32940
 Alpha  occ. eigenvalues --  -10.32596 -10.31488 -10.31363 -10.30785 -10.30515
 Alpha  occ. eigenvalues --  -10.28123 -10.28067 -10.28057 -10.28043 -10.27917
 Alpha  occ. eigenvalues --  -10.27852 -10.27843 -10.27714 -10.27704 -10.27690
 Alpha  occ. eigenvalues --  -10.27366 -10.27263 -10.27230 -10.27008 -10.26718
 Alpha  occ. eigenvalues --  -10.26700 -10.26689 -10.26672 -10.26635 -10.26561
 Alpha  occ. eigenvalues --  -10.26489 -10.26001 -10.25917 -10.25764 -10.25631
 Alpha  occ. eigenvalues --  -10.25461 -10.25301 -10.24702 -10.24638 -10.24435
 Alpha  occ. eigenvalues --  -10.24302 -10.23594 -10.23388 -10.23298  -1.18184
 Alpha  occ. eigenvalues --   -1.10548  -1.10056  -1.06746  -0.93542  -0.93416
 Alpha  occ. eigenvalues --   -0.92663  -0.91581  -0.91045  -0.90502  -0.87924
 Alpha  occ. eigenvalues --   -0.87074  -0.86090  -0.85438  -0.85167  -0.83509
 Alpha  occ. eigenvalues --   -0.82467  -0.80913  -0.80335  -0.79417  -0.77979
 Alpha  occ. eigenvalues --   -0.76849  -0.76630  -0.76145  -0.76053  -0.75548
 Alpha  occ. eigenvalues --   -0.75332  -0.74598  -0.73585  -0.71048  -0.69828
 Alpha  occ. eigenvalues --   -0.68974  -0.67872  -0.65964  -0.65587  -0.65106
 Alpha  occ. eigenvalues --   -0.64799  -0.62942  -0.61116  -0.60011  -0.59346
 Alpha  occ. eigenvalues --   -0.58976  -0.58625  -0.57206  -0.56460  -0.56306
 Alpha  occ. eigenvalues --   -0.55835  -0.55421  -0.54848  -0.54801  -0.53870
 Alpha  occ. eigenvalues --   -0.53759  -0.53223  -0.53077  -0.52942  -0.52562
 Alpha  occ. eigenvalues --   -0.51382  -0.51142  -0.50844  -0.50736  -0.50270
 Alpha  occ. eigenvalues --   -0.49663  -0.49596  -0.49464  -0.48832  -0.48740
 Alpha  occ. eigenvalues --   -0.48632  -0.48567  -0.48480  -0.48145  -0.47218
 Alpha  occ. eigenvalues --   -0.47025  -0.46294  -0.46161  -0.45801  -0.45474
 Alpha  occ. eigenvalues --   -0.45254  -0.45046  -0.44443  -0.44357  -0.44240
 Alpha  occ. eigenvalues --   -0.43735  -0.43686  -0.43178  -0.43023  -0.42701
 Alpha  occ. eigenvalues --   -0.42555  -0.42409  -0.41813  -0.41765  -0.41217
 Alpha  occ. eigenvalues --   -0.41201  -0.40991  -0.40451  -0.40406  -0.40174
 Alpha  occ. eigenvalues --   -0.39702  -0.39557  -0.39240  -0.39065  -0.38920
 Alpha  occ. eigenvalues --   -0.38750  -0.38423  -0.38042  -0.37671  -0.37204
 Alpha  occ. eigenvalues --   -0.37015  -0.35939  -0.35221  -0.34766  -0.34170
 Alpha  occ. eigenvalues --   -0.32863  -0.32791  -0.32343  -0.32060  -0.30228
 Alpha  occ. eigenvalues --   -0.29474  -0.27898  -0.24532  -0.19074
 Alpha virt. eigenvalues --   -0.07244  -0.01276   0.02587   0.05486   0.06603
 Alpha virt. eigenvalues --    0.09221   0.09631   0.10988   0.11305   0.12037
 Alpha virt. eigenvalues --    0.12662   0.12892   0.13472   0.13553   0.13821

 Mulliken charges:
               1
     1  O   -0.488661
     2  O   -0.531956
     3  O   -0.586881
     4  O   -0.538735
     5  C    0.210392
     6  C    0.235579
     7  C   -0.015740
     8  C   -0.259307
     9  C   -0.173600
    10  C    0.152159
    11  C   -0.325071
    12  C   -0.141292
    13  C   -0.295405
    14  C   -0.312757
    15  C   -0.078571
    16  C    0.054956
    17  C   -0.377354
    18  C   -0.108843
    19  C   -0.019043
    20  C    0.028047
    21  C    0.218042
    22  C   -0.215035
    23  C    0.162289
    24  C   -0.147774
    25  C   -0.032946
    26  C   -0.299783
    27  C   -0.318572
    28  C   -0.257166
    29  C   -0.131979
    30  C    0.108567
    31  C    0.104634
    32  C   -0.278456
    33  C   -0.363216
    34  C   -0.094865
    35  C    0.111755
    36  C   -0.366243
    37  C   -0.113257
    38  C   -0.103918
    39  C   -0.080788
    40  C   -0.080353
    41  C   -0.114630
    42  C   -0.097964
    43  C    0.124663
    44  C   -0.389940
    45  H    0.091775
    46  H    0.128902
    47  H    0.097519
    48  H    0.112519
    49  H    0.102068
    50  H    0.112195
    51  H    0.115791
    52  H    0.112626
    53  H    0.122573
    54  H    0.111580
    55  H    0.105336
    56  H    0.068720
    57  H    0.127459
    58  H    0.088826
    59  H    0.090964
    60  H    0.309539
    61  H    0.080364
    62  H    0.135393
    63  H    0.125549
    64  H    0.107093
    65  H    0.071168
    66  H    0.058349
    67  H    0.067159
    68  H    0.122755
    69  H    0.044853
    70  H    0.122511
    71  H    0.114806
    72  H    0.086158
    73  H    0.120360
    74  H    0.116466
    75  H    0.114895
    76  H    0.118047
    77  H    0.082445
    78  H    0.107387
    79  H    0.019289
    80  H    0.138092
    81  H    0.080615
    82  H    0.311504
    83  H    0.307855
    84  H    0.117232
    85  H    0.111157
    86  H    0.115703
    87  H    0.112306
    88  H    0.072090
    89  H    0.086836
    90  H    0.126248
    91  H    0.126799
    92  H    0.068910
    93  H    0.087474
    94  H    0.090607
    95  H    0.071203
    96  H    0.065153
    97  H    0.059982
    98  H    0.102400
    99  H    0.127895
   100  H    0.135521
 Sum of Mulliken charges =  -0.00000

 Dipole moment (field-independent basis, Debye):
    X=              2.8747    Y=             -0.5124    Z=              2.4031  Tot=              3.7817
 Quadrupole moment (field-independent basis, Debye-Ang):
   XX=           -280.9372   YY=           -259.9153   ZZ=           -281.2194
   XY=              7.8463   XZ=             45.6942   YZ=             -0.2596

 Normal termination of Gaussian 16 at Wed Jul 31 06:06:05 2019.
