 Gaussian 16, Revision A.03,
 Gaussian 16:  ES64L-G16RevA.03 25-Dec-2016

 -------------------------------------
 # td=(NStates=1) CAM-B3LYP/6-31G(d,p)
 -------------------------------------

 --
 TD
 --
 Symbolic Z-matrix:
 Charge =  0 Multiplicity = 1

                         Standard orientation:
 ---------------------------------------------------------------------
 Center     Atomic      Atomic             Coordinates (Angstroms)
 Number     Number       Type             X           Y           Z
 ---------------------------------------------------------------------
      1          8           0      -11.657303    0.277676   -1.553064
      2          8           0      -13.030512   -2.453655    1.453511
      3          8           0       10.668784   -1.101248   -2.091197
      4          8           0       14.517069   -0.907177   -0.086815
      5          6           0      -11.023970   -0.041459   -0.366782
      6          6           0      -11.673010   -1.177603   -1.194822
      7          6           0      -11.824176    0.475672    0.973477
      8          6           0      -13.012707   -1.820106   -0.899896
      9          6           0      -13.206772   -0.118435    0.987303
     10          6           0      -13.541590   -1.512151    0.493229
     11          6           0      -10.828346   -2.010220   -2.183170
     12          6           0       -9.576646    0.168858   -0.361855
     13          6           0      -11.107360   -0.088323    2.255112
     14          6           0      -11.799157    1.883530    1.020191
     15          6           0       -8.647574   -0.756157    0.111242
     16          6           0       -7.184662   -0.476331    0.192914
     17          6           0       -6.363207   -1.674106    0.351492
     18          6           0       -6.652144    0.677973   -0.071955
     19          6           0       -5.298428    0.969172   -0.145437
     20          6           0       11.853446   -0.004458    1.454950
     21          6           0       11.694193   -0.578633   -1.237059
     22          6           0       12.691907   -1.316912    1.513725
     23          6           0       13.465043   -1.750505    0.258115
     24          6           0       12.550634   -1.776139   -0.949486
     25          6           0       11.071930    0.020451    0.124032
     26          6           0       10.922746    0.048263    2.613523
     27          6           0       12.675395    1.368092    1.554484
     28          6           0       12.485990    0.522046   -1.927512
     29          6           0       -4.699688    2.096145   -0.341239
     30          6           0        9.892752    0.425049    0.086337
     31          6           0       -3.339908    2.545000   -0.552316
     32          6           0        8.605474    0.937196   -0.048541
     33          6           0       -2.949832    3.987267   -0.694476
     34          6           0       -2.253726    1.607594   -0.376720
     35          6           0        7.399008    0.122299    0.020030
     36          6           0        7.623594   -1.367770    0.245938
     37          6           0        6.100581    0.790019   -0.205734
     38          6           0       -0.883141    1.825625   -0.366246
     39          6           0        4.900521    0.116282   -0.185342
     40          6           0        0.066034    0.815240   -0.192398
     41          6           0        3.758280    0.812930   -0.163281
     42          6           0        1.402632    1.144185   -0.226833
     43          6           0        2.534011    0.297430   -0.167249
     44          6           0        2.396140   -1.211321   -0.060498
     45          1           0      -12.933570   -2.715220   -0.997598
     46          1           0      -13.796618   -1.531661   -1.593281
     47          1           0      -13.753366    0.108432    1.885943
     48          1           0      -13.773764    0.263892    0.265677
     49          1           0      -14.661341   -1.648812    0.605997
     50          1           0      -10.450825   -2.913643   -1.567052
     51          1           0      -11.535703   -2.264287   -2.954281
     52          1           0       -9.851900   -1.520582   -2.466941
     53          1           0       -9.146493    1.164563   -0.654327
     54          1           0       -9.996968    0.338474    2.601290
     55          1           0      -11.696593    0.102816    3.225893
     56          1           0      -10.970958   -1.289430    2.045050
     57          1           0      -12.002965    2.598808    0.086197
     58          1           0      -12.322342    2.225363    1.949560
     59          1           0      -10.685922    2.201516    1.251581
     60          1           0      -12.103993   -2.498374    1.463006
     61          1           0       -9.015136   -1.740970    0.631961
     62          1           0       -5.692243   -2.057936   -0.519191
     63          1           0       -5.383075   -1.439927    0.848274
     64          1           0       -6.889553   -2.555629    0.803798
     65          1           0       -7.423441    1.601762    0.009982
     66          1           0       -4.704718   -0.005428    0.014853
     67          1           0       13.497120   -1.280552    2.326285
     68          1           0       12.089273   -2.174078    1.770445
     69          1           0       13.818723   -2.810255    0.350260
     70          1           0       13.040051   -1.859846   -1.911754
     71          1           0       11.871610   -2.610528   -0.847600
     72          1           0       11.646231   -0.089577    3.465557
     73          1           0       10.549693    1.195968    2.562166
     74          1           0       10.216388   -0.880781    2.876865
     75          1           0       13.419440    1.527332    0.879639
     76          1           0       11.900440    2.076644    1.431671
     77          1           0       13.172182    1.510022    2.489056
     78          1           0       12.797139    0.202895   -3.068768
     79          1           0       12.045371    1.466641   -1.916845
     80          1           0       13.347887    0.809556   -1.385619
     81          1           0       -5.354543    2.883124   -0.302113
     82          1           0        9.922639   -0.362005   -2.120089
     83          1           0       15.123281   -0.892332    0.661126
     84          1           0        8.538685    1.894143   -0.378154
     85          1           0       -2.306926    4.445443   -0.015890
     86          1           0       -2.720435    4.170764   -1.879376
     87          1           0       -3.895180    4.573144   -0.612030
     88          1           0       -2.483251    0.546962   -0.162686
     89          1           0        6.653485   -1.975342   -0.130480
     90          1           0        8.172785   -1.679477   -0.554547
     91          1           0        7.681406   -1.765342    1.343991
     92          1           0        6.319545    1.832038   -0.567030
     93          1           0       -0.761227    2.963573   -0.333215
     94          1           0        4.776890   -0.982811   -0.105392
     95          1           0       -0.247754   -0.296844   -0.138810
     96          1           0        3.746771    1.877719   -0.446702
     97          1           0        1.678500    2.055870   -0.281826
     98          1           0        1.393692   -1.767761   -0.342163
     99          1           0        3.331290   -1.901010   -0.451602
    100          1           0        2.480392   -1.505916    1.056296
 ---------------------------------------------------------------------

 SCF Done:  E(RCAM-B3LYP) =  -1857.27804312     A.U. after   16 cycles

 Excitation energies and oscillator strengths:

 Excited State   1:      Singlet-A      2.0174 eV  614.58 nm  f=3.3780  <S**2>=0.000
     163 ->166         0.13232
     164 ->165         0.69805
     164 <-165        -0.10777
 This state for optimization and/or second-order correction.
 Total Energy, E(TD-HF/TD-DFT) =  -1857.20390617
 Copying the excited state density for this state as the 1-particle RhoCI density.

 The electronic state is 1-A.
 Alpha  occ. eigenvalues --  -19.22194 -19.21859 -19.21474 -19.19111 -10.32481
 Alpha  occ. eigenvalues --  -10.32306 -10.31998 -10.31207 -10.30929 -10.29110
 Alpha  occ. eigenvalues --  -10.28784 -10.28178 -10.28114 -10.27973 -10.27962
 Alpha  occ. eigenvalues --  -10.27715 -10.27588 -10.27325 -10.27163 -10.26998
 Alpha  occ. eigenvalues --  -10.26921 -10.26875 -10.26868 -10.26680 -10.26673
 Alpha  occ. eigenvalues --  -10.26633 -10.26614 -10.26501 -10.26359 -10.26230
 Alpha  occ. eigenvalues --  -10.26196 -10.25944 -10.25942 -10.25683 -10.25671
 Alpha  occ. eigenvalues --  -10.25469 -10.25065 -10.24704 -10.24652 -10.24391
 Alpha  occ. eigenvalues --  -10.24225 -10.23942 -10.23815 -10.23012  -1.14300
 Alpha  occ. eigenvalues --   -1.11568  -1.08631  -1.08101  -0.93375  -0.93169
 Alpha  occ. eigenvalues --   -0.92833  -0.91492  -0.90598  -0.89706  -0.88254
 Alpha  occ. eigenvalues --   -0.87870  -0.86628  -0.85758  -0.84726  -0.83414
 Alpha  occ. eigenvalues --   -0.82402  -0.81409  -0.80714  -0.78688  -0.77587
 Alpha  occ. eigenvalues --   -0.77474  -0.76720  -0.76637  -0.75930  -0.75799
 Alpha  occ. eigenvalues --   -0.74400  -0.73576  -0.72678  -0.70279  -0.69761
 Alpha  occ. eigenvalues --   -0.68969  -0.66706  -0.65517  -0.64787  -0.63937
 Alpha  occ. eigenvalues --   -0.62963  -0.62244  -0.60804  -0.60328  -0.59788
 Alpha  occ. eigenvalues --   -0.58641  -0.58389  -0.58274  -0.57689  -0.57596
 Alpha  occ. eigenvalues --   -0.56491  -0.56118  -0.55073  -0.54458  -0.54033
 Alpha  occ. eigenvalues --   -0.53847  -0.53163  -0.53068  -0.52671  -0.52278
 Alpha  occ. eigenvalues --   -0.52034  -0.51204  -0.50767  -0.50490  -0.50247
 Alpha  occ. eigenvalues --   -0.49894  -0.48991  -0.48704  -0.48611  -0.48422
 Alpha  occ. eigenvalues --   -0.48117  -0.47853  -0.47451  -0.46813  -0.46722
 Alpha  occ. eigenvalues --   -0.46356  -0.46289  -0.45990  -0.45596  -0.44997
 Alpha  occ. eigenvalues --   -0.44874  -0.44621  -0.44153  -0.44047  -0.43580
 Alpha  occ. eigenvalues --   -0.43335  -0.43194  -0.43011  -0.42873  -0.42323
 Alpha  occ. eigenvalues --   -0.42053  -0.41994  -0.41689  -0.41644  -0.41338
 Alpha  occ. eigenvalues --   -0.40884  -0.40650  -0.40458  -0.40262  -0.39835
 Alpha  occ. eigenvalues --   -0.39761  -0.39072  -0.38892  -0.38713  -0.38610
 Alpha  occ. eigenvalues --   -0.38503  -0.38214  -0.37797  -0.37277  -0.37063
 Alpha  occ. eigenvalues --   -0.36545  -0.35862  -0.35019  -0.34296  -0.33182
 Alpha  occ. eigenvalues --   -0.33168  -0.32552  -0.31597  -0.31523  -0.31176
 Alpha  occ. eigenvalues --   -0.30336  -0.27626  -0.24181  -0.18817
 Alpha virt. eigenvalues --   -0.06493  -0.00773   0.02548   0.06806   0.07888
 Alpha virt. eigenvalues --    0.09343   0.10102   0.10441   0.10906   0.11661
 Alpha virt. eigenvalues --    0.12147   0.12525   0.12663   0.13563   0.13906

 Mulliken charges:
               1
     1  O   -0.505401
     2  O   -0.558150
     3  O   -0.577083
     4  O   -0.526888
     5  C    0.231636
     6  C    0.179671
     7  C    0.047941
     8  C   -0.175691
     9  C   -0.172476
    10  C    0.122425
    11  C   -0.321915
    12  C   -0.110515
    13  C   -0.271330
    14  C   -0.302925
    15  C   -0.094593
    16  C    0.129694
    17  C   -0.395473
    18  C   -0.106026
    19  C   -0.046975
    20  C    0.014545
    21  C    0.263801
    22  C   -0.203373
    23  C    0.145223
    24  C   -0.179427
    25  C   -0.130521
    26  C   -0.279973
    27  C   -0.311877
    28  C   -0.310627
    29  C   -0.114555
    30  C    0.163623
    31  C    0.076240
    32  C   -0.246339
    33  C   -0.387546
    34  C   -0.112809
    35  C    0.083485
    36  C   -0.364757
    37  C   -0.114437
    38  C   -0.068226
    39  C   -0.074119
    40  C   -0.094626
    41  C   -0.116820
    42  C   -0.092201
    43  C    0.157385
    44  C   -0.397710
    45  H    0.111935
    46  H    0.120766
    47  H    0.101493
    48  H    0.110126
    49  H    0.097863
    50  H    0.093377
    51  H    0.120528
    52  H    0.131759
    53  H    0.105772
    54  H    0.087476
    55  H    0.105763
    56  H    0.044628
    57  H    0.110740
    58  H    0.099212
    59  H    0.084535
    60  H    0.291492
    61  H    0.075257
    62  H    0.116490
    63  H    0.116518
    64  H    0.106451
    65  H    0.065461
    66  H    0.055531
    67  H    0.072022
    68  H    0.107311
    69  H    0.076609
    70  H    0.115389
    71  H    0.111916
    72  H    0.092305
    73  H    0.098365
    74  H    0.098487
    75  H    0.120850
    76  H    0.109265
    77  H    0.102007
    78  H    0.090494
    79  H    0.096289
    80  H    0.135614
    81  H    0.064758
    82  H    0.306524
    83  H    0.302211
    84  H    0.104430
    85  H    0.140095
    86  H    0.110908
    87  H    0.108499
    88  H    0.067383
    89  H    0.074621
    90  H    0.150420
    91  H    0.126978
    92  H    0.088070
    93  H    0.081999
    94  H    0.088705
    95  H    0.091702
    96  H    0.079242
    97  H    0.057422
    98  H    0.106821
    99  H    0.098060
   100  H    0.120774
 Sum of Mulliken charges =  -0.00000

 Dipole moment (field-independent basis, Debye):
    X=              4.3522    Y=              0.0728    Z=              2.4521  Tot=              4.9960
 Quadrupole moment (field-independent basis, Debye-Ang):
   XX=           -257.5392   YY=           -258.1151   ZZ=           -280.3806
   XY=              0.0587   XZ=             33.1155   YZ=             -1.2080

 Normal termination of Gaussian 16 at Thu Aug  1 04:43:13 2019.
