 Gaussian 16, Revision A.03,
 Gaussian 16:  ES64L-G16RevA.03 25-Dec-2016

 -------------------------------------
 # td=(NStates=1) CAM-B3LYP/6-31G(d,p)
 -------------------------------------

 --
 TD
 --
 Symbolic Z-matrix:
 Charge =  0 Multiplicity = 1

                         Standard orientation:
 ---------------------------------------------------------------------
 Center     Atomic      Atomic             Coordinates (Angstroms)
 Number     Number       Type             X           Y           Z
 ---------------------------------------------------------------------
      1          8           0      -11.756466    0.275077   -1.470482
      2          8           0      -12.859466   -2.520498    1.405019
      3          8           0       10.526582   -0.924387   -2.166279
      4          8           0       14.525675   -1.062999   -0.158559
      5          6           0      -11.023345   -0.157130   -0.381002
      6          6           0      -11.671682   -1.127564   -1.331207
      7          6           0      -11.741779    0.348695    1.029979
      8          6           0      -13.088675   -1.666634   -0.932724
      9          6           0      -13.100234   -0.074338    1.078772
     10          6           0      -13.441464   -1.488583    0.559845
     11          6           0      -10.921861   -1.918172   -2.204445
     12          6           0       -9.543832    0.113398   -0.359073
     13          6           0      -11.055160   -0.241249    2.221010
     14          6           0      -11.563796    1.861934    1.089667
     15          6           0       -8.605636   -0.863194   -0.038301
     16          6           0       -7.134584   -0.588851   -0.003418
     17          6           0       -6.294283   -1.844183    0.363587
     18          6           0       -6.672516    0.685631   -0.088753
     19          6           0       -5.274963    0.911177   -0.058651
     20          6           0       11.863590   -0.071054    1.394218
     21          6           0       11.579878   -0.497840   -1.303622
     22          6           0       12.586339   -1.403877    1.425108
     23          6           0       13.386518   -1.801738    0.110135
     24          6           0       12.403123   -1.852432   -1.113166
     25          6           0       11.065836    0.014595    0.164475
     26          6           0       10.964250    0.021932    2.679061
     27          6           0       12.878720    1.080724    1.440573
     28          6           0       12.301963    0.573500   -2.023664
     29          6           0       -4.741407    2.253774   -0.303403
     30          6           0        9.895209    0.566761    0.166610
     31          6           0       -3.300553    2.519322   -0.395454
     32          6           0        8.698232    1.042680   -0.001742
     33          6           0       -3.013083    4.057901   -0.715765
     34          6           0       -2.362342    1.635008   -0.201322
     35          6           0        7.441948    0.215494    0.025923
     36          6           0        7.674221   -1.243221    0.190682
     37          6           0        6.185841    0.818268   -0.006249
     38          6           0       -1.006401    1.812027   -0.371514
     39          6           0        4.957841    0.167210    0.062433
     40          6           0       -0.004536    0.915752   -0.250458
     41          6           0        3.787482    0.891592    0.002897
     42          6           0        1.428297    1.181752   -0.230725
     43          6           0        2.480100    0.411669   -0.055690
     44          6           0        2.193317   -1.108318    0.123807
     45          1           0      -13.129164   -2.815418   -1.350130
     46          1           0      -13.907652   -1.028665   -1.572408
     47          1           0      -13.368256    0.100632    2.144350
     48          1           0      -13.785795    0.534597    0.306077
     49          1           0      -14.516817   -1.866679    0.435858
     50          1           0      -10.815115   -2.989248   -1.878321
     51          1           0      -11.392422   -2.084586   -3.244977
     52          1           0       -9.919855   -1.530545   -2.303627
     53          1           0       -9.357026    1.211206   -0.535210
     54          1           0       -9.922236    0.084454    2.304286
     55          1           0      -11.441053    0.147822    3.261964
     56          1           0      -11.148752   -1.164452    2.261707
     57          1           0      -11.868684    2.241980    0.173102
     58          1           0      -11.978724    2.480727    2.033506
     59          1           0      -10.597126    2.296243    1.224741
     60          1           0      -11.906124   -2.754461    0.897387
     61          1           0       -9.022509   -1.747625    0.297832
     62          1           0       -5.857319   -1.983105   -0.583422
     63          1           0       -5.486363   -1.625244    1.174633
     64          1           0       -7.111205   -2.716822    0.470028
     65          1           0       -7.407326    1.523569   -0.306301
     66          1           0       -4.649719    0.007423    0.056244
     67          1           0       13.300040   -1.590132    2.271323
     68          1           0       11.868470   -2.318246    1.526731
     69          1           0       13.694215   -2.951995    0.075326
     70          1           0       12.964312   -2.215923   -2.061347
     71          1           0       11.610083   -2.694337   -0.891422
     72          1           0       11.589021   -0.143028    3.632779
     73          1           0       10.785062    0.997864    2.782525
     74          1           0       10.290424   -0.825321    2.583586
     75          1           0       13.670483    1.073659    0.639490
     76          1           0       12.360655    2.136293    1.166636
     77          1           0       13.312827    1.069364    2.442637
     78          1           0       12.520876    0.310899   -2.929696
     79          1           0       11.590827    1.339608   -2.057791
     80          1           0       13.149024    1.084733   -1.277308
     81          1           0       -5.416902    3.201265   -0.476797
     82          1           0        9.851934   -0.231562   -2.129408
     83          1           0       15.325066   -1.586704    0.533085
     84          1           0        8.632519    2.095649    0.055904
     85          1           0       -2.383703    4.380957    0.065152
     86          1           0       -2.349864    4.000354   -1.895845
     87          1           0       -3.741439    4.490055   -0.822033
     88          1           0       -2.403547    0.556319   -0.131428
     89          1           0        6.861977   -1.954149   -0.047095
     90          1           0        8.523024   -1.725181   -0.448993
     91          1           0        7.675208   -1.529125    1.301772
     92          1           0        6.240716    1.885341   -0.319315
     93          1           0       -0.600960    2.973387   -0.629445
     94          1           0        4.830864   -0.896587    0.296197
     95          1           0       -0.278367   -0.194670    0.067830
     96          1           0        3.902628    2.033306   -0.104602
     97          1           0        1.770612    2.282868   -0.609093
     98          1           0        1.289760   -1.384931    0.370637
     99          1           0        2.657271   -1.583165   -0.777528
    100          1           0        2.742087   -1.460729    1.102025
 ---------------------------------------------------------------------

 SCF Done:  E(RCAM-B3LYP) =  -1857.19893085     A.U. after   15 cycles

 Excitation energies and oscillator strengths:

 Excited State   1:      Singlet-A      2.4432 eV  507.46 nm  f=3.0593  <S**2>=0.000
     163 ->166         0.16139
     164 ->165         0.68064
 This state for optimization and/or second-order correction.
 Total Energy, E(TD-HF/TD-DFT) =  -1857.10914371
 Copying the excited state density for this state as the 1-particle RhoCI density.

 The electronic state is 1-A.
 Alpha  occ. eigenvalues --  -19.23546 -19.23085 -19.22351 -19.20972 -10.32451
 Alpha  occ. eigenvalues --  -10.32268 -10.32216 -10.31687 -10.31614 -10.28642
 Alpha  occ. eigenvalues --  -10.28638 -10.28318 -10.28139 -10.28113 -10.28073
 Alpha  occ. eigenvalues --  -10.27713 -10.27695 -10.27611 -10.27554 -10.27398
 Alpha  occ. eigenvalues --  -10.27213 -10.27118 -10.26650 -10.26635 -10.26630
 Alpha  occ. eigenvalues --  -10.26588 -10.26414 -10.26397 -10.26360 -10.26350
 Alpha  occ. eigenvalues --  -10.26183 -10.26121 -10.26069 -10.26055 -10.25888
 Alpha  occ. eigenvalues --  -10.25849 -10.25836 -10.25504 -10.25373 -10.24858
 Alpha  occ. eigenvalues --  -10.24550 -10.24389 -10.23267 -10.23234  -1.18077
 Alpha  occ. eigenvalues --   -1.09649  -1.08710  -1.06908  -0.93198  -0.92385
 Alpha  occ. eigenvalues --   -0.92053  -0.91653  -0.90965  -0.89928  -0.87117
 Alpha  occ. eigenvalues --   -0.86877  -0.85810  -0.84978  -0.84636  -0.82578
 Alpha  occ. eigenvalues --   -0.82170  -0.81015  -0.80419  -0.78831  -0.77144
 Alpha  occ. eigenvalues --   -0.77063  -0.76727  -0.76208  -0.75956  -0.75700
 Alpha  occ. eigenvalues --   -0.74900  -0.74419  -0.73332  -0.69772  -0.69230
 Alpha  occ. eigenvalues --   -0.67909  -0.66654  -0.65307  -0.64570  -0.64161
 Alpha  occ. eigenvalues --   -0.62833  -0.60790  -0.60232  -0.60222  -0.58935
 Alpha  occ. eigenvalues --   -0.58817  -0.57884  -0.57654  -0.56834  -0.56554
 Alpha  occ. eigenvalues --   -0.55936  -0.55273  -0.54658  -0.54325  -0.53884
 Alpha  occ. eigenvalues --   -0.53674  -0.52932  -0.52633  -0.52619  -0.51981
 Alpha  occ. eigenvalues --   -0.51283  -0.50856  -0.50810  -0.50611  -0.49840
 Alpha  occ. eigenvalues --   -0.49703  -0.49458  -0.48884  -0.48793  -0.48468
 Alpha  occ. eigenvalues --   -0.48093  -0.47588  -0.47276  -0.47193  -0.47008
 Alpha  occ. eigenvalues --   -0.46735  -0.46150  -0.46046  -0.45836  -0.45610
 Alpha  occ. eigenvalues --   -0.45498  -0.45151  -0.44507  -0.44157  -0.43978
 Alpha  occ. eigenvalues --   -0.43675  -0.43488  -0.43340  -0.43054  -0.42733
 Alpha  occ. eigenvalues --   -0.42136  -0.41891  -0.41450  -0.40799  -0.40572
 Alpha  occ. eigenvalues --   -0.40426  -0.40298  -0.40127  -0.39957  -0.39945
 Alpha  occ. eigenvalues --   -0.39668  -0.39457  -0.39401  -0.38917  -0.38104
 Alpha  occ. eigenvalues --   -0.37993  -0.37615  -0.37476  -0.37380  -0.36411
 Alpha  occ. eigenvalues --   -0.35889  -0.35369  -0.34557  -0.34321  -0.33809
 Alpha  occ. eigenvalues --   -0.32697  -0.32329  -0.32082  -0.31282  -0.31085
 Alpha  occ. eigenvalues --   -0.29777  -0.28363  -0.24114  -0.20459
 Alpha virt. eigenvalues --   -0.05226  -0.01188   0.03249   0.05609   0.06540
 Alpha virt. eigenvalues --    0.07478   0.07869   0.10069   0.10928   0.11249
 Alpha virt. eigenvalues --    0.11999   0.12293   0.12784   0.12998   0.13680

 Mulliken charges:
               1
     1  O   -0.484236
     2  O   -0.546483
     3  O   -0.557595
     4  O   -0.523328
     5  C    0.154588
     6  C    0.280316
     7  C    0.051804
     8  C   -0.232393
     9  C   -0.164283
    10  C    0.163244
    11  C   -0.366642
    12  C   -0.092746
    13  C   -0.285329
    14  C   -0.320702
    15  C   -0.099346
    16  C    0.052376
    17  C   -0.369437
    18  C   -0.068755
    19  C   -0.088547
    20  C   -0.006861
    21  C    0.242919
    22  C   -0.170123
    23  C    0.143231
    24  C   -0.180585
    25  C   -0.063358
    26  C   -0.287020
    27  C   -0.308301
    28  C   -0.256989
    29  C   -0.146754
    30  C    0.164995
    31  C    0.065433
    32  C   -0.303655
    33  C   -0.276409
    34  C   -0.095647
    35  C    0.118324
    36  C   -0.398332
    37  C   -0.117620
    38  C   -0.066865
    39  C   -0.081344
    40  C   -0.109936
    41  C   -0.120299
    42  C   -0.140130
    43  C    0.136714
    44  C   -0.353332
    45  H    0.082468
    46  H    0.107259
    47  H    0.107464
    48  H    0.084518
    49  H    0.102050
    50  H    0.103771
    51  H    0.112452
    52  H    0.128609
    53  H    0.106489
    54  H    0.086078
    55  H    0.082034
    56  H    0.102097
    57  H    0.123165
    58  H    0.084990
    59  H    0.105378
    60  H    0.295173
    61  H    0.084174
    62  H    0.147724
    63  H    0.129348
    64  H    0.102383
    65  H    0.087156
    66  H    0.097097
    67  H    0.075766
    68  H    0.083779
    69  H    0.054134
    70  H    0.099280
    71  H    0.100070
    72  H    0.080637
    73  H    0.119513
    74  H    0.118389
    75  H    0.134506
    76  H    0.076997
    77  H    0.099519
    78  H    0.119587
    79  H    0.094162
    80  H    0.085703
    81  H    0.087919
    82  H    0.302598
    83  H    0.307682
    84  H    0.108294
    85  H    0.135647
    86  H    0.071635
    87  H    0.087943
    88  H    0.078719
    89  H    0.108379
    90  H    0.129015
    91  H    0.116884
    92  H    0.084821
    93  H    0.059623
    94  H    0.093189
    95  H    0.067747
    96  H    0.076272
    97  H    0.058604
    98  H    0.114880
    99  H    0.124984
   100  H    0.090683
 Sum of Mulliken charges =  -0.00000

 Dipole moment (field-independent basis, Debye):
    X=              1.6264    Y=             -1.2555    Z=              1.0701  Tot=              2.3166
 Quadrupole moment (field-independent basis, Debye-Ang):
   XX=           -272.2290   YY=           -256.9043   ZZ=           -280.3296
   XY=             -7.6629   XZ=             38.5564   YZ=              1.0681

 Normal termination of Gaussian 16 at Mon Jul 29 06:02:03 2019.
