 Gaussian 16, Revision A.03,
 Gaussian 16:  ES64L-G16RevA.03 25-Dec-2016

 -------------------------------------
 # td=(NStates=1) CAM-B3LYP/6-31G(d,p)
 -------------------------------------

 --
 TD
 --
 Symbolic Z-matrix:
 Charge =  0 Multiplicity = 1

                         Standard orientation:
 ---------------------------------------------------------------------
 Center     Atomic      Atomic             Coordinates (Angstroms)
 Number     Number       Type             X           Y           Z
 ---------------------------------------------------------------------
      1          8           0      -11.583521   -0.061719   -1.636500
      2          8           0      -13.021410   -2.109357    1.766037
      3          8           0       10.468515   -1.294681   -1.882644
      4          8           0       14.508929   -0.775119   -0.130935
      5          6           0      -10.981455   -0.204886   -0.407904
      6          6           0      -11.626413   -1.365533   -1.079495
      7          6           0      -11.687861    0.453676    0.785477
      8          6           0      -13.006749   -1.917678   -0.676362
      9          6           0      -13.189097    0.182099    0.701870
     10          6           0      -13.487608   -1.361011    0.749036
     11          6           0      -10.776042   -2.325694   -1.889944
     12          6           0       -9.532748   -0.011322   -0.379057
     13          6           0      -11.080652    0.228137    2.167847
     14          6           0      -11.634209    2.065114    0.467579
     15          6           0       -8.611793   -0.744086    0.247029
     16          6           0       -7.219419   -0.663045    0.171854
     17          6           0       -6.370219   -1.838568    0.412076
     18          6           0       -6.685036    0.673358   -0.067574
     19          6           0       -5.276470    0.911790   -0.253342
     20          6           0       11.923239    0.150111    1.329308
     21          6           0       11.628047   -0.816155   -1.117871
     22          6           0       12.725002   -1.268311    1.593706
     23          6           0       13.453808   -1.704214    0.304724
     24          6           0       12.419489   -1.906720   -0.804210
     25          6           0       11.080855   -0.060361    0.075705
     26          6           0       10.991994    0.430843    2.521285
     27          6           0       12.863648    1.330550    1.219719
     28          6           0       12.418613    0.129181   -2.149859
     29          6           0       -4.705140    2.104946   -0.547813
     30          6           0        9.865228    0.571619    0.044139
     31          6           0       -3.493432    2.467785   -0.581438
     32          6           0        8.673682    1.022774   -0.207558
     33          6           0       -3.085919    3.928562   -0.915093
     34          6           0       -2.295633    1.593632   -0.318534
     35          6           0        7.442006    0.224319   -0.053555
     36          6           0        7.629038   -1.252993    0.101608
     37          6           0        6.196146    0.688377   -0.109299
     38          6           0       -0.944861    1.827774   -0.326531
     39          6           0        4.924361    0.155899   -0.020131
     40          6           0        0.061608    0.888791   -0.015855
     41          6           0        3.747228    0.885851   -0.034628
     42          6           0        1.383911    1.174262   -0.017192
     43          6           0        2.477179    0.276204    0.067831
     44          6           0        2.232629   -1.162750    0.308406
     45          1           0      -13.128525   -3.055962   -0.474051
     46          1           0      -13.818245   -1.698738   -1.276678
     47          1           0      -14.032803    0.765810    1.487055
     48          1           0      -13.467352    0.627468   -0.282026
     49          1           0      -14.549454   -1.461165    0.932556
     50          1           0      -10.347061   -3.094232   -1.237540
     51          1           0      -11.404596   -2.842453   -2.622294
     52          1           0       -9.924999   -1.822251   -2.029647
     53          1           0       -9.352897    0.621669   -1.222746
     54          1           0      -10.072039    0.514760    2.236855
     55          1           0      -11.612449    0.831309    2.949193
     56          1           0      -10.793984   -0.614079    2.494155
     57          1           0      -12.162698    2.086509   -0.526329
     58          1           0      -12.326224    2.555133    1.028372
     59          1           0      -10.683613    2.351883    0.393011
     60          1           0      -11.913553   -2.143118    1.375628
     61          1           0       -9.085581   -1.687683    0.818324
     62          1           0       -6.113270   -2.376939   -0.740787
     63          1           0       -5.372058   -1.498900    0.880677
     64          1           0       -6.786016   -2.606665    1.175917
     65          1           0       -7.363815    1.608534   -0.162742
     66          1           0       -4.611843   -0.048702   -0.283267
     67          1           0       13.631075   -1.114493    2.319275
     68          1           0       11.974104   -2.007522    1.940588
     69          1           0       14.007395   -2.653148    0.457179
     70          1           0       12.927942   -2.425565   -1.787162
     71          1           0       11.706669   -2.610989   -0.361629
     72          1           0       11.546596    0.560672    3.520516
     73          1           0       10.285828    1.337202    2.416624
     74          1           0       10.357776   -0.405226    2.508096
     75          1           0       13.598793    1.290768    0.312479
     76          1           0       12.218200    2.138903    1.065165
     77          1           0       13.678352    1.490655    2.107564
     78          1           0       12.421976   -0.680407   -3.018528
     79          1           0       11.841081    1.024431   -2.313054
     80          1           0       13.265180    0.392093   -1.771399
     81          1           0       -5.490002    2.917471   -0.661344
     82          1           0       10.192569   -0.576317   -2.325292
     83          1           0       15.033138   -0.413048    0.722799
     84          1           0        8.424720    2.042902   -0.489875
     85          1           0       -2.727494    4.485855   -0.128665
     86          1           0       -2.139867    4.093200   -1.688727
     87          1           0       -4.065678    4.410902   -1.289914
     88          1           0       -2.726705    0.448595    0.036752
     89          1           0        6.652224   -1.904626   -0.059970
     90          1           0        8.417529   -1.458994   -0.815029
     91          1           0        7.964166   -1.582800    1.192797
     92          1           0        6.165968    1.806735   -0.245395
     93          1           0       -0.596704    2.876534   -0.587311
     94          1           0        4.936148   -0.911117    0.183411
     95          1           0       -0.361468   -0.136615    0.158220
     96          1           0        4.025331    2.091128   -0.153351
     97          1           0        1.645526    2.250016   -0.221095
     98          1           0        1.153324   -1.359317    0.478628
     99          1           0        2.740697   -1.769320   -0.474334
    100          1           0        2.556822   -1.307676    1.354942
 ---------------------------------------------------------------------

 SCF Done:  E(RCAM-B3LYP) =  -1857.22439757     A.U. after   17 cycles

 Excitation energies and oscillator strengths:

 Excited State   1:      Singlet-A      1.6532 eV  749.97 nm  f=2.8150  <S**2>=0.000
     163 ->166         0.10156
     164 ->165         0.71684
     164 <-165        -0.16882
 This state for optimization and/or second-order correction.
 Total Energy, E(TD-HF/TD-DFT) =  -1857.16364364
 Copying the excited state density for this state as the 1-particle RhoCI density.

 The electronic state is 1-A.
 Alpha  occ. eigenvalues --  -19.23032 -19.23015 -19.22771 -19.20910 -10.32336
 Alpha  occ. eigenvalues --  -10.32195 -10.32043 -10.31807 -10.29525 -10.29150
 Alpha  occ. eigenvalues --  -10.28991 -10.28581 -10.28498 -10.28471 -10.28252
 Alpha  occ. eigenvalues --  -10.28248 -10.28185 -10.28129 -10.28030 -10.27747
 Alpha  occ. eigenvalues --  -10.27658 -10.27473 -10.27360 -10.27360 -10.27349
 Alpha  occ. eigenvalues --  -10.27197 -10.26999 -10.26831 -10.26816 -10.26671
 Alpha  occ. eigenvalues --  -10.26594 -10.26411 -10.26256 -10.25974 -10.25727
 Alpha  occ. eigenvalues --  -10.25697 -10.25644 -10.25582 -10.25510 -10.25346
 Alpha  occ. eigenvalues --  -10.24409 -10.24164 -10.22645 -10.22456  -1.18279
 Alpha  occ. eigenvalues --   -1.11345  -1.09912  -1.07732  -0.93770  -0.92914
 Alpha  occ. eigenvalues --   -0.92570  -0.91567  -0.91188  -0.89593  -0.88505
 Alpha  occ. eigenvalues --   -0.87897  -0.85871  -0.85529  -0.84787  -0.83233
 Alpha  occ. eigenvalues --   -0.82151  -0.80786  -0.80513  -0.79046  -0.77964
 Alpha  occ. eigenvalues --   -0.77264  -0.76517  -0.75933  -0.75889  -0.75520
 Alpha  occ. eigenvalues --   -0.75012  -0.74742  -0.72494  -0.70736  -0.70333
 Alpha  occ. eigenvalues --   -0.68608  -0.67027  -0.65231  -0.64618  -0.64209
 Alpha  occ. eigenvalues --   -0.63323  -0.61808  -0.60476  -0.60111  -0.59653
 Alpha  occ. eigenvalues --   -0.58983  -0.58740  -0.58143  -0.56734  -0.56353
 Alpha  occ. eigenvalues --   -0.55582  -0.55434  -0.54789  -0.54595  -0.54497
 Alpha  occ. eigenvalues --   -0.54216  -0.53580  -0.52868  -0.52694  -0.52297
 Alpha  occ. eigenvalues --   -0.52047  -0.51494  -0.50654  -0.50626  -0.50466
 Alpha  occ. eigenvalues --   -0.50040  -0.49518  -0.49249  -0.48857  -0.48178
 Alpha  occ. eigenvalues --   -0.47878  -0.47715  -0.47709  -0.47488  -0.47309
 Alpha  occ. eigenvalues --   -0.46729  -0.46607  -0.45756  -0.45492  -0.45466
 Alpha  occ. eigenvalues --   -0.45399  -0.44535  -0.44028  -0.44000  -0.43850
 Alpha  occ. eigenvalues --   -0.43769  -0.43430  -0.43304  -0.42857  -0.42485
 Alpha  occ. eigenvalues --   -0.42063  -0.41979  -0.41722  -0.41569  -0.41172
 Alpha  occ. eigenvalues --   -0.40869  -0.40813  -0.40539  -0.40260  -0.39842
 Alpha  occ. eigenvalues --   -0.39798  -0.39474  -0.39407  -0.39093  -0.38709
 Alpha  occ. eigenvalues --   -0.38540  -0.38046  -0.37601  -0.37136  -0.36951
 Alpha  occ. eigenvalues --   -0.36889  -0.35917  -0.35484  -0.34624  -0.34104
 Alpha  occ. eigenvalues --   -0.33712  -0.32686  -0.32561  -0.32067  -0.29516
 Alpha  occ. eigenvalues --   -0.29104  -0.28185  -0.25009  -0.18201
 Alpha virt. eigenvalues --   -0.08180  -0.00875   0.02753   0.04265   0.06668
 Alpha virt. eigenvalues --    0.07040   0.08233   0.09912   0.10704   0.11305
 Alpha virt. eigenvalues --    0.12365   0.12988   0.13232   0.13416   0.13546

 Mulliken charges:
               1
     1  O   -0.493086
     2  O   -0.501897
     3  O   -0.536215
     4  O   -0.564898
     5  C    0.204716
     6  C    0.208521
     7  C    0.000059
     8  C   -0.248359
     9  C   -0.186835
    10  C    0.156107
    11  C   -0.306911
    12  C   -0.102663
    13  C   -0.294464
    14  C   -0.309577
    15  C   -0.095811
    16  C    0.094868
    17  C   -0.361268
    18  C   -0.113150
    19  C   -0.081285
    20  C    0.015667
    21  C    0.221532
    22  C   -0.206974
    23  C    0.166913
    24  C   -0.185597
    25  C   -0.021384
    26  C   -0.303401
    27  C   -0.295296
    28  C   -0.302701
    29  C   -0.129245
    30  C    0.136548
    31  C    0.128876
    32  C   -0.289522
    33  C   -0.370164
    34  C   -0.115053
    35  C    0.132128
    36  C   -0.374659
    37  C   -0.121404
    38  C   -0.087132
    39  C   -0.066817
    40  C   -0.073019
    41  C   -0.112499
    42  C   -0.116221
    43  C    0.095941
    44  C   -0.369118
    45  H    0.102372
    46  H    0.127835
    47  H    0.053283
    48  H    0.112353
    49  H    0.079995
    50  H    0.094141
    51  H    0.121884
    52  H    0.120888
    53  H    0.114899
    54  H    0.097794
    55  H    0.106133
    56  H    0.094591
    57  H    0.104946
    58  H    0.112961
    59  H    0.103848
    60  H    0.285015
    61  H    0.060583
    62  H    0.096117
    63  H    0.118896
    64  H    0.114101
    65  H    0.096702
    66  H    0.083690
    67  H    0.071997
    68  H    0.112526
    69  H    0.093580
    70  H    0.097629
    71  H    0.119254
    72  H    0.092098
    73  H    0.105568
    74  H    0.110967
    75  H    0.106156
    76  H    0.110619
    77  H    0.071520
    78  H    0.104942
    79  H    0.091638
    80  H    0.145839
    81  H    0.078427
    82  H    0.297594
    83  H    0.310282
    84  H    0.108663
    85  H    0.139340
    86  H    0.093748
    87  H    0.096041
    88  H    0.045454
    89  H    0.087517
    90  H    0.132828
    91  H    0.101394
    92  H    0.047396
    93  H    0.081611
    94  H    0.078822
    95  H    0.087541
    96  H    0.086235
    97  H    0.083128
    98  H    0.115435
    99  H    0.132189
   100  H    0.133743
 Sum of Mulliken charges =  -0.00000

 Dipole moment (field-independent basis, Debye):
    X=              5.6849    Y=             -0.0985    Z=              1.3860  Tot=              5.8523
 Quadrupole moment (field-independent basis, Debye-Ang):
   XX=           -281.2903   YY=           -262.1531   ZZ=           -280.4945
   XY=              5.7383   XZ=             29.2341   YZ=             -1.8465

 Normal termination of Gaussian 16 at Fri Aug  2 01:46:33 2019.
