 Gaussian 16, Revision A.03,
 Gaussian 16:  ES64L-G16RevA.03 25-Dec-2016

 -------------------------------------
 # td=(NStates=1) CAM-B3LYP/6-31G(d,p)
 -------------------------------------

 --
 TD
 --
 Symbolic Z-matrix:
 Charge =  0 Multiplicity = 1

                         Standard orientation:
 ---------------------------------------------------------------------
 Center     Atomic      Atomic             Coordinates (Angstroms)
 Number     Number       Type             X           Y           Z
 ---------------------------------------------------------------------
      1          8           0      -11.743922   -0.071349   -1.660499
      2          8           0      -13.091689   -2.578125    1.572169
      3          8           0       10.490584   -1.163958   -2.060709
      4          8           0       14.450797   -1.103779   -0.287573
      5          6           0      -10.952429   -0.240487   -0.410248
      6          6           0      -11.441733   -1.329835   -1.226380
      7          6           0      -11.764198    0.324878    0.823275
      8          6           0      -12.715675   -2.134382   -0.762900
      9          6           0      -13.245287   -0.147199    0.731396
     10          6           0      -13.412581   -1.701229    0.500993
     11          6           0      -10.519662   -2.240137   -1.996033
     12          6           0       -9.514494    0.145360   -0.416280
     13          6           0      -11.091864    0.014709    2.088866
     14          6           0      -11.667208    1.896980    0.759576
     15          6           0       -8.529585   -0.676782    0.167588
     16          6           0       -7.153937   -0.455698    0.189729
     17          6           0       -6.276345   -1.637648    0.312075
     18          6           0       -6.639902    0.801177   -0.028625
     19          6           0       -5.251024    1.076368   -0.276265
     20          6           0       11.968778    0.027411    1.313861
     21          6           0       11.572632   -0.696081   -1.300791
     22          6           0       12.663773   -1.354444    1.419800
     23          6           0       13.330734   -1.883067    0.144522
     24          6           0       12.402417   -1.957907   -1.035065
     25          6           0       11.088142   -0.055563    0.126298
     26          6           0       11.064396    0.186016    2.583040
     27          6           0       12.956574    1.283525    1.293451
     28          6           0       12.295993    0.362445   -2.202034
     29          6           0       -4.772837    2.377149   -0.390909
     30          6           0        9.819093    0.463672    0.015370
     31          6           0       -3.392744    2.790599   -0.481305
     32          6           0        8.577249    0.773586   -0.231176
     33          6           0       -3.072025    4.253687   -0.627845
     34          6           0       -2.345117    1.837734   -0.192333
     35          6           0        7.346049    0.119230    0.126454
     36          6           0        7.577022   -1.262112    0.510013
     37          6           0        6.100295    0.804969   -0.036146
     38          6           0       -1.020370    2.114085   -0.243123
     39          6           0        4.920694    0.215594   -0.030031
     40          6           0        0.030580    1.142835   -0.000723
     41          6           0        3.736403    0.875400   -0.010193
     42          6           0        1.366745    1.329096   -0.175002
     43          6           0        2.376930    0.448388    0.104031
     44          6           0        2.144107   -0.998720    0.487434
     45          1           0      -12.450671   -3.138779   -0.539262
     46          1           0      -13.440887   -2.273519   -1.709104
     47          1           0      -13.950898    0.160522    1.451264
     48          1           0      -13.638895    0.465679   -0.247022
     49          1           0      -14.531573   -1.957596    0.300148
     50          1           0      -10.191163   -3.158175   -1.414452
     51          1           0      -11.142782   -2.619653   -2.812836
     52          1           0       -9.571978   -1.703536   -2.318900
     53          1           0       -9.359717    1.135461   -1.051689
     54          1           0      -10.155416    0.759294    2.184611
     55          1           0      -11.669452    0.104921    2.842709
     56          1           0      -10.916678   -1.152129    2.169304
     57          1           0      -12.098995    2.587702   -0.090529
     58          1           0      -11.972128    2.369886    1.622254
     59          1           0      -10.685056    2.223661    0.551263
     60          1           0      -11.876549   -2.312147    1.927332
     61          1           0       -8.958181   -1.580957    0.572127
     62          1           0       -5.752021   -2.025171   -0.428405
     63          1           0       -5.481709   -1.541869    1.069937
     64          1           0       -6.706630   -2.541274    0.631262
     65          1           0       -7.431924    1.617823   -0.474773
     66          1           0       -4.607758    0.131123   -0.000842
     67          1           0       13.442423   -1.454881    2.292657
     68          1           0       12.034761   -2.109782    1.933710
     69          1           0       13.783443   -2.879882    0.516021
     70          1           0       12.821696   -2.320842   -1.878579
     71          1           0       11.742260   -2.582251   -0.812548
     72          1           0       11.603402    0.321516    3.444126
     73          1           0       10.284525    0.976221    2.365188
     74          1           0       10.278479   -0.726967    2.562224
     75          1           0       13.777872    0.931366    0.539632
     76          1           0       12.404800    2.225882    0.978095
     77          1           0       13.514596    1.277433    2.177133
     78          1           0       12.344357   -0.242513   -3.081128
     79          1           0       11.553867    1.114281   -2.191204
     80          1           0       13.500404    0.406241   -1.845216
     81          1           0       -5.501532    3.040577   -0.518741
     82          1           0        9.775188   -0.466077   -2.005883
     83          1           0       15.200601   -1.102937    0.414307
     84          1           0        8.626925    1.809690   -0.659144
     85          1           0       -2.693405    4.756125    0.208155
     86          1           0       -2.500412    4.234335   -1.484860
     87          1           0       -3.913246    4.773138   -0.950031
     88          1           0       -2.716182    0.745849    0.079428
     89          1           0        6.569273   -1.844323    0.593497
     90          1           0        8.399026   -1.804923    0.007336
     91          1           0        7.909811   -1.342093    1.542093
     92          1           0        6.053990    1.862596   -0.300777
     93          1           0       -0.581844    3.167082   -0.490783
     94          1           0        4.943030   -0.719024    0.461809
     95          1           0       -0.350225    0.145833    0.239125
     96          1           0        3.870204    2.030513   -0.248818
     97          1           0        1.528095    2.496504   -0.415601
     98          1           0        1.203442   -1.414044    0.494196
     99          1           0        2.790397   -1.728107   -0.077221
    100          1           0        2.687350   -1.151722    1.624124
 ---------------------------------------------------------------------

 SCF Done:  E(RCAM-B3LYP) =  -1857.24570951     A.U. after   16 cycles

 Excitation energies and oscillator strengths:

 Excited State   1:      Singlet-A      1.8724 eV  662.18 nm  f=3.1358  <S**2>=0.000
     163 ->166         0.12547
     164 ->165         0.70133
     164 <-165        -0.12046
 This state for optimization and/or second-order correction.
 Total Energy, E(TD-HF/TD-DFT) =  -1857.17690173
 Copying the excited state density for this state as the 1-particle RhoCI density.

 The electronic state is 1-A.
 Alpha  occ. eigenvalues --  -19.22725 -19.22348 -19.22225 -19.20761 -10.31697
 Alpha  occ. eigenvalues --  -10.31640 -10.31631 -10.31518 -10.30749 -10.28610
 Alpha  occ. eigenvalues --  -10.28580 -10.28517 -10.28468 -10.28346 -10.28322
 Alpha  occ. eigenvalues --  -10.27920 -10.27837 -10.27726 -10.27697 -10.27645
 Alpha  occ. eigenvalues --  -10.27587 -10.27557 -10.27546 -10.27468 -10.27368
 Alpha  occ. eigenvalues --  -10.27364 -10.27183 -10.26905 -10.26717 -10.26479
 Alpha  occ. eigenvalues --  -10.26348 -10.26135 -10.25975 -10.25807 -10.25563
 Alpha  occ. eigenvalues --  -10.25209 -10.25141 -10.24905 -10.24775 -10.24604
 Alpha  occ. eigenvalues --  -10.24588 -10.24395 -10.23977 -10.22126  -1.16000
 Alpha  occ. eigenvalues --   -1.09674  -1.08868  -1.05638  -0.93243  -0.92813
 Alpha  occ. eigenvalues --   -0.92205  -0.91647  -0.91214  -0.90627  -0.88259
 Alpha  occ. eigenvalues --   -0.86383  -0.85946  -0.84781  -0.84693  -0.83320
 Alpha  occ. eigenvalues --   -0.82757  -0.80524  -0.80514  -0.79679  -0.78194
 Alpha  occ. eigenvalues --   -0.77249  -0.76704  -0.76614  -0.76155  -0.75765
 Alpha  occ. eigenvalues --   -0.75237  -0.75112  -0.73132  -0.70496  -0.69353
 Alpha  occ. eigenvalues --   -0.68338  -0.66684  -0.65225  -0.65046  -0.64223
 Alpha  occ. eigenvalues --   -0.63787  -0.62024  -0.61660  -0.60962  -0.59714
 Alpha  occ. eigenvalues --   -0.59096  -0.57955  -0.57861  -0.57299  -0.56628
 Alpha  occ. eigenvalues --   -0.56049  -0.55515  -0.55272  -0.54284  -0.53724
 Alpha  occ. eigenvalues --   -0.53448  -0.52986  -0.52094  -0.51825  -0.51422
 Alpha  occ. eigenvalues --   -0.51216  -0.51059  -0.50764  -0.50157  -0.50035
 Alpha  occ. eigenvalues --   -0.49496  -0.49090  -0.48792  -0.48724  -0.48595
 Alpha  occ. eigenvalues --   -0.47974  -0.47716  -0.47383  -0.47166  -0.47130
 Alpha  occ. eigenvalues --   -0.46802  -0.46545  -0.46477  -0.46170  -0.45601
 Alpha  occ. eigenvalues --   -0.45277  -0.45045  -0.44806  -0.44626  -0.44417
 Alpha  occ. eigenvalues --   -0.44139  -0.43642  -0.43364  -0.43059  -0.42929
 Alpha  occ. eigenvalues --   -0.42724  -0.42361  -0.42075  -0.41763  -0.41326
 Alpha  occ. eigenvalues --   -0.40965  -0.40748  -0.40535  -0.40174  -0.39933
 Alpha  occ. eigenvalues --   -0.39476  -0.39272  -0.39168  -0.38615  -0.38416
 Alpha  occ. eigenvalues --   -0.38255  -0.38023  -0.37739  -0.37394  -0.37054
 Alpha  occ. eigenvalues --   -0.36344  -0.35952  -0.35693  -0.34688  -0.33669
 Alpha  occ. eigenvalues --   -0.32784  -0.31785  -0.31549  -0.31332  -0.31139
 Alpha  occ. eigenvalues --   -0.28719  -0.27799  -0.24487  -0.19144
 Alpha virt. eigenvalues --   -0.07509  -0.01725   0.01884   0.03198   0.05514
 Alpha virt. eigenvalues --    0.06711   0.09500   0.10217   0.10753   0.11542
 Alpha virt. eigenvalues --    0.11825   0.12774   0.13037   0.13410   0.13735

 Mulliken charges:
               1
     1  O   -0.495968
     2  O   -0.534516
     3  O   -0.562843
     4  O   -0.549575
     5  C    0.170386
     6  C    0.290512
     7  C    0.031240
     8  C   -0.208324
     9  C   -0.201265
    10  C    0.161907
    11  C   -0.336862
    12  C   -0.129759
    13  C   -0.263432
    14  C   -0.333445
    15  C   -0.096399
    16  C    0.118375
    17  C   -0.401094
    18  C   -0.123348
    19  C   -0.073401
    20  C    0.018199
    21  C    0.208353
    22  C   -0.204044
    23  C    0.149925
    24  C   -0.140104
    25  C   -0.028336
    26  C   -0.303261
    27  C   -0.307231
    28  C   -0.283595
    29  C   -0.095191
    30  C    0.072207
    31  C    0.045021
    32  C   -0.300460
    33  C   -0.364790
    34  C   -0.095538
    35  C    0.137036
    36  C   -0.401951
    37  C   -0.100142
    38  C   -0.091155
    39  C   -0.059274
    40  C   -0.080341
    41  C   -0.130543
    42  C   -0.119567
    43  C    0.131696
    44  C   -0.369196
    45  H    0.111994
    46  H    0.085684
    47  H    0.102902
    48  H    0.109161
    49  H    0.093055
    50  H    0.102116
    51  H    0.115407
    52  H    0.112819
    53  H    0.110693
    54  H    0.114534
    55  H    0.133255
    56  H    0.024720
    57  H    0.094784
    58  H    0.114000
    59  H    0.107732
    60  H    0.260440
    61  H    0.089324
    62  H    0.143061
    63  H    0.116826
    64  H    0.109870
    65  H    0.071145
    66  H    0.078497
    67  H    0.063880
    68  H    0.108794
    69  H    0.064763
    70  H    0.111129
    71  H    0.115328
    72  H    0.105527
    73  H    0.107650
    74  H    0.078010
    75  H    0.114003
    76  H    0.108693
    77  H    0.103481
    78  H    0.121435
    79  H    0.090670
    80  H    0.115213
    81  H    0.076645
    82  H    0.306749
    83  H    0.308274
    84  H    0.111792
    85  H    0.138264
    86  H    0.136195
    87  H    0.111487
    88  H    0.082228
    89  H    0.096311
    90  H    0.143755
    91  H    0.132433
    92  H    0.082513
    93  H    0.084033
    94  H    0.075674
    95  H    0.074394
    96  H    0.065433
    97  H    0.075600
    98  H    0.123501
    99  H    0.125231
   100  H    0.088985
 Sum of Mulliken charges =  -0.00000

 Dipole moment (field-independent basis, Debye):
    X=              3.1072    Y=              0.4578    Z=              3.0689  Tot=              4.3911
 Quadrupole moment (field-independent basis, Debye-Ang):
   XX=           -303.3712   YY=           -258.3381   ZZ=           -280.5324
   XY=            -20.3770   XZ=             29.3943   YZ=             -3.8029

 Normal termination of Gaussian 16 at Thu Aug  1 14:18:32 2019.
