 Gaussian 16, Revision A.03,
 Gaussian 16:  ES64L-G16RevA.03 25-Dec-2016

 -------------------------------------
 # td=(NStates=1) CAM-B3LYP/6-31G(d,p)
 -------------------------------------

 --
 TD
 --
 Symbolic Z-matrix:
 Charge =  0 Multiplicity = 1

                         Standard orientation:
 ---------------------------------------------------------------------
 Center     Atomic      Atomic             Coordinates (Angstroms)
 Number     Number       Type             X           Y           Z
 ---------------------------------------------------------------------
      1          8           0      -11.679830    0.416570   -1.523824
      2          8           0      -13.027598   -2.627179    1.274135
      3          8           0       10.419775   -0.978781   -2.057650
      4          8           0       14.347991   -1.055621   -0.202346
      5          6           0      -11.027198   -0.079373   -0.322663
      6          6           0      -11.621922   -1.039026   -1.371915
      7          6           0      -11.806695    0.216245    0.994331
      8          6           0      -12.933755   -1.900856   -1.115751
      9          6           0      -13.300512   -0.203915    0.865094
     10          6           0      -13.475377   -1.651749    0.380380
     11          6           0      -10.554296   -1.652241   -2.294644
     12          6           0       -9.541842    0.165250   -0.307603
     13          6           0      -11.094830   -0.348564    2.360099
     14          6           0      -11.761557    1.750124    1.060844
     15          6           0       -8.698141   -0.705807    0.079900
     16          6           0       -7.159227   -0.553074    0.147839
     17          6           0       -6.327669   -1.814746    0.377444
     18          6           0       -6.610810    0.689774    0.020392
     19          6           0       -5.221616    0.950226   -0.113533
     20          6           0       11.972066   -0.061330    1.283263
     21          6           0       11.573215   -0.591218   -1.270510
     22          6           0       12.619596   -1.339401    1.445429
     23          6           0       13.269512   -1.875301    0.228894
     24          6           0       12.261358   -1.801680   -0.943495
     25          6           0       11.107675    0.007549    0.029065
     26          6           0       11.060518    0.109430    2.537155
     27          6           0       12.898564    1.025716    1.215695
     28          6           0       12.399655    0.439268   -2.078602
     29          6           0       -4.671950    2.236469   -0.305861
     30          6           0        9.848920    0.443175    0.140229
     31          6           0       -3.332005    2.647926   -0.280743
     32          6           0        8.710247    0.921293   -0.124273
     33          6           0       -2.899835    4.056461   -0.489011
     34          6           0       -2.300380    1.632168   -0.131924
     35          6           0        7.448324    0.125955    0.053956
     36          6           0        7.703067   -1.257451    0.446722
     37          6           0        6.221085    0.779795   -0.010173
     38          6           0       -0.929604    1.881163   -0.301190
     39          6           0        4.918265    0.149549   -0.088526
     40          6           0        0.062855    1.017569   -0.148892
     41          6           0        3.748904    0.933836   -0.100090
     42          6           0        1.385762    1.368899   -0.154552
     43          6           0        2.443939    0.390770    0.050459
     44          6           0        2.275190   -1.095266   -0.007161
     45          1           0      -13.016484   -2.848170   -1.267683
     46          1           0      -13.710288   -1.523999   -1.784546
     47          1           0      -13.720860   -0.095800    1.924930
     48          1           0      -13.739534    0.597232    0.127246
     49          1           0      -14.574685   -1.813579    0.290486
     50          1           0      -10.366161   -2.505756   -2.016920
     51          1           0      -11.033157   -1.542111   -3.132713
     52          1           0       -9.702816   -1.248692   -2.424414
     53          1           0       -9.214104    1.145213   -0.871147
     54          1           0      -10.244704    0.168726    2.511652
     55          1           0      -12.044427   -0.075583    2.870154
     56          1           0      -10.983847   -1.540754    2.581742
     57          1           0      -11.973644    2.258444    0.300015
     58          1           0      -12.642388    2.235273    1.664947
     59          1           0      -10.804257    2.147911    1.527498
     60          1           0      -12.056384   -2.668246    1.118277
     61          1           0       -8.994753   -1.583062    0.587149
     62          1           0       -5.756767   -2.041111   -0.567830
     63          1           0       -5.620957   -1.673481    1.257567
     64          1           0       -6.985932   -2.623218    0.533607
     65          1           0       -7.079581    1.605395   -0.177436
     66          1           0       -4.611459    0.047900    0.111592
     67          1           0       13.401551   -1.173797    2.332575
     68          1           0       11.917603   -2.100125    1.864451
     69          1           0       13.422133   -2.934798    0.351774
     70          1           0       12.640538   -2.327939   -1.837082
     71          1           0       11.336827   -2.528976   -0.677819
     72          1           0       12.075407   -0.064093    3.209307
     73          1           0       10.726185    1.160940    2.621714
     74          1           0       10.362396   -0.760363    2.490923
     75          1           0       13.745162    0.870499    0.555677
     76          1           0       12.539359    2.111795    1.110799
     77          1           0       13.450519    1.067285    2.337937
     78          1           0       12.499756    0.026454   -3.173142
     79          1           0       11.919283    1.381253   -2.443156
     80          1           0       13.435147    0.622412   -1.557185
     81          1           0       -5.462247    3.089752   -0.508951
     82          1           0        9.907668   -0.248005   -2.058304
     83          1           0       15.139118   -1.118904    0.524823
     84          1           0        8.688528    2.027536   -0.304935
     85          1           0       -2.351603    4.311257    0.403585
     86          1           0       -2.287636    4.200872   -1.367194
     87          1           0       -3.919271    4.570489   -0.551846
     88          1           0       -2.579275    0.466925    0.130081
     89          1           0        6.729873   -1.729102    0.500036
     90          1           0        8.043834   -1.748206   -0.451077
     91          1           0        8.439571   -1.318400    1.299840
     92          1           0        6.253398    1.815692   -0.240291
     93          1           0       -0.577287    2.953638   -0.502139
     94          1           0        4.728570   -0.864776    0.239100
     95          1           0       -0.156533   -0.024106    0.146166
     96          1           0        3.924479    1.940696   -0.014358
     97          1           0        1.627230    2.379551   -0.463328
     98          1           0        1.323948   -1.294935    0.069598
     99          1           0        2.843631   -1.542185   -0.681315
    100          1           0        2.649664   -1.486433    1.020584
 ---------------------------------------------------------------------

 SCF Done:  E(RCAM-B3LYP) =  -1857.26675394     A.U. after   15 cycles

 Excitation energies and oscillator strengths:

 Excited State   1:      Singlet-A      2.0578 eV  602.51 nm  f=2.8681  <S**2>=0.000
     163 ->166        -0.12647
     164 ->165         0.70074
     164 <-165        -0.11282
 This state for optimization and/or second-order correction.
 Total Energy, E(TD-HF/TD-DFT) =  -1857.19113196
 Copying the excited state density for this state as the 1-particle RhoCI density.

 The electronic state is 1-A.
 Alpha  occ. eigenvalues --  -19.23803 -19.22348 -19.22157 -19.19783 -10.32789
 Alpha  occ. eigenvalues --  -10.31374 -10.31361 -10.31299 -10.31191 -10.28220
 Alpha  occ. eigenvalues --  -10.27990 -10.27834 -10.27780 -10.27636 -10.27547
 Alpha  occ. eigenvalues --  -10.27400 -10.26711 -10.26561 -10.26470 -10.26420
 Alpha  occ. eigenvalues --  -10.26357 -10.26349 -10.26324 -10.26254 -10.26174
 Alpha  occ. eigenvalues --  -10.26159 -10.26157 -10.26128 -10.25979 -10.25944
 Alpha  occ. eigenvalues --  -10.25925 -10.25918 -10.25899 -10.25585 -10.25437
 Alpha  occ. eigenvalues --  -10.25430 -10.25361 -10.25294 -10.25215 -10.25184
 Alpha  occ. eigenvalues --  -10.24644 -10.24541 -10.23827 -10.20300  -1.13114
 Alpha  occ. eigenvalues --   -1.10639  -1.10636  -1.09713  -0.95180  -0.92325
 Alpha  occ. eigenvalues --   -0.91533  -0.91026  -0.90342  -0.89523  -0.87877
 Alpha  occ. eigenvalues --   -0.87542  -0.86202  -0.86013  -0.85386  -0.83142
 Alpha  occ. eigenvalues --   -0.82570  -0.81654  -0.81001  -0.79322  -0.77135
 Alpha  occ. eigenvalues --   -0.76946  -0.76701  -0.76390  -0.76299  -0.75501
 Alpha  occ. eigenvalues --   -0.75415  -0.73763  -0.72522  -0.70349  -0.69961
 Alpha  occ. eigenvalues --   -0.68421  -0.66588  -0.65507  -0.64309  -0.64073
 Alpha  occ. eigenvalues --   -0.62443  -0.61881  -0.61245  -0.60715  -0.60017
 Alpha  occ. eigenvalues --   -0.59031  -0.58378  -0.58236  -0.57630  -0.57171
 Alpha  occ. eigenvalues --   -0.55823  -0.55461  -0.55332  -0.55064  -0.54003
 Alpha  occ. eigenvalues --   -0.53703  -0.53501  -0.53137  -0.52905  -0.52147
 Alpha  occ. eigenvalues --   -0.51601  -0.51498  -0.51321  -0.50656  -0.50074
 Alpha  occ. eigenvalues --   -0.49866  -0.49529  -0.49434  -0.49152  -0.48791
 Alpha  occ. eigenvalues --   -0.48646  -0.48422  -0.48376  -0.47694  -0.47264
 Alpha  occ. eigenvalues --   -0.47067  -0.46740  -0.46358  -0.45938  -0.45512
 Alpha  occ. eigenvalues --   -0.44836  -0.44523  -0.44108  -0.43852  -0.43612
 Alpha  occ. eigenvalues --   -0.43343  -0.43319  -0.43069  -0.42979  -0.42631
 Alpha  occ. eigenvalues --   -0.42297  -0.42033  -0.41482  -0.41396  -0.41005
 Alpha  occ. eigenvalues --   -0.40866  -0.40584  -0.40416  -0.40328  -0.40137
 Alpha  occ. eigenvalues --   -0.39943  -0.39774  -0.38991  -0.38889  -0.38547
 Alpha  occ. eigenvalues --   -0.38465  -0.38209  -0.37872  -0.37433  -0.36822
 Alpha  occ. eigenvalues --   -0.36809  -0.35978  -0.34793  -0.34431  -0.33739
 Alpha  occ. eigenvalues --   -0.33293  -0.32328  -0.31866  -0.31820  -0.30683
 Alpha  occ. eigenvalues --   -0.28669  -0.28499  -0.24361  -0.18960
 Alpha virt. eigenvalues --   -0.06181  -0.00165   0.04083   0.06403   0.07030
 Alpha virt. eigenvalues --    0.08441   0.10109   0.10711   0.11296   0.11849
 Alpha virt. eigenvalues --    0.12340   0.13248   0.13307   0.13726   0.14206

 Mulliken charges:
               1
     1  O   -0.519059
     2  O   -0.530927
     3  O   -0.552775
     4  O   -0.541894
     5  C    0.197477
     6  C    0.198889
     7  C   -0.004538
     8  C   -0.231429
     9  C   -0.190478
    10  C    0.142772
    11  C   -0.281962
    12  C   -0.104410
    13  C   -0.298014
    14  C   -0.307835
    15  C   -0.057654
    16  C    0.036224
    17  C   -0.372450
    18  C   -0.079844
    19  C   -0.065929
    20  C   -0.009956
    21  C    0.269166
    22  C   -0.172458
    23  C    0.154522
    24  C   -0.202746
    25  C   -0.005673
    26  C   -0.259524
    27  C   -0.282451
    28  C   -0.314655
    29  C   -0.141958
    30  C    0.101408
    31  C    0.077629
    32  C   -0.288722
    33  C   -0.363909
    34  C   -0.114375
    35  C    0.089884
    36  C   -0.366608
    37  C   -0.114895
    38  C   -0.087522
    39  C   -0.111948
    40  C   -0.056883
    41  C   -0.096063
    42  C   -0.114979
    43  C    0.053996
    44  C   -0.345513
    45  H    0.119736
    46  H    0.120534
    47  H    0.098169
    48  H    0.107810
    49  H    0.092251
    50  H    0.100126
    51  H    0.115220
    52  H    0.115371
    53  H    0.105078
    54  H    0.125234
    55  H    0.116001
    56  H    0.075139
    57  H    0.135816
    58  H    0.072528
    59  H    0.096906
    60  H    0.306289
    61  H    0.072528
    62  H    0.128282
    63  H    0.125280
    64  H    0.113016
    65  H    0.074243
    66  H    0.074664
    67  H    0.065187
    68  H    0.097874
    69  H    0.094467
    70  H    0.114302
    71  H    0.098289
    72  H    0.066843
    73  H    0.113308
    74  H    0.106453
    75  H    0.132617
    76  H    0.100295
    77  H    0.038149
    78  H    0.095583
    79  H    0.095612
    80  H    0.125099
    81  H    0.070472
    82  H    0.291339
    83  H    0.310759
    84  H    0.106796
    85  H    0.137810
    86  H    0.135595
    87  H    0.099637
    88  H    0.073216
    89  H    0.102035
    90  H    0.142003
    91  H    0.122061
    92  H    0.079120
    93  H    0.073225
    94  H    0.084436
    95  H    0.076561
    96  H    0.080067
    97  H    0.088207
    98  H    0.111379
    99  H    0.145836
   100  H    0.103217
 Sum of Mulliken charges =  -0.00000

 Dipole moment (field-independent basis, Debye):
    X=              2.8160    Y=             -0.7941    Z=              1.4026  Tot=              3.2446
 Quadrupole moment (field-independent basis, Debye-Ang):
   XX=           -262.2225   YY=           -256.7746   ZZ=           -282.7680
   XY=             -1.6671   XZ=             29.3191   YZ=             -2.7618

 Normal termination of Gaussian 16 at Fri Aug  2 04:11:33 2019.
