 Gaussian 16, Revision A.03,
 Gaussian 16:  ES64L-G16RevA.03 25-Dec-2016

 -------------------------------------
 # td=(NStates=1) CAM-B3LYP/6-31G(d,p)
 -------------------------------------

 --
 TD
 --
 Symbolic Z-matrix:
 Charge =  0 Multiplicity = 1

                         Standard orientation:
 ---------------------------------------------------------------------
 Center     Atomic      Atomic             Coordinates (Angstroms)
 Number     Number       Type             X           Y           Z
 ---------------------------------------------------------------------
      1          8           0      -11.663468    0.170577   -1.591556
      2          8           0      -12.960994   -2.278282    1.444631
      3          8           0       10.564487   -1.123747   -2.035161
      4          8           0       14.490359   -0.956391   -0.301242
      5          6           0      -11.063334   -0.209916   -0.319126
      6          6           0      -11.721016   -1.265286   -1.176034
      7          6           0      -11.786692    0.370562    0.928596
      8          6           0      -13.134955   -1.897936   -0.962492
      9          6           0      -13.251754   -0.022054    0.867107
     10          6           0      -13.634332   -1.458249    0.435349
     11          6           0      -10.853763   -2.074995   -2.136575
     12          6           0       -9.574145    0.027545   -0.350917
     13          6           0      -11.147065   -0.060004    2.121380
     14          6           0      -11.662008    1.871206    0.899933
     15          6           0       -8.658505   -0.672322    0.202860
     16          6           0       -7.184672   -0.497430    0.305599
     17          6           0       -6.269925   -1.684575    0.545172
     18          6           0       -6.631897    0.756039    0.036668
     19          6           0       -5.252132    1.075267   -0.179019
     20          6           0       12.005183    0.065000    1.200343
     21          6           0       11.657896   -0.619311   -1.227240
     22          6           0       12.763563   -1.221385    1.441653
     23          6           0       13.450948   -1.759425    0.194462
     24          6           0       12.460103   -1.883273   -0.895392
     25          6           0       11.084178   -0.047065    0.023025
     26          6           0       11.100005    0.125177    2.527274
     27          6           0       12.917876    1.278695    1.197725
     28          6           0       12.477008    0.438968   -2.057702
     29          6           0       -4.691866    2.213597   -0.355609
     30          6           0        9.882336    0.496653   -0.029301
     31          6           0       -3.377416    2.541285   -0.583395
     32          6           0        8.643129    0.968401    0.118942
     33          6           0       -3.077222    3.956370   -0.894424
     34          6           0       -2.330507    1.622334   -0.245920
     35          6           0        7.477664    0.086187    0.137867
     36          6           0        7.714076   -1.430968    0.329663
     37          6           0        6.241736    0.757097    0.144258
     38          6           0       -0.969762    1.837413   -0.340834
     39          6           0        4.916485    0.080007    0.194777
     40          6           0        0.003846    0.800908   -0.162222
     41          6           0        3.717425    0.837099   -0.020516
     42          6           0        1.445457    1.265006   -0.160457
     43          6           0        2.496677    0.335006   -0.003603
     44          6           0        2.211681   -1.129334    0.225030
     45          1           0      -13.089831   -2.905836   -0.985845
     46          1           0      -13.863204   -1.517048   -1.774370
     47          1           0      -13.775208    0.175377    1.856365
     48          1           0      -13.527373    0.482356   -0.057595
     49          1           0      -14.674991   -1.712110    0.496014
     50          1           0      -10.828013   -3.133391   -1.722753
     51          1           0      -11.260900   -2.254393   -3.252146
     52          1           0       -9.764380   -1.675314   -2.107701
     53          1           0       -9.285434    0.811122   -1.032882
     54          1           0      -10.258442    0.432348    2.277301
     55          1           0      -11.944693    0.083078    2.960836
     56          1           0      -10.989309   -1.115018    2.009892
     57          1           0      -11.950518    2.348184   -0.062830
     58          1           0      -12.250359    2.312524    1.794141
     59          1           0      -10.622075    1.995561    0.913633
     60          1           0      -12.054513   -2.433150    1.195562
     61          1           0       -8.939118   -1.695305    0.586359
     62          1           0       -5.934072   -1.996627   -0.411136
     63          1           0       -5.470337   -1.329081    1.209787
     64          1           0       -6.983911   -2.471019    1.044948
     65          1           0       -7.372197    1.487299   -0.194252
     66          1           0       -4.599514    0.096711   -0.185287
     67          1           0       13.531527   -1.204087    2.253490
     68          1           0       12.134497   -1.979741    1.741892
     69          1           0       13.762351   -2.859099    0.494896
     70          1           0       12.839824   -2.104783   -1.776241
     71          1           0       11.687397   -2.800782   -0.631189
     72          1           0       11.652382    0.087835    3.500282
     73          1           0       10.504794    1.022204    2.761545
     74          1           0       10.327831   -0.677940    2.501720
     75          1           0       13.508738    1.251127    0.223743
     76          1           0       12.338950    2.406692    1.001392
     77          1           0       13.444238    1.430606    2.096725
     78          1           0       12.764922    0.002300   -3.089988
     79          1           0       12.059703    1.465470   -2.254288
     80          1           0       13.450929    0.712136   -1.514948
     81          1           0       -5.455517    2.993580   -0.339772
     82          1           0        9.885095   -0.383594   -2.146236
     83          1           0       15.122919   -0.826711    0.401968
     84          1           0        8.596184    1.985921   -0.266393
     85          1           0       -2.503101    4.411415    0.171164
     86          1           0       -2.684039    4.241023   -1.965778
     87          1           0       -3.899740    4.575072   -0.798371
     88          1           0       -2.612247    0.743459    0.077899
     89          1           0        6.815551   -2.023108    0.069658
     90          1           0        8.659259   -1.866761   -0.289650
     91          1           0        8.166032   -1.614292    1.327359
     92          1           0        6.302326    1.769729   -0.079058
     93          1           0       -0.733272    2.756756   -0.759680
     94          1           0        4.841682   -1.010718    0.368166
     95          1           0       -0.404757   -0.233994    0.069396
     96          1           0        3.820978    2.093243   -0.194611
     97          1           0        1.493241    2.297356   -0.285121
     98          1           0        0.974159   -1.359463   -0.110853
     99          1           0        2.931490   -1.611307   -0.486282
    100          1           0        2.305186   -1.406830    1.374318
 ---------------------------------------------------------------------

 SCF Done:  E(RCAM-B3LYP) =  -1857.34355412     A.U. after   15 cycles

 Excitation energies and oscillator strengths:

 Excited State   1:      Singlet-A      2.1223 eV  584.19 nm  f=3.0686  <S**2>=0.000
     163 ->166         0.12966
     164 ->165         0.69737
 This state for optimization and/or second-order correction.
 Total Energy, E(TD-HF/TD-DFT) =  -1857.26556006
 Copying the excited state density for this state as the 1-particle RhoCI density.

 The electronic state is 1-A.
 Alpha  occ. eigenvalues --  -19.22521 -19.21956 -19.20583 -19.19899 -10.33107
 Alpha  occ. eigenvalues --  -10.32590 -10.31708 -10.31311 -10.30613 -10.28816
 Alpha  occ. eigenvalues --  -10.28517 -10.28409 -10.28374 -10.27830 -10.27720
 Alpha  occ. eigenvalues --  -10.27610 -10.27357 -10.27327 -10.27274 -10.27259
 Alpha  occ. eigenvalues --  -10.27227 -10.27008 -10.26942 -10.26939 -10.26793
 Alpha  occ. eigenvalues --  -10.26784 -10.26554 -10.26512 -10.26466 -10.26286
 Alpha  occ. eigenvalues --  -10.26130 -10.25978 -10.25953 -10.25932 -10.25899
 Alpha  occ. eigenvalues --  -10.25440 -10.25206 -10.25164 -10.24970 -10.24849
 Alpha  occ. eigenvalues --  -10.24626 -10.24623 -10.24090 -10.22974  -1.12844
 Alpha  occ. eigenvalues --   -1.11633  -1.08144  -1.07835  -0.93608  -0.93088
 Alpha  occ. eigenvalues --   -0.92690  -0.92086  -0.90735  -0.90108  -0.87679
 Alpha  occ. eigenvalues --   -0.86599  -0.86042  -0.85435  -0.84946  -0.82980
 Alpha  occ. eigenvalues --   -0.82041  -0.80960  -0.79736  -0.77896  -0.76701
 Alpha  occ. eigenvalues --   -0.76586  -0.76279  -0.76234  -0.75768  -0.75588
 Alpha  occ. eigenvalues --   -0.75255  -0.74155  -0.73003  -0.70605  -0.69829
 Alpha  occ. eigenvalues --   -0.68781  -0.66836  -0.65552  -0.65206  -0.64041
 Alpha  occ. eigenvalues --   -0.63651  -0.63060  -0.60949  -0.60018  -0.59176
 Alpha  occ. eigenvalues --   -0.58923  -0.58406  -0.58107  -0.57317  -0.56980
 Alpha  occ. eigenvalues --   -0.56252  -0.55156  -0.54862  -0.54164  -0.53710
 Alpha  occ. eigenvalues --   -0.53592  -0.52953  -0.52649  -0.52304  -0.51856
 Alpha  occ. eigenvalues --   -0.51766  -0.51129  -0.51096  -0.50151  -0.49862
 Alpha  occ. eigenvalues --   -0.49748  -0.49652  -0.49170  -0.49067  -0.48449
 Alpha  occ. eigenvalues --   -0.48331  -0.48048  -0.47616  -0.47289  -0.46921
 Alpha  occ. eigenvalues --   -0.46226  -0.45910  -0.45493  -0.45383  -0.44784
 Alpha  occ. eigenvalues --   -0.44425  -0.44133  -0.43738  -0.43620  -0.43550
 Alpha  occ. eigenvalues --   -0.43284  -0.43160  -0.42780  -0.42476  -0.42079
 Alpha  occ. eigenvalues --   -0.41872  -0.41596  -0.41595  -0.41446  -0.40870
 Alpha  occ. eigenvalues --   -0.40716  -0.40437  -0.40148  -0.39956  -0.39740
 Alpha  occ. eigenvalues --   -0.39653  -0.39592  -0.39355  -0.39294  -0.38799
 Alpha  occ. eigenvalues --   -0.38450  -0.38206  -0.37984  -0.37513  -0.37410
 Alpha  occ. eigenvalues --   -0.36780  -0.36597  -0.35728  -0.35290  -0.34261
 Alpha  occ. eigenvalues --   -0.32420  -0.32197  -0.31847  -0.31182  -0.30427
 Alpha  occ. eigenvalues --   -0.29563  -0.28273  -0.24567  -0.19484
 Alpha virt. eigenvalues --   -0.06307  -0.00768   0.02942   0.06290   0.06744
 Alpha virt. eigenvalues --    0.09694   0.10253   0.10475   0.11163   0.11602
 Alpha virt. eigenvalues --    0.12205   0.12684   0.12827   0.13034   0.13236

 Mulliken charges:
               1
     1  O   -0.518848
     2  O   -0.564162
     3  O   -0.576893
     4  O   -0.529719
     5  C    0.188505
     6  C    0.223754
     7  C    0.009252
     8  C   -0.215781
     9  C   -0.173518
    10  C    0.139137
    11  C   -0.324489
    12  C   -0.135412
    13  C   -0.251225
    14  C   -0.293798
    15  C   -0.048713
    16  C    0.046438
    17  C   -0.361617
    18  C   -0.111444
    19  C   -0.062304
    20  C    0.030735
    21  C    0.243951
    22  C   -0.174566
    23  C    0.136631
    24  C   -0.152593
    25  C   -0.037816
    26  C   -0.321328
    27  C   -0.284822
    28  C   -0.321684
    29  C   -0.106010
    30  C    0.094840
    31  C    0.090373
    32  C   -0.256403
    33  C   -0.379200
    34  C   -0.081700
    35  C    0.103124
    36  C   -0.380797
    37  C   -0.098834
    38  C   -0.081335
    39  C   -0.133467
    40  C   -0.108872
    41  C   -0.098110
    42  C   -0.122135
    43  C    0.136088
    44  C   -0.345957
    45  H    0.123424
    46  H    0.118993
    47  H    0.097589
    48  H    0.109159
    49  H    0.102144
    50  H    0.086620
    51  H    0.110553
    52  H    0.115662
    53  H    0.117105
    54  H    0.109511
    55  H    0.090761
    56  H    0.069131
    57  H    0.112508
    58  H    0.094678
    59  H    0.103647
    60  H    0.299490
    61  H    0.062455
    62  H    0.142864
    63  H    0.131158
    64  H    0.094876
    65  H    0.073574
    66  H    0.065547
    67  H    0.082095
    68  H    0.111956
    69  H    0.060215
    70  H    0.117524
    71  H    0.092168
    72  H    0.086864
    73  H    0.104369
    74  H    0.099021
    75  H    0.108526
    76  H    0.060970
    77  H    0.109764
    78  H    0.104633
    79  H    0.096607
    80  H    0.127765
    81  H    0.080177
    82  H    0.308120
    83  H    0.306502
    84  H    0.110164
    85  H    0.090138
    86  H    0.117445
    87  H    0.127530
    88  H    0.056539
    89  H    0.112502
    90  H    0.124586
    91  H    0.129263
    92  H    0.082987
    93  H    0.086668
    94  H    0.095558
    95  H    0.096049
    96  H    0.070337
    97  H    0.095128
    98  H    0.079483
    99  H    0.123404
   100  H    0.124220
 Sum of Mulliken charges =  -0.00000

 Dipole moment (field-independent basis, Debye):
    X=              2.7929    Y=             -0.0899    Z=              1.2637  Tot=              3.0668
 Quadrupole moment (field-independent basis, Debye-Ang):
   XX=           -265.7938   YY=           -259.7942   ZZ=           -280.2112
   XY=              9.4488   XZ=             36.8065   YZ=             -2.4655

 Normal termination of Gaussian 16 at Fri Aug  2 03:26:20 2019.
