 Gaussian 16, Revision A.03,
 Gaussian 16:  ES64L-G16RevA.03 25-Dec-2016

 -------------------------------------
 # td=(NStates=1) CAM-B3LYP/6-31G(d,p)
 -------------------------------------

 --
 TD
 --
 Symbolic Z-matrix:
 Charge =  0 Multiplicity = 1

                         Standard orientation:
 ---------------------------------------------------------------------
 Center     Atomic      Atomic             Coordinates (Angstroms)
 Number     Number       Type             X           Y           Z
 ---------------------------------------------------------------------
      1          8           0      -11.749947    0.281405   -1.625907
      2          8           0      -13.248269   -2.363496    1.440988
      3          8           0       10.631468   -1.004722   -1.983435
      4          8           0       14.558412   -0.868150   -0.142115
      5          6           0      -11.146654   -0.043887   -0.358556
      6          6           0      -11.697978   -1.030510   -1.177973
      7          6           0      -11.772330    0.410989    0.965317
      8          6           0      -12.963358   -1.729266   -0.835566
      9          6           0      -13.280429    0.041584    0.883595
     10          6           0      -13.627723   -1.345200    0.483368
     11          6           0      -10.920483   -1.917906   -2.246089
     12          6           0       -9.588110    0.144390   -0.299972
     13          6           0      -11.019939   -0.115916    2.093081
     14          6           0      -11.750456    1.865507    1.067162
     15          6           0       -8.653981   -0.816417   -0.082297
     16          6           0       -7.271403   -0.537149    0.133901
     17          6           0       -6.410718   -1.803581    0.451883
     18          6           0       -6.627802    0.612513    0.003200
     19          6           0       -5.241388    0.898430   -0.071336
     20          6           0       12.002103    0.141334    1.325573
     21          6           0       11.627585   -0.547843   -1.263179
     22          6           0       12.799016   -1.215289    1.602321
     23          6           0       13.385770   -1.670630    0.266168
     24          6           0       12.397613   -1.785536   -0.880083
     25          6           0       11.128550    0.040898    0.092200
     26          6           0       11.029427    0.106153    2.541012
     27          6           0       12.881802    1.335069    1.252328
     28          6           0       12.442823    0.494003   -2.072200
     29          6           0       -4.726101    2.167102   -0.264814
     30          6           0        9.932589    0.513238   -0.035280
     31          6           0       -3.360204    2.451481   -0.423711
     32          6           0        8.638483    0.974887   -0.132394
     33          6           0       -2.967705    3.902747   -0.656626
     34          6           0       -2.333596    1.518232   -0.225760
     35          6           0        7.464359    0.040092    0.043811
     36          6           0        7.667656   -1.361802    0.342876
     37          6           0        6.245544    0.643954   -0.162052
     38          6           0       -0.933375    1.760668   -0.345181
     39          6           0        4.939606    0.059840   -0.034610
     40          6           0        0.077777    0.841742    0.065162
     41          6           0        3.826452    0.744635   -0.139983
     42          6           0        1.392666    1.081716   -0.253505
     43          6           0        2.522964    0.222643   -0.025079
     44          6           0        2.381034   -1.282484    0.044162
     45          1           0      -12.863224   -2.692159   -0.926805
     46          1           0      -13.880028   -1.578374   -1.605267
     47          1           0      -13.765246    0.263152    1.806026
     48          1           0      -13.799969    0.589888   -0.048190
     49          1           0      -14.727200   -1.561482    0.459407
     50          1           0      -10.791687   -2.904492   -1.900051
     51          1           0      -11.367599   -1.951925   -3.148882
     52          1           0       -9.814771   -1.613264   -2.393142
     53          1           0       -9.129597    1.032398   -0.572039
     54          1           0      -10.152232    0.215039    2.238982
     55          1           0      -11.572299    0.091362    3.010009
     56          1           0      -11.026856   -1.158498    2.069167
     57          1           0      -12.285501    2.430670    0.071957
     58          1           0      -12.141552    2.155726    2.007538
     59          1           0      -10.711759    2.206778    1.244063
     60          1           0      -12.344674   -2.461666    1.475226
     61          1           0       -9.031033   -1.685671    0.199414
     62          1           0       -5.651388   -1.828418   -0.434784
     63          1           0       -5.635967   -1.566162    1.332481
     64          1           0       -6.735591   -2.927340    0.659713
     65          1           0       -7.456348    1.522588   -0.280982
     66          1           0       -4.608647    0.098128    0.011198
     67          1           0       13.443747   -1.120476    2.499017
     68          1           0       12.011862   -2.060534    1.923815
     69          1           0       13.700538   -2.720455    0.510177
     70          1           0       12.782883   -2.404237   -1.792594
     71          1           0       11.724861   -2.538693   -0.578045
     72          1           0       11.786424    0.351344    3.335525
     73          1           0       10.364119    1.014455    2.427068
     74          1           0       10.348786   -0.891465    2.647537
     75          1           0       13.662611    1.286796    0.414380
     76          1           0       12.337161    2.350752    1.126186
     77          1           0       13.398274    1.407065    2.127648
     78          1           0       12.650552   -0.074330   -2.933804
     79          1           0       12.040715    1.406740   -2.136297
     80          1           0       13.346492    0.674743   -1.710761
     81          1           0       -5.485834    2.954638   -0.286603
     82          1           0        9.879028   -0.438617   -2.041675
     83          1           0       15.282659   -1.250739    0.587007
     84          1           0        8.544171    2.022728   -0.493419
     85          1           0       -2.230093    4.296545    0.228194
     86          1           0       -2.373557    3.981970   -1.570287
     87          1           0       -3.908486    4.389275   -0.807617
     88          1           0       -2.616883    0.506381    0.180708
     89          1           0        6.770569   -1.979347    0.352766
     90          1           0        8.389209   -1.680836   -0.513260
     91          1           0        8.103575   -1.513908    1.372739
     92          1           0        6.209470    1.676839   -0.723288
     93          1           0       -0.668790    2.723253   -0.923353
     94          1           0        4.991403   -1.001209    0.148178
     95          1           0       -0.165290   -0.104543    0.424781
     96          1           0        3.842754    1.759452   -0.677637
     97          1           0        1.843209    2.076371   -0.394661
     98          1           0        1.296459   -1.641516    0.055696
     99          1           0        3.176859   -1.766922   -0.678841
    100          1           0        2.539880   -1.590677    1.084206
 ---------------------------------------------------------------------

 SCF Done:  E(RCAM-B3LYP) =  -1857.32031514     A.U. after   15 cycles

 Excitation energies and oscillator strengths:

 Excited State   1:      Singlet-A      2.1029 eV  589.58 nm  f=2.8802  <S**2>=0.000
     163 ->166        -0.12662
     164 ->165         0.69817
     164 <-165        -0.10014
 This state for optimization and/or second-order correction.
 Total Energy, E(TD-HF/TD-DFT) =  -1857.24303435
 Copying the excited state density for this state as the 1-particle RhoCI density.

 The electronic state is 1-A.
 Alpha  occ. eigenvalues --  -19.22822 -19.22657 -19.20650 -19.19486 -10.32434
 Alpha  occ. eigenvalues --  -10.31780 -10.31364 -10.31141 -10.30331 -10.28230
 Alpha  occ. eigenvalues --  -10.28139 -10.28097 -10.27875 -10.27738 -10.27716
 Alpha  occ. eigenvalues --  -10.27385 -10.27383 -10.27291 -10.27208 -10.27015
 Alpha  occ. eigenvalues --  -10.26780 -10.26739 -10.26732 -10.26676 -10.26509
 Alpha  occ. eigenvalues --  -10.26499 -10.26413 -10.26356 -10.26237 -10.26210
 Alpha  occ. eigenvalues --  -10.26102 -10.26097 -10.26050 -10.25804 -10.25616
 Alpha  occ. eigenvalues --  -10.25582 -10.25558 -10.25402 -10.24926 -10.24738
 Alpha  occ. eigenvalues --  -10.24589 -10.24262 -10.23213 -10.20872  -1.17468
 Alpha  occ. eigenvalues --   -1.13891  -1.09263  -1.06783  -0.93787  -0.92931
 Alpha  occ. eigenvalues --   -0.92442  -0.92114  -0.90908  -0.90120  -0.87543
 Alpha  occ. eigenvalues --   -0.87319  -0.86099  -0.85606  -0.84704  -0.82889
 Alpha  occ. eigenvalues --   -0.82104  -0.81167  -0.80754  -0.78281  -0.78198
 Alpha  occ. eigenvalues --   -0.77464  -0.76675  -0.76485  -0.75951  -0.75672
 Alpha  occ. eigenvalues --   -0.75268  -0.75085  -0.72895  -0.71124  -0.69980
 Alpha  occ. eigenvalues --   -0.69171  -0.67240  -0.66640  -0.65744  -0.65186
 Alpha  occ. eigenvalues --   -0.63532  -0.61799  -0.60262  -0.59979  -0.59911
 Alpha  occ. eigenvalues --   -0.59808  -0.59055  -0.58596  -0.57974  -0.56544
 Alpha  occ. eigenvalues --   -0.56293  -0.55793  -0.54946  -0.54483  -0.54347
 Alpha  occ. eigenvalues --   -0.53744  -0.53516  -0.52993  -0.52444  -0.51824
 Alpha  occ. eigenvalues --   -0.51303  -0.51273  -0.50889  -0.50287  -0.50007
 Alpha  occ. eigenvalues --   -0.49723  -0.49263  -0.48987  -0.48906  -0.48687
 Alpha  occ. eigenvalues --   -0.48321  -0.47519  -0.47432  -0.47268  -0.46511
 Alpha  occ. eigenvalues --   -0.46408  -0.46275  -0.46214  -0.45886  -0.45573
 Alpha  occ. eigenvalues --   -0.44997  -0.44897  -0.44637  -0.44194  -0.44073
 Alpha  occ. eigenvalues --   -0.43852  -0.43297  -0.43263  -0.42793  -0.42660
 Alpha  occ. eigenvalues --   -0.42532  -0.42132  -0.42000  -0.41778  -0.41543
 Alpha  occ. eigenvalues --   -0.41392  -0.40540  -0.40375  -0.40288  -0.40251
 Alpha  occ. eigenvalues --   -0.39920  -0.39829  -0.39602  -0.39351  -0.38676
 Alpha  occ. eigenvalues --   -0.38361  -0.38276  -0.38190  -0.37766  -0.37178
 Alpha  occ. eigenvalues --   -0.36410  -0.35700  -0.35520  -0.34960  -0.34350
 Alpha  occ. eigenvalues --   -0.32446  -0.32095  -0.31682  -0.31298  -0.30627
 Alpha  occ. eigenvalues --   -0.30031  -0.27695  -0.24592  -0.19501
 Alpha virt. eigenvalues --   -0.06275  -0.00598   0.02948   0.06426   0.07663
 Alpha virt. eigenvalues --    0.08411   0.09882   0.10196   0.11287   0.11902
 Alpha virt. eigenvalues --    0.12105   0.12738   0.13146   0.13653   0.14110

 Mulliken charges:
               1
     1  O   -0.487373
     2  O   -0.560823
     3  O   -0.537322
     4  O   -0.547380
     5  C    0.230985
     6  C    0.236788
     7  C   -0.001806
     8  C   -0.204838
     9  C   -0.177422
    10  C    0.136025
    11  C   -0.339917
    12  C   -0.118430
    13  C   -0.287258
    14  C   -0.287021
    15  C   -0.055092
    16  C    0.107816
    17  C   -0.390030
    18  C   -0.125853
    19  C   -0.053919
    20  C    0.009789
    21  C    0.266265
    22  C   -0.174379
    23  C    0.127017
    24  C   -0.189603
    25  C   -0.079320
    26  C   -0.288178
    27  C   -0.304069
    28  C   -0.304780
    29  C   -0.116878
    30  C    0.101624
    31  C    0.084057
    32  C   -0.263734
    33  C   -0.365765
    34  C   -0.111496
    35  C    0.101849
    36  C   -0.365384
    37  C   -0.111343
    38  C   -0.091642
    39  C   -0.081312
    40  C   -0.085133
    41  C   -0.116889
    42  C   -0.113988
    43  C    0.097222
    44  C   -0.371460
    45  H    0.116875
    46  H    0.090170
    47  H    0.102474
    48  H    0.103915
    49  H    0.100679
    50  H    0.100148
    51  H    0.130593
    52  H    0.107011
    53  H    0.091484
    54  H    0.128752
    55  H    0.106255
    56  H    0.076320
    57  H    0.097231
    58  H    0.107162
    59  H    0.091618
    60  H    0.289851
    61  H    0.067698
    62  H    0.116316
    63  H    0.102612
    64  H    0.109366
    65  H    0.054182
    66  H    0.079798
    67  H    0.097066
    68  H    0.082706
    69  H    0.074432
    70  H    0.098435
    71  H    0.116931
    72  H    0.085481
    73  H    0.102291
    74  H    0.096678
    75  H    0.137740
    76  H    0.092070
    77  H    0.100917
    78  H    0.110578
    79  H    0.097975
    80  H    0.128435
    81  H    0.088729
    82  H    0.298175
    83  H    0.305850
    84  H    0.115094
    85  H    0.113605
    86  H    0.125520
    87  H    0.110361
    88  H    0.074828
    89  H    0.113949
    90  H    0.124008
    91  H    0.120517
    92  H    0.069482
    93  H    0.086474
    94  H    0.080678
    95  H    0.087195
    96  H    0.082935
    97  H    0.079255
    98  H    0.100789
    99  H    0.118338
   100  H    0.122375
 Sum of Mulliken charges =  -0.00000

 Dipole moment (field-independent basis, Debye):
    X=              3.1934    Y=             -1.2903    Z=              2.2345  Tot=              4.1056
 Quadrupole moment (field-independent basis, Debye-Ang):
   XX=           -274.4461   YY=           -259.9492   ZZ=           -277.7516
   XY=            -11.6272   XZ=             22.9265   YZ=             -3.5394

 Normal termination of Gaussian 16 at Tue Jul 30 11:13:10 2019.
