 Gaussian 16, Revision A.03,
 Gaussian 16:  ES64L-G16RevA.03 25-Dec-2016

 -------------------------------------
 # td=(NStates=1) CAM-B3LYP/6-31G(d,p)
 -------------------------------------

 --
 TD
 --
 Symbolic Z-matrix:
 Charge =  0 Multiplicity = 1

                         Standard orientation:
 ---------------------------------------------------------------------
 Center     Atomic      Atomic             Coordinates (Angstroms)
 Number     Number       Type             X           Y           Z
 ---------------------------------------------------------------------
      1          8           0      -11.854367    0.322343   -1.489812
      2          8           0      -13.187417   -2.540516    1.313733
      3          8           0       10.691602   -0.987150   -2.112324
      4          8           0       14.556283   -0.993755   -0.082999
      5          6           0      -10.988514   -0.095668   -0.302042
      6          6           0      -11.709416   -1.017906   -1.290891
      7          6           0      -11.794020    0.297968    1.065106
      8          6           0      -13.052408   -1.726796   -0.951061
      9          6           0      -13.358378   -0.102050    1.070085
     10          6           0      -13.649570   -1.550881    0.578870
     11          6           0      -10.873230   -1.817421   -2.268699
     12          6           0       -9.612222    0.081688   -0.246667
     13          6           0      -11.091043   -0.236924    2.313289
     14          6           0      -11.758488    1.821914    1.012703
     15          6           0       -8.722831   -0.695996    0.209055
     16          6           0       -7.281371   -0.607705    0.120442
     17          6           0       -6.435689   -1.738737    0.234528
     18          6           0       -6.632443    0.630196   -0.154000
     19          6           0       -5.252163    0.913129   -0.216614
     20          6           0       11.936126    0.047586    1.328104
     21          6           0       11.737514   -0.695064   -1.222651
     22          6           0       12.686851   -1.281410    1.584750
     23          6           0       13.438805   -1.841508    0.402301
     24          6           0       12.517440   -1.962938   -0.753685
     25          6           0       11.144215   -0.019717    0.048886
     26          6           0       11.014505    0.193932    2.634416
     27          6           0       12.860627    1.352323    1.461849
     28          6           0       12.655269    0.300927   -2.020877
     29          6           0       -4.757931    2.115091   -0.375840
     30          6           0        9.901127    0.493252    0.001656
     31          6           0       -3.391651    2.516325   -0.493164
     32          6           0        8.678280    0.933924   -0.153848
     33          6           0       -2.922527    3.944415   -0.658339
     34          6           0       -2.327071    1.622366   -0.229686
     35          6           0        7.495848    0.150152   -0.085550
     36          6           0        7.620677   -1.281758    0.126951
     37          6           0        6.319192    0.659923   -0.190024
     38          6           0       -0.983804    1.935949   -0.415293
     39          6           0        5.000117    0.074794   -0.060495
     40          6           0        0.010606    1.046728   -0.137938
     41          6           0        3.774862    0.832120   -0.124327
     42          6           0        1.447994    1.246740   -0.210955
     43          6           0        2.497664    0.358764   -0.071234
     44          6           0        2.324020   -1.128648    0.035856
     45          1           0      -12.842291   -2.774499   -1.109149
     46          1           0      -13.863175   -1.340649   -1.726215
     47          1           0      -13.546968   -0.140121    2.224883
     48          1           0      -13.993505    0.801214    0.507774
     49          1           0      -14.740594   -1.491915    0.394422
     50          1           0      -10.515131   -2.723972   -1.756139
     51          1           0      -11.402701   -2.022231   -3.190147
     52          1           0       -9.965321   -1.283995   -2.462701
     53          1           0       -9.250211    0.851718   -1.070265
     54          1           0      -10.193458    0.326401    2.610835
     55          1           0      -11.774648   -0.004323    3.079376
     56          1           0      -11.074005   -1.318949    2.210320
     57          1           0      -11.981310    2.102019    0.032564
     58          1           0      -12.400870    2.321405    1.764403
     59          1           0      -10.712162    2.196764    1.375882
     60          1           0      -11.964876   -2.577977    1.561930
     61          1           0       -8.972086   -1.714315    0.406907
     62          1           0       -6.040968   -2.099030   -0.777131
     63          1           0       -5.540963   -1.664918    0.824912
     64          1           0       -6.994972   -2.557854    0.789499
     65          1           0       -7.165335    1.617999   -0.365242
     66          1           0       -4.560777    0.153377   -0.061429
     67          1           0       13.463961   -0.984063    2.341692
     68          1           0       11.890586   -1.893974    1.772105
     69          1           0       13.705170   -2.833708    0.754937
     70          1           0       13.124368   -2.357932   -1.506222
     71          1           0       11.651681   -2.609299   -0.604260
     72          1           0       11.549800    0.544570    3.574955
     73          1           0       10.208167    1.063870    2.325738
     74          1           0       10.530082   -0.818934    2.791153
     75          1           0       13.646319    1.344164    0.594428
     76          1           0       12.569546    2.290087    1.086402
     77          1           0       13.491320    1.223774    2.286805
     78          1           0       12.964385   -0.065417   -2.902790
     79          1           0       12.250527    1.237215   -2.094736
     80          1           0       13.572745    0.460147   -1.550530
     81          1           0       -5.480214    2.892026   -0.313957
     82          1           0       10.248857   -0.122819   -2.255366
     83          1           0       15.264192   -0.765815    0.567992
     84          1           0        8.538014    1.954453   -0.535393
     85          1           0       -2.786905    4.623773    0.372913
     86          1           0       -2.141339    3.991201   -1.395702
     87          1           0       -3.791990    4.366056   -1.154730
     88          1           0       -2.382578    0.529965   -0.202695
     89          1           0        6.712155   -1.907557   -0.023306
     90          1           0        8.328585   -1.821750   -0.465973
     91          1           0        7.908901   -1.574958    1.132651
     92          1           0        6.137741    1.834073   -0.262120
     93          1           0       -0.648289    3.054385   -0.422595
     94          1           0        4.984200   -0.968907   -0.050464
     95          1           0       -0.384013    0.010514    0.228864
     96          1           0        3.677827    1.955938   -0.119653
     97          1           0        1.509854    2.357409   -0.044576
     98          1           0        1.276744   -1.474268    0.295329
     99          1           0        2.634915   -1.652700   -0.898881
    100          1           0        2.820383   -1.559520    0.814122
 ---------------------------------------------------------------------

 SCF Done:  E(RCAM-B3LYP) =  -1857.31770360     A.U. after   15 cycles

 Excitation energies and oscillator strengths:

 Excited State   1:      Singlet-A      2.2660 eV  547.16 nm  f=3.1230  <S**2>=0.000
     163 ->166         0.15054
     164 ->165         0.68942
 This state for optimization and/or second-order correction.
 Total Energy, E(TD-HF/TD-DFT) =  -1857.23443141
 Copying the excited state density for this state as the 1-particle RhoCI density.

 The electronic state is 1-A.
 Alpha  occ. eigenvalues --  -19.23441 -19.22273 -19.21973 -19.20945 -10.32224
 Alpha  occ. eigenvalues --  -10.31536 -10.31477 -10.31376 -10.31158 -10.28330
 Alpha  occ. eigenvalues --  -10.27848 -10.27769 -10.27539 -10.27500 -10.27427
 Alpha  occ. eigenvalues --  -10.27352 -10.27220 -10.27198 -10.27110 -10.27022
 Alpha  occ. eigenvalues --  -10.26858 -10.26851 -10.26653 -10.26575 -10.26523
 Alpha  occ. eigenvalues --  -10.26394 -10.26311 -10.26224 -10.26119 -10.26087
 Alpha  occ. eigenvalues --  -10.26017 -10.25907 -10.25668 -10.25391 -10.25282
 Alpha  occ. eigenvalues --  -10.25141 -10.25054 -10.25007 -10.24789 -10.24565
 Alpha  occ. eigenvalues --  -10.24514 -10.24189 -10.24005 -10.21030  -1.14249
 Alpha  occ. eigenvalues --   -1.10217  -1.10192  -1.07994  -0.93287  -0.93203
 Alpha  occ. eigenvalues --   -0.92468  -0.92035  -0.91378  -0.89872  -0.88258
 Alpha  occ. eigenvalues --   -0.86577  -0.86074  -0.85115  -0.83896  -0.83870
 Alpha  occ. eigenvalues --   -0.82648  -0.80507  -0.79792  -0.78634  -0.77580
 Alpha  occ. eigenvalues --   -0.77277  -0.76840  -0.76719  -0.76179  -0.75278
 Alpha  occ. eigenvalues --   -0.74548  -0.74388  -0.73597  -0.70625  -0.69434
 Alpha  occ. eigenvalues --   -0.68420  -0.67079  -0.64915  -0.64700  -0.63426
 Alpha  occ. eigenvalues --   -0.62840  -0.62139  -0.60929  -0.60471  -0.60003
 Alpha  occ. eigenvalues --   -0.59332  -0.58605  -0.58137  -0.57941  -0.56509
 Alpha  occ. eigenvalues --   -0.55990  -0.55800  -0.55433  -0.55205  -0.54650
 Alpha  occ. eigenvalues --   -0.53433  -0.53353  -0.52595  -0.52352  -0.52213
 Alpha  occ. eigenvalues --   -0.51612  -0.50891  -0.50425  -0.49958  -0.49593
 Alpha  occ. eigenvalues --   -0.49528  -0.49378  -0.49110  -0.49013  -0.48422
 Alpha  occ. eigenvalues --   -0.48180  -0.48115  -0.48088  -0.47168  -0.47098
 Alpha  occ. eigenvalues --   -0.46903  -0.46685  -0.46432  -0.46360  -0.45851
 Alpha  occ. eigenvalues --   -0.45807  -0.44714  -0.44265  -0.44016  -0.43777
 Alpha  occ. eigenvalues --   -0.43396  -0.43203  -0.43026  -0.42762  -0.42612
 Alpha  occ. eigenvalues --   -0.42444  -0.41597  -0.41563  -0.41192  -0.41087
 Alpha  occ. eigenvalues --   -0.40939  -0.40757  -0.40631  -0.39984  -0.39607
 Alpha  occ. eigenvalues --   -0.39487  -0.39147  -0.39086  -0.38959  -0.38787
 Alpha  occ. eigenvalues --   -0.38615  -0.37723  -0.37380  -0.37314  -0.36974
 Alpha  occ. eigenvalues --   -0.36572  -0.36191  -0.35570  -0.33825  -0.32484
 Alpha  occ. eigenvalues --   -0.32421  -0.32121  -0.31516  -0.31032  -0.30019
 Alpha  occ. eigenvalues --   -0.29410  -0.28043  -0.24357  -0.20222
 Alpha virt. eigenvalues --   -0.05992  -0.01293   0.02644   0.03300   0.05809
 Alpha virt. eigenvalues --    0.06808   0.09612   0.10034   0.11357   0.12115
 Alpha virt. eigenvalues --    0.12351   0.13407   0.13649   0.13964   0.14451

 Mulliken charges:
               1
     1  O   -0.503718
     2  O   -0.531037
     3  O   -0.559900
     4  O   -0.567240
     5  C    0.150989
     6  C    0.276193
     7  C    0.024523
     8  C   -0.224268
     9  C   -0.197065
    10  C    0.196939
    11  C   -0.336055
    12  C   -0.103230
    13  C   -0.288837
    14  C   -0.316738
    15  C   -0.052951
    16  C    0.080257
    17  C   -0.393327
    18  C   -0.129587
    19  C   -0.019551
    20  C    0.004181
    21  C    0.260745
    22  C   -0.170550
    23  C    0.162449
    24  C   -0.203976
    25  C   -0.065219
    26  C   -0.286465
    27  C   -0.314431
    28  C   -0.321286
    29  C   -0.113803
    30  C    0.139284
    31  C    0.053038
    32  C   -0.305157
    33  C   -0.364021
    34  C   -0.099624
    35  C    0.190734
    36  C   -0.406129
    37  C   -0.124649
    38  C   -0.075374
    39  C   -0.104361
    40  C   -0.105427
    41  C   -0.115471
    42  C   -0.159707
    43  C    0.153136
    44  C   -0.380363
    45  H    0.096050
    46  H    0.082939
    47  H    0.087551
    48  H    0.091593
    49  H    0.109506
    50  H    0.101214
    51  H    0.120107
    52  H    0.113249
    53  H    0.110842
    54  H    0.121644
    55  H    0.117756
    56  H    0.045610
    57  H    0.142655
    58  H    0.095486
    59  H    0.078062
    60  H    0.314231
    61  H    0.065698
    62  H    0.126330
    63  H    0.132041
    64  H    0.094591
    65  H    0.074662
    66  H    0.070042
    67  H    0.078335
    68  H    0.107724
    69  H    0.094790
    70  H    0.118763
    71  H    0.115126
    72  H    0.098060
    73  H    0.092469
    74  H    0.088557
    75  H    0.083130
    76  H    0.119892
    77  H    0.102247
    78  H    0.115581
    79  H    0.086115
    80  H    0.132143
    81  H    0.075725
    82  H    0.311674
    83  H    0.309886
    84  H    0.110157
    85  H    0.106263
    86  H    0.136263
    87  H    0.106434
    88  H    0.080310
    89  H    0.102050
    90  H    0.135481
    91  H    0.120749
    92  H    0.063567
    93  H    0.082520
    94  H    0.084442
    95  H    0.070966
    96  H    0.081690
    97  H    0.086901
    98  H    0.098654
    99  H    0.125080
   100  H    0.133446
 Sum of Mulliken charges =  -0.00000

 Dipole moment (field-independent basis, Debye):
    X=              4.1631    Y=             -0.5632    Z=              2.7639  Tot=              5.0287
 Quadrupole moment (field-independent basis, Debye-Ang):
   XX=           -272.5094   YY=           -260.3850   ZZ=           -276.7941
   XY=              0.6300   XZ=             19.2324   YZ=             -3.7987

 Normal termination of Gaussian 16 at Wed Jul 31 22:27:24 2019.
