 Gaussian 16, Revision A.03,
 Gaussian 16:  ES64L-G16RevA.03 25-Dec-2016

 -------------------------------------
 # td=(NStates=1) CAM-B3LYP/6-31G(d,p)
 -------------------------------------

 --
 TD
 --
 Symbolic Z-matrix:
 Charge =  0 Multiplicity = 1

                         Standard orientation:
 ---------------------------------------------------------------------
 Center     Atomic      Atomic             Coordinates (Angstroms)
 Number     Number       Type             X           Y           Z
 ---------------------------------------------------------------------
      1          8           0      -11.729758    0.331892   -1.425109
      2          8           0      -12.958683   -2.562268    1.272794
      3          8           0       10.646128   -1.178456   -2.015018
      4          8           0       14.548596   -1.058933   -0.036739
      5          6           0      -11.005162   -0.110058   -0.300173
      6          6           0      -11.656258   -1.059277   -1.275353
      7          6           0      -11.634829    0.228970    0.997347
      8          6           0      -13.006238   -1.719941   -0.998373
      9          6           0      -13.237172   -0.117647    0.936361
     10          6           0      -13.515833   -1.569204    0.451358
     11          6           0      -10.743803   -1.720028   -2.263237
     12          6           0       -9.517890    0.120992   -0.365671
     13          6           0      -11.028163   -0.328460    2.264000
     14          6           0      -11.709983    1.799309    1.082785
     15          6           0       -8.676632   -0.786389   -0.035335
     16          6           0       -7.237810   -0.596014    0.130124
     17          6           0       -6.370720   -1.864007    0.404474
     18          6           0       -6.613258    0.653686   -0.043739
     19          6           0       -5.230094    0.847930   -0.189249
     20          6           0       11.903968    0.196765    1.293039
     21          6           0       11.647070   -0.669395   -1.238007
     22          6           0       12.671895   -1.212626    1.595345
     23          6           0       13.413871   -1.837557    0.326538
     24          6           0       12.433400   -2.003135   -0.713032
     25          6           0       11.040443   -0.005599    0.034892
     26          6           0       11.037827    0.485790    2.505829
     27          6           0       12.900064    1.346246    1.093123
     28          6           0       12.618536    0.127607   -2.107263
     29          6           0       -4.808064    2.163116   -0.293680
     30          6           0        9.845580    0.497631    0.015989
     31          6           0       -3.438728    2.498357   -0.322229
     32          6           0        8.604177    0.888161   -0.204238
     33          6           0       -3.139087    3.965552   -0.735121
     34          6           0       -2.395924    1.723484   -0.161750
     35          6           0        7.445836    0.124782   -0.048419
     36          6           0        7.633788   -1.346661    0.414401
     37          6           0        6.184398    0.712660   -0.343285
     38          6           0       -1.016877    2.035710   -0.252882
     39          6           0        4.892596    0.042192   -0.248458
     40          6           0       -0.042083    1.130775   -0.088553
     41          6           0        3.811547    0.927519   -0.172807
     42          6           0        1.399473    1.326527   -0.134860
     43          6           0        2.404482    0.412585    0.057736
     44          6           0        2.224449   -1.001490    0.481120
     45          1           0      -13.047796   -2.866706   -1.156491
     46          1           0      -13.784915   -1.535824   -1.684516
     47          1           0      -13.585326   -0.249980    1.941852
     48          1           0      -13.788084    0.657420    0.406439
     49          1           0      -14.547406   -1.788347    0.395335
     50          1           0      -10.111494   -2.538067   -1.898517
     51          1           0      -11.455448   -2.330040   -2.986419
     52          1           0      -10.104942   -0.949778   -2.837283
     53          1           0       -9.206363    1.245047   -0.581110
     54          1           0      -10.085040    0.169006    2.362779
     55          1           0      -11.460489    0.038312    3.271009
     56          1           0      -10.884179   -1.375827    2.373342
     57          1           0      -12.020426    2.195093    0.094012
     58          1           0      -12.540284    2.078766    1.976010
     59          1           0      -10.643931    2.063442    1.180626
     60          1           0      -12.073097   -2.662042    1.150385
     61          1           0       -8.975103   -1.747302    0.418371
     62          1           0       -6.003278   -1.899210   -0.678282
     63          1           0       -5.478914   -1.558769    1.158019
     64          1           0       -7.109704   -2.713056    0.750252
     65          1           0       -7.081611    1.588917   -0.310848
     66          1           0       -4.542280   -0.055882   -0.395309
     67          1           0       13.426374   -1.031161    2.339612
     68          1           0       11.972115   -2.109447    1.934256
     69          1           0       13.781078   -2.876416    0.654883
     70          1           0       12.737948   -2.416853   -1.810205
     71          1           0       11.667844   -2.841438   -0.438994
     72          1           0       11.899616    0.062699    3.340866
     73          1           0       10.792329    1.501126    2.500219
     74          1           0       10.149381   -0.097221    2.424096
     75          1           0       13.713633    1.230169    0.440908
     76          1           0       12.256512    2.050910    0.702483
     77          1           0       13.249466    1.585874    2.029374
     78          1           0       12.754973   -0.538033   -3.042622
     79          1           0       11.863328    1.058505   -2.473245
     80          1           0       13.553972    0.607775   -1.622988
     81          1           0       -5.474727    2.894013   -0.354372
     82          1           0       10.052800   -0.485125   -2.011685
     83          1           0       15.196294   -1.144815    0.648068
     84          1           0        8.519840    1.870676   -0.545047
     85          1           0       -2.550873    4.495788    0.055968
     86          1           0       -2.380878    3.834248   -1.581997
     87          1           0       -4.049353    4.749296   -0.951895
     88          1           0       -2.624426    0.514893    0.079637
     89          1           0        6.702465   -1.927493    0.445480
     90          1           0        8.403205   -1.699775   -0.391407
     91          1           0        8.283026   -1.481969    1.362176
     92          1           0        6.423193    1.711066   -0.709167
     93          1           0       -0.810241    3.154458   -0.731541
     94          1           0        4.574662   -0.913652    0.200582
     95          1           0       -0.314187    0.080617   -0.086216
     96          1           0        4.039739    2.154196   -0.503177
     97          1           0        1.810634    2.421480   -0.157189
     98          1           0        1.013436   -1.036512    1.395889
     99          1           0        1.826739   -1.740222   -0.799968
    100          1           0        3.487171   -1.513861    1.047637
 ---------------------------------------------------------------------

 SCF Done:  E(RCAM-B3LYP) =  -1857.16612940     A.U. after   15 cycles

 Excitation energies and oscillator strengths:

 Excited State   1:      Singlet-A      2.4073 eV  515.04 nm  f=2.7555  <S**2>=0.000
     163 ->166         0.15772
     164 ->165         0.68042
 This state for optimization and/or second-order correction.
 Total Energy, E(TD-HF/TD-DFT) =  -1857.07766367
 Copying the excited state density for this state as the 1-particle RhoCI density.

 The electronic state is 1-A.
 Alpha  occ. eigenvalues --  -19.22742 -19.21638 -19.20943 -19.20766 -10.35580
 Alpha  occ. eigenvalues --  -10.32471 -10.32065 -10.31904 -10.31334 -10.30133
 Alpha  occ. eigenvalues --  -10.29252 -10.29154 -10.28819 -10.28530 -10.28201
 Alpha  occ. eigenvalues --  -10.27815 -10.27710 -10.27583 -10.27548 -10.27493
 Alpha  occ. eigenvalues --  -10.27461 -10.27300 -10.27229 -10.27221 -10.27093
 Alpha  occ. eigenvalues --  -10.26901 -10.26757 -10.26670 -10.26585 -10.26503
 Alpha  occ. eigenvalues --  -10.26497 -10.26486 -10.26437 -10.26402 -10.26266
 Alpha  occ. eigenvalues --  -10.26184 -10.26112 -10.26030 -10.25850 -10.25737
 Alpha  occ. eigenvalues --  -10.25130 -10.25003 -10.24539 -10.22501  -1.17430
 Alpha  occ. eigenvalues --   -1.13346  -1.11293  -1.10339  -0.93139  -0.92741
 Alpha  occ. eigenvalues --   -0.91961  -0.91229  -0.90404  -0.89935  -0.87913
 Alpha  occ. eigenvalues --   -0.86421  -0.85998  -0.85715  -0.84460  -0.82892
 Alpha  occ. eigenvalues --   -0.81983  -0.80948  -0.79951  -0.77220  -0.76781
 Alpha  occ. eigenvalues --   -0.76557  -0.76105  -0.75695  -0.75659  -0.74364
 Alpha  occ. eigenvalues --   -0.74265  -0.74100  -0.72589  -0.70691  -0.69123
 Alpha  occ. eigenvalues --   -0.68357  -0.67174  -0.65441  -0.64640  -0.64273
 Alpha  occ. eigenvalues --   -0.62997  -0.61750  -0.60572  -0.60260  -0.59806
 Alpha  occ. eigenvalues --   -0.59274  -0.58438  -0.57843  -0.56973  -0.56737
 Alpha  occ. eigenvalues --   -0.56081  -0.55165  -0.54927  -0.54681  -0.54508
 Alpha  occ. eigenvalues --   -0.53612  -0.53128  -0.52168  -0.51569  -0.51101
 Alpha  occ. eigenvalues --   -0.50738  -0.50674  -0.50308  -0.50224  -0.49838
 Alpha  occ. eigenvalues --   -0.49376  -0.49176  -0.49096  -0.48804  -0.48359
 Alpha  occ. eigenvalues --   -0.47664  -0.47597  -0.47486  -0.46247  -0.46118
 Alpha  occ. eigenvalues --   -0.46101  -0.45806  -0.45444  -0.45140  -0.45076
 Alpha  occ. eigenvalues --   -0.44979  -0.44771  -0.44377  -0.43831  -0.43671
 Alpha  occ. eigenvalues --   -0.43606  -0.43425  -0.43329  -0.42866  -0.42728
 Alpha  occ. eigenvalues --   -0.42645  -0.41913  -0.41494  -0.41363  -0.41107
 Alpha  occ. eigenvalues --   -0.40734  -0.40504  -0.40415  -0.40068  -0.39652
 Alpha  occ. eigenvalues --   -0.39175  -0.38906  -0.38765  -0.38589  -0.38029
 Alpha  occ. eigenvalues --   -0.37953  -0.37618  -0.37408  -0.36996  -0.36738
 Alpha  occ. eigenvalues --   -0.36032  -0.35728  -0.34715  -0.34307  -0.33812
 Alpha  occ. eigenvalues --   -0.32952  -0.32875  -0.32108  -0.31833  -0.30941
 Alpha  occ. eigenvalues --   -0.29432  -0.28133  -0.24051  -0.20926
 Alpha virt. eigenvalues --   -0.05645  -0.01271   0.02147   0.03519   0.05866
 Alpha virt. eigenvalues --    0.07578   0.08005   0.08819   0.09690   0.09901
 Alpha virt. eigenvalues --    0.10218   0.11439   0.12222   0.12531   0.12738

 Mulliken charges:
               1
     1  O   -0.498759
     2  O   -0.532352
     3  O   -0.525353
     4  O   -0.543097
     5  C    0.200729
     6  C    0.267037
     7  C    0.014734
     8  C   -0.241593
     9  C   -0.188808
    10  C    0.151582
    11  C   -0.337870
    12  C   -0.113248
    13  C   -0.313047
    14  C   -0.309956
    15  C   -0.034257
    16  C    0.012350
    17  C   -0.350926
    18  C   -0.096032
    19  C   -0.064840
    20  C   -0.004577
    21  C    0.234147
    22  C   -0.192981
    23  C    0.159791
    24  C   -0.181695
    25  C   -0.055178
    26  C   -0.275057
    27  C   -0.297761
    28  C   -0.268322
    29  C   -0.111832
    30  C    0.071578
    31  C    0.120802
    32  C   -0.273234
    33  C   -0.388607
    34  C   -0.123132
    35  C    0.132971
    36  C   -0.369344
    37  C   -0.121311
    38  C   -0.062716
    39  C   -0.079846
    40  C   -0.107758
    41  C   -0.093004
    42  C   -0.113876
    43  C    0.125599
    44  C   -0.275839
    45  H    0.091680
    46  H    0.122026
    47  H    0.105976
    48  H    0.107560
    49  H    0.096579
    50  H    0.112080
    51  H    0.086496
    52  H    0.125409
    53  H    0.104368
    54  H    0.109474
    55  H    0.102889
    56  H    0.095784
    57  H    0.129872
    58  H    0.089532
    59  H    0.091276
    60  H    0.294387
    61  H    0.073937
    62  H    0.140490
    63  H    0.121596
    64  H    0.104275
    65  H    0.082600
    66  H    0.098794
    67  H    0.078570
    68  H    0.083291
    69  H    0.071489
    70  H    0.086703
    71  H    0.104256
    72  H    0.068564
    73  H    0.111227
    74  H    0.116767
    75  H    0.124874
    76  H    0.107726
    77  H    0.100093
    78  H    0.118068
    79  H    0.045956
    80  H    0.131507
    81  H    0.078256
    82  H    0.295656
    83  H    0.308128
    84  H    0.107974
    85  H    0.124989
    86  H    0.122581
    87  H    0.094417
    88  H    0.053646
    89  H    0.108958
    90  H    0.122158
    91  H    0.112482
    92  H    0.086414
    93  H    0.081381
    94  H    0.069295
    95  H    0.090857
    96  H    0.078843
    97  H    0.081940
    98  H    0.065842
    99  H    0.056140
   100  H    0.078760
 Sum of Mulliken charges =  -0.00000

 Dipole moment (field-independent basis, Debye):
    X=              0.5139    Y=              0.2411    Z=              1.4366  Tot=              1.5447
 Quadrupole moment (field-independent basis, Debye-Ang):
   XX=           -273.9141   YY=           -263.4855   ZZ=           -281.7307
   XY=              3.3106   XZ=             30.3297   YZ=             -3.5096

 Normal termination of Gaussian 16 at Thu Aug  1 02:28:43 2019.
