 Gaussian 16, Revision A.03,
 Gaussian 16:  ES64L-G16RevA.03 25-Dec-2016

 -------------------------------------
 # td=(NStates=1) CAM-B3LYP/6-31G(d,p)
 -------------------------------------

 --
 TD
 --
 Symbolic Z-matrix:
 Charge =  0 Multiplicity = 1

                         Standard orientation:
 ---------------------------------------------------------------------
 Center     Atomic      Atomic             Coordinates (Angstroms)
 Number     Number       Type             X           Y           Z
 ---------------------------------------------------------------------
      1          8           0      -11.712058    0.294282   -1.440690
      2          8           0      -12.964768   -2.597154    1.395220
      3          8           0       10.819240   -1.057029   -2.187295
      4          8           0       14.549546   -0.958935    0.253059
      5          6           0      -10.948516   -0.151895   -0.371438
      6          6           0      -11.565232   -1.120426   -1.166224
      7          6           0      -11.715192    0.246752    1.044007
      8          6           0      -12.937502   -1.770510   -0.995321
      9          6           0      -13.180593   -0.145366    1.010131
     10          6           0      -13.470993   -1.640874    0.524580
     11          6           0      -10.729817   -1.878355   -2.167542
     12          6           0       -9.549646    0.204949   -0.342038
     13          6           0      -10.983955   -0.228634    2.281177
     14          6           0      -11.701861    1.804089    1.017982
     15          6           0       -8.613834   -0.693050   -0.072527
     16          6           0       -7.198594   -0.604700    0.082356
     17          6           0       -6.480949   -1.859955    0.380426
     18          6           0       -6.606646    0.700156    0.019200
     19          6           0       -5.206650    0.875832   -0.125248
     20          6           0       11.747505    0.008879    1.402560
     21          6           0       11.716785   -0.748023   -1.128980
     22          6           0       12.545206   -1.396522    1.553891
     23          6           0       13.443499   -1.867418    0.396397
     24          6           0       12.530399   -1.900152   -0.805210
     25          6           0       11.084189   -0.041317    0.068895
     26          6           0       10.806370    0.179059    2.557989
     27          6           0       12.789420    1.283026    1.456519
     28          6           0       12.642831    0.407951   -1.848902
     29          6           0       -4.695035    2.182192   -0.249924
     30          6           0        9.840824    0.480861   -0.029037
     31          6           0       -3.406885    2.594819   -0.255253
     32          6           0        8.700772    0.945777   -0.385049
     33          6           0       -3.227775    4.099769   -0.548744
     34          6           0       -2.354739    1.702975   -0.237088
     35          6           0        7.392910    0.087243   -0.239114
     36          6           0        7.656210   -1.346656    0.059678
     37          6           0        6.167581    0.751607   -0.221975
     38          6           0       -0.996242    2.000307   -0.299727
     39          6           0        4.914705    0.116349   -0.071263
     40          6           0        0.050714    1.068268   -0.273824
     41          6           0        3.756392    0.907782   -0.298515
     42          6           0        1.410227    1.342043   -0.341434
     43          6           0        2.451733    0.421452   -0.159607
     44          6           0        2.157756   -0.985674   -0.084043
     45          1           0      -12.920379   -2.894784   -1.142860
     46          1           0      -13.459496   -1.379031   -1.777128
     47          1           0      -13.647156   -0.049028    1.969657
     48          1           0      -14.137808    0.375969    0.197567
     49          1           0      -14.534222   -1.609065    0.571566
     50          1           0      -10.462887   -2.787948   -1.632812
     51          1           0      -11.476974   -2.119249   -2.998961
     52          1           0       -9.983337   -1.401990   -2.643728
     53          1           0       -9.183048    1.346846   -0.498104
     54          1           0       -9.961684   -0.047025    2.259915
     55          1           0      -11.707772    0.189923    3.061806
     56          1           0      -11.164974   -1.300922    2.419090
     57          1           0      -12.216550    2.044288    0.072593
     58          1           0      -12.318985    2.265317    1.766915
     59          1           0      -10.753112    2.393391    0.969571
     60          1           0      -11.925044   -2.439664    1.430895
     61          1           0       -8.840603   -1.643463    0.270811
     62          1           0       -6.116340   -2.343616   -0.752129
     63          1           0       -5.567453   -1.842449    1.077692
     64          1           0       -7.188618   -2.511596    0.892213
     65          1           0       -7.139453    1.488002   -0.104228
     66          1           0       -4.550666    0.028653    0.096404
     67          1           0       13.272212   -1.190080    2.361203
     68          1           0       11.867294   -2.138254    1.651632
     69          1           0       13.779178   -3.019241    0.580487
     70          1           0       13.210891   -2.062309   -1.749437
     71          1           0       11.680042   -2.679015   -0.876497
     72          1           0       11.263103    0.195696    3.411017
     73          1           0       10.481879    1.214837    2.501419
     74          1           0       10.156843   -0.870097    2.524148
     75          1           0       13.765459    1.063204    0.867793
     76          1           0       12.238321    2.085089    1.106463
     77          1           0       13.225722    1.372349    2.420598
     78          1           0       13.020144    0.115410   -2.685399
     79          1           0       12.059184    1.509997   -1.931848
     80          1           0       13.520789    0.717646   -1.310513
     81          1           0       -5.619166    2.803518   -0.395180
     82          1           0       10.037537   -0.459994   -2.294645
     83          1           0       14.945148   -1.120374    1.207433
     84          1           0        8.752472    2.071783   -0.457754
     85          1           0       -2.816684    4.656924    0.364463
     86          1           0       -2.531917    4.291417   -1.425484
     87          1           0       -4.243625    4.561810   -0.689004
     88          1           0       -2.367943    0.538342   -0.069795
     89          1           0        6.797998   -1.876518   -0.325503
     90          1           0        8.550863   -1.336122   -0.648430
     91          1           0        7.991882   -1.630284    1.098107
     92          1           0        6.252384    1.833167   -0.133372
     93          1           0       -0.807099    2.989030   -0.322495
     94          1           0        4.763248   -0.884144    0.039445
     95          1           0       -0.365398    0.068340   -0.287515
     96          1           0        3.882470    1.909691   -0.465833
     97          1           0        1.661169    2.313855   -0.386510
     98          1           0        0.946077   -1.384993   -0.506099
     99          1           0        2.801901   -1.696469   -0.770102
    100          1           0        2.136261   -1.371749    1.101546
 ---------------------------------------------------------------------

 SCF Done:  E(RCAM-B3LYP) =  -1857.24181788     A.U. after   15 cycles

 Excitation energies and oscillator strengths:

 Excited State   1:      Singlet-A      1.9423 eV  638.32 nm  f=3.0026  <S**2>=0.000
     163 ->166        -0.12682
     164 ->165         0.70160
     164 <-165        -0.11704
 This state for optimization and/or second-order correction.
 Total Energy, E(TD-HF/TD-DFT) =  -1857.17043831
 Copying the excited state density for this state as the 1-particle RhoCI density.

 The electronic state is 1-A.
 Alpha  occ. eigenvalues --  -19.23921 -19.22537 -19.21542 -19.21043 -10.32936
 Alpha  occ. eigenvalues --  -10.32408 -10.31350 -10.31296 -10.30816 -10.29622
 Alpha  occ. eigenvalues --  -10.28537 -10.28444 -10.28380 -10.27708 -10.27638
 Alpha  occ. eigenvalues --  -10.27553 -10.27468 -10.27345 -10.27214 -10.27188
 Alpha  occ. eigenvalues --  -10.27138 -10.26890 -10.26835 -10.26555 -10.26383
 Alpha  occ. eigenvalues --  -10.26370 -10.26307 -10.26303 -10.26232 -10.26167
 Alpha  occ. eigenvalues --  -10.25905 -10.25776 -10.25710 -10.25696 -10.25611
 Alpha  occ. eigenvalues --  -10.25604 -10.25495 -10.25430 -10.25266 -10.24927
 Alpha  occ. eigenvalues --  -10.24471 -10.24393 -10.23572 -10.22966  -1.16693
 Alpha  occ. eigenvalues --   -1.10180  -1.09609  -1.09044  -0.93122  -0.92940
 Alpha  occ. eigenvalues --   -0.92500  -0.91575  -0.90374  -0.89848  -0.87889
 Alpha  occ. eigenvalues --   -0.86980  -0.86281  -0.85975  -0.84982  -0.83206
 Alpha  occ. eigenvalues --   -0.82380  -0.80698  -0.80516  -0.78699  -0.77297
 Alpha  occ. eigenvalues --   -0.76685  -0.76349  -0.76193  -0.75837  -0.75512
 Alpha  occ. eigenvalues --   -0.75203  -0.74349  -0.72942  -0.70383  -0.69912
 Alpha  occ. eigenvalues --   -0.69034  -0.66994  -0.66278  -0.65181  -0.64151
 Alpha  occ. eigenvalues --   -0.63872  -0.62160  -0.61732  -0.61051  -0.60099
 Alpha  occ. eigenvalues --   -0.59331  -0.59137  -0.58141  -0.57343  -0.56711
 Alpha  occ. eigenvalues --   -0.56145  -0.55396  -0.55290  -0.54596  -0.53997
 Alpha  occ. eigenvalues --   -0.53829  -0.53416  -0.53046  -0.52442  -0.51599
 Alpha  occ. eigenvalues --   -0.51422  -0.51213  -0.50770  -0.50135  -0.50012
 Alpha  occ. eigenvalues --   -0.49822  -0.49224  -0.48865  -0.48502  -0.48427
 Alpha  occ. eigenvalues --   -0.48131  -0.47996  -0.47910  -0.47529  -0.47322
 Alpha  occ. eigenvalues --   -0.46696  -0.46298  -0.46282  -0.46158  -0.45719
 Alpha  occ. eigenvalues --   -0.45253  -0.45018  -0.44779  -0.44546  -0.44458
 Alpha  occ. eigenvalues --   -0.44017  -0.43901  -0.43392  -0.42713  -0.42610
 Alpha  occ. eigenvalues --   -0.42482  -0.42211  -0.42096  -0.41814  -0.41641
 Alpha  occ. eigenvalues --   -0.41444  -0.40890  -0.40301  -0.39700  -0.39467
 Alpha  occ. eigenvalues --   -0.39236  -0.39113  -0.38984  -0.38632  -0.38565
 Alpha  occ. eigenvalues --   -0.38310  -0.38078  -0.37498  -0.37299  -0.37100
 Alpha  occ. eigenvalues --   -0.36729  -0.36108  -0.35521  -0.34755  -0.34034
 Alpha  occ. eigenvalues --   -0.32948  -0.32187  -0.31872  -0.31738  -0.30207
 Alpha  occ. eigenvalues --   -0.28477  -0.27813  -0.24231  -0.19008
 Alpha virt. eigenvalues --   -0.06938  -0.01085   0.03226   0.05734   0.07039
 Alpha virt. eigenvalues --    0.08594   0.09233   0.09958   0.10973   0.11227
 Alpha virt. eigenvalues --    0.11452   0.11816   0.12243   0.12987   0.13396

 Mulliken charges:
               1
     1  O   -0.498340
     2  O   -0.537080
     3  O   -0.587603
     4  O   -0.527659
     5  C    0.242505
     6  C    0.183122
     7  C    0.003664
     8  C   -0.206472
     9  C   -0.180599
    10  C    0.147111
    11  C   -0.307979
    12  C   -0.127366
    13  C   -0.294691
    14  C   -0.320000
    15  C   -0.046711
    16  C    0.063780
    17  C   -0.362575
    18  C   -0.083610
    19  C   -0.049613
    20  C   -0.016870
    21  C    0.291070
    22  C   -0.186529
    23  C    0.148539
    24  C   -0.208905
    25  C    0.009397
    26  C   -0.265189
    27  C   -0.330736
    28  C   -0.297203
    29  C   -0.139454
    30  C    0.120618
    31  C    0.102242
    32  C   -0.324949
    33  C   -0.374782
    34  C   -0.113345
    35  C    0.053573
    36  C   -0.342770
    37  C   -0.098164
    38  C   -0.060123
    39  C   -0.085647
    40  C   -0.086645
    41  C   -0.109111
    42  C   -0.113551
    43  C    0.161995
    44  C   -0.371358
    45  H    0.102681
    46  H    0.133623
    47  H    0.104487
    48  H    0.053816
    49  H    0.101436
    50  H    0.105656
    51  H    0.093770
    52  H    0.126842
    53  H    0.101514
    54  H    0.129436
    55  H    0.109101
    56  H    0.067961
    57  H    0.129492
    58  H    0.096800
    59  H    0.086738
    60  H    0.310596
    61  H    0.055467
    62  H    0.098131
    63  H    0.121318
    64  H    0.115264
    65  H    0.056711
    66  H    0.080957
    67  H    0.063118
    68  H    0.102082
    69  H    0.075333
    70  H    0.107101
    71  H    0.119182
    72  H    0.110760
    73  H    0.109365
    74  H    0.080570
    75  H    0.126565
    76  H    0.112279
    77  H    0.095198
    78  H    0.112505
    79  H    0.052817
    80  H    0.116170
    81  H    0.079414
    82  H    0.318351
    83  H    0.315862
    84  H    0.113217
    85  H    0.115779
    86  H    0.124644
    87  H    0.115808
    88  H    0.073450
    89  H    0.112974
    90  H    0.109980
    91  H    0.128636
    92  H    0.088715
    93  H    0.063733
    94  H    0.084861
    95  H    0.070111
    96  H    0.078597
    97  H    0.075434
    98  H    0.073323
    99  H    0.115598
   100  H    0.104683
 Sum of Mulliken charges =  -0.00000

 Dipole moment (field-independent basis, Debye):
    X=              3.0220    Y=             -0.3081    Z=              2.9986  Tot=              4.2683
 Quadrupole moment (field-independent basis, Debye-Ang):
   XX=           -296.2763   YY=           -260.9162   ZZ=           -277.7790
   XY=             -5.0890   XZ=             35.9453   YZ=             -1.2037

 Normal termination of Gaussian 16 at Mon Jul 29 01:45:43 2019.
