 Gaussian 16, Revision A.03,
 Gaussian 16:  ES64L-G16RevA.03 25-Dec-2016

 -------------------------------------
 # td=(NStates=1) CAM-B3LYP/6-31G(d,p)
 -------------------------------------

 --
 TD
 --
 Symbolic Z-matrix:
 Charge =  0 Multiplicity = 1

                         Standard orientation:
 ---------------------------------------------------------------------
 Center     Atomic      Atomic             Coordinates (Angstroms)
 Number     Number       Type             X           Y           Z
 ---------------------------------------------------------------------
      1          8           0      -11.779364    0.156733   -1.657546
      2          8           0      -12.878623   -2.641946    1.475570
      3          8           0       10.474580   -1.399137   -2.037024
      4          8           0       14.543078   -1.272004    0.035030
      5          6           0      -11.054729   -0.148161   -0.404087
      6          6           0      -11.642983   -1.250990   -1.250852
      7          6           0      -11.797831    0.385999    0.913084
      8          6           0      -13.043344   -1.982809   -0.803663
      9          6           0      -13.288306   -0.174484    0.936508
     10          6           0      -13.463528   -1.716845    0.626614
     11          6           0      -10.796508   -2.064590   -2.277611
     12          6           0       -9.633989    0.042115   -0.480465
     13          6           0      -11.018850   -0.130370    2.173743
     14          6           0      -11.775184    1.861435    1.035528
     15          6           0       -8.641974   -0.703664    0.142818
     16          6           0       -7.227314   -0.469437    0.133771
     17          6           0       -6.298282   -1.677252    0.358158
     18          6           0       -6.629518    0.770024    0.135165
     19          6           0       -5.260932    0.975462    0.010157
     20          6           0       11.889884    0.094796    1.300196
     21          6           0       11.581906   -0.826976   -1.233229
     22          6           0       12.647405   -1.196306    1.554395
     23          6           0       13.349781   -1.895889    0.446542
     24          6           0       12.368010   -2.083186   -0.710711
     25          6           0       11.029250   -0.149696    0.032953
     26          6           0       11.016730    0.388633    2.506857
     27          6           0       12.925282    1.304088    1.098569
     28          6           0       12.419466    0.066669   -2.103835
     29          6           0       -4.657802    2.252868   -0.345065
     30          6           0        9.862480    0.454061   -0.132082
     31          6           0       -3.343441    2.603711   -0.447517
     32          6           0        8.693647    1.016831   -0.378776
     33          6           0       -3.004130    4.064546   -0.892189
     34          6           0       -2.310944    1.767468   -0.204418
     35          6           0        7.470130    0.316876   -0.096865
     36          6           0        7.593467   -1.180116    0.409893
     37          6           0        6.243978    0.874114   -0.226780
     38          6           0       -0.963528    2.021302   -0.356983
     39          6           0        4.985857    0.315582    0.126100
     40          6           0        0.017082    1.028030   -0.139715
     41          6           0        3.813458    1.050497   -0.186088
     42          6           0        1.461807    1.411446   -0.200529
     43          6           0        2.511307    0.584043   -0.008896
     44          6           0        2.332057   -0.978704    0.451380
     45          1           0      -12.853008   -2.962378   -1.202104
     46          1           0      -13.753132   -1.501891   -1.520710
     47          1           0      -13.793239    0.024280    2.012025
     48          1           0      -13.874916    0.232042    0.135233
     49          1           0      -14.671581   -1.997686    0.614803
     50          1           0      -10.260907   -3.132625   -1.784664
     51          1           0      -11.643957   -2.375547   -3.102899
     52          1           0       -9.962126   -1.270212   -2.645082
     53          1           0       -9.456490    0.982080   -0.859943
     54          1           0      -10.232319    0.587336    2.155830
     55          1           0      -11.592887   -0.085500    3.176686
     56          1           0      -10.811194   -1.283887    2.056201
     57          1           0      -12.149569    2.407720    0.081509
     58          1           0      -12.506250    2.110523    1.912808
     59          1           0      -10.829566    2.277654    1.232644
     60          1           0      -11.887848   -2.484561    1.447670
     61          1           0       -8.991014   -1.720984    0.455410
     62          1           0       -5.746911   -1.688909   -0.694843
     63          1           0       -5.454297   -1.600558    1.025911
     64          1           0       -6.865631   -2.624366    0.572840
     65          1           0       -7.337568    1.696806    0.191252
     66          1           0       -4.401240    0.214142   -0.169347
     67          1           0       13.401174   -1.058737    2.239938
     68          1           0       12.011889   -1.993837    2.080497
     69          1           0       13.705263   -2.835544    0.825214
     70          1           0       12.803270   -2.345903   -1.642055
     71          1           0       11.730416   -2.777593   -0.569999
     72          1           0       11.610630    0.666931    3.399194
     73          1           0       10.493772    1.333458    2.299543
     74          1           0       10.347944   -0.233129    2.653340
     75          1           0       13.547151    1.159228    0.366256
     76          1           0       12.556407    2.304397    0.826446
     77          1           0       13.694973    1.214807    1.966203
     78          1           0       12.659999   -0.529526   -3.136801
     79          1           0       11.864933    0.916052   -2.245381
     80          1           0       13.430781    0.303473   -1.666789
     81          1           0       -5.492150    3.062346   -0.581749
     82          1           0        9.918499   -0.691553   -2.402301
     83          1           0       15.250399   -1.374068    0.720362
     84          1           0        8.550333    2.155217   -0.766213
     85          1           0       -2.444935    4.454167   -0.016145
     86          1           0       -2.619586    4.097856   -1.881460
     87          1           0       -3.964442    4.633195   -0.702218
     88          1           0       -2.582830    0.709055    0.338037
     89          1           0        6.719210   -1.747343    0.367254
     90          1           0        8.340509   -1.759284   -0.255051
     91          1           0        8.141711   -1.138950    1.287104
     92          1           0        6.155507    1.770634   -0.687153
     93          1           0       -0.505055    2.974789   -0.540893
     94          1           0        4.725363   -0.541862    0.436956
     95          1           0       -0.190134   -0.048266    0.240983
     96          1           0        3.892805    2.120750   -0.501771
     97          1           0        1.483735    2.398181   -0.483225
     98          1           0        1.326390   -1.173154    0.189111
     99          1           0        2.794188   -1.593347   -0.282457
    100          1           0        2.680980   -1.111834    1.433299
 ---------------------------------------------------------------------

 SCF Done:  E(RCAM-B3LYP) =  -1857.31957936     A.U. after   15 cycles

 Excitation energies and oscillator strengths:

 Excited State   1:      Singlet-A      2.0778 eV  596.71 nm  f=2.9795  <S**2>=0.000
     163 ->166        -0.13642
     164 ->165         0.69591
 This state for optimization and/or second-order correction.
 Total Energy, E(TD-HF/TD-DFT) =  -1857.24322222
 Copying the excited state density for this state as the 1-particle RhoCI density.

 The electronic state is 1-A.
 Alpha  occ. eigenvalues --  -19.21974 -19.21894 -19.21639 -19.21002 -10.32419
 Alpha  occ. eigenvalues --  -10.32271 -10.32139 -10.31867 -10.30794 -10.29605
 Alpha  occ. eigenvalues --  -10.28833 -10.28645 -10.28065 -10.28009 -10.27780
 Alpha  occ. eigenvalues --  -10.27730 -10.27436 -10.27433 -10.27387 -10.27310
 Alpha  occ. eigenvalues --  -10.27309 -10.27065 -10.27011 -10.26955 -10.26723
 Alpha  occ. eigenvalues --  -10.26688 -10.26667 -10.26560 -10.26494 -10.26043
 Alpha  occ. eigenvalues --  -10.26007 -10.25931 -10.25921 -10.25683 -10.25581
 Alpha  occ. eigenvalues --  -10.25520 -10.25200 -10.25130 -10.24919 -10.24741
 Alpha  occ. eigenvalues --  -10.24562 -10.24376 -10.23169 -10.23031  -1.12329
 Alpha  occ. eigenvalues --   -1.10266  -1.10115  -1.07847  -0.93234  -0.92351
 Alpha  occ. eigenvalues --   -0.91683  -0.91241  -0.90274  -0.89928  -0.87040
 Alpha  occ. eigenvalues --   -0.86591  -0.85841  -0.85116  -0.84489  -0.83274
 Alpha  occ. eigenvalues --   -0.81386  -0.80246  -0.79419  -0.78436  -0.78131
 Alpha  occ. eigenvalues --   -0.77011  -0.76799  -0.76598  -0.75997  -0.75537
 Alpha  occ. eigenvalues --   -0.74987  -0.74437  -0.73601  -0.70350  -0.69630
 Alpha  occ. eigenvalues --   -0.68621  -0.66674  -0.65772  -0.65121  -0.63863
 Alpha  occ. eigenvalues --   -0.63214  -0.62496  -0.61999  -0.60905  -0.59377
 Alpha  occ. eigenvalues --   -0.58521  -0.58247  -0.57993  -0.57053  -0.55903
 Alpha  occ. eigenvalues --   -0.55341  -0.55105  -0.54785  -0.54538  -0.53860
 Alpha  occ. eigenvalues --   -0.52964  -0.52916  -0.52700  -0.52400  -0.52319
 Alpha  occ. eigenvalues --   -0.51682  -0.51343  -0.50773  -0.50518  -0.50214
 Alpha  occ. eigenvalues --   -0.50059  -0.49448  -0.49224  -0.49014  -0.48482
 Alpha  occ. eigenvalues --   -0.48240  -0.47452  -0.47070  -0.46527  -0.46200
 Alpha  occ. eigenvalues --   -0.46058  -0.45613  -0.45605  -0.44991  -0.44951
 Alpha  occ. eigenvalues --   -0.44735  -0.44596  -0.44302  -0.44174  -0.43820
 Alpha  occ. eigenvalues --   -0.43761  -0.43691  -0.43046  -0.43006  -0.42973
 Alpha  occ. eigenvalues --   -0.42466  -0.42079  -0.42024  -0.41846  -0.41206
 Alpha  occ. eigenvalues --   -0.41085  -0.41008  -0.40531  -0.40274  -0.40050
 Alpha  occ. eigenvalues --   -0.39840  -0.39638  -0.39096  -0.38952  -0.38918
 Alpha  occ. eigenvalues --   -0.38301  -0.37784  -0.37553  -0.37014  -0.36947
 Alpha  occ. eigenvalues --   -0.36729  -0.36034  -0.35375  -0.34073  -0.33473
 Alpha  occ. eigenvalues --   -0.33400  -0.32757  -0.32045  -0.31457  -0.31206
 Alpha  occ. eigenvalues --   -0.29665  -0.28415  -0.23732  -0.19456
 Alpha virt. eigenvalues --   -0.06297  -0.01027   0.03386   0.05404   0.06878
 Alpha virt. eigenvalues --    0.08735   0.09813   0.10010   0.11531   0.12175
 Alpha virt. eigenvalues --    0.12732   0.13194   0.13420   0.13613   0.14358

 Mulliken charges:
               1
     1  O   -0.516376
     2  O   -0.532784
     3  O   -0.574852
     4  O   -0.557483
     5  C    0.210379
     6  C    0.202970
     7  C    0.019305
     8  C   -0.205844
     9  C   -0.188142
    10  C    0.154637
    11  C   -0.297230
    12  C   -0.108357
    13  C   -0.276559
    14  C   -0.312195
    15  C   -0.094126
    16  C    0.084552
    17  C   -0.363288
    18  C   -0.107435
    19  C   -0.084104
    20  C    0.018828
    21  C    0.218417
    22  C   -0.169110
    23  C    0.148966
    24  C   -0.164782
    25  C   -0.072462
    26  C   -0.285942
    27  C   -0.306080
    28  C   -0.301086
    29  C   -0.144460
    30  C    0.160115
    31  C    0.101171
    32  C   -0.301459
    33  C   -0.365501
    34  C   -0.119459
    35  C    0.108083
    36  C   -0.374855
    37  C   -0.108210
    38  C   -0.098997
    39  C   -0.042629
    40  C   -0.090270
    41  C   -0.122870
    42  C   -0.119727
    43  C    0.073363
    44  C   -0.368059
    45  H    0.108674
    46  H    0.115010
    47  H    0.085553
    48  H    0.118214
    49  H    0.075656
    50  H    0.077698
    51  H    0.101587
    52  H    0.123741
    53  H    0.098252
    54  H    0.121604
    55  H    0.106720
    56  H    0.052223
    57  H    0.111042
    58  H    0.099593
    59  H    0.110698
    60  H    0.306181
    61  H    0.073172
    62  H    0.111715
    63  H    0.131305
    64  H    0.102707
    65  H    0.085353
    66  H    0.090511
    67  H    0.078081
    68  H    0.090120
    69  H    0.079676
    70  H    0.106407
    71  H    0.118926
    72  H    0.096064
    73  H    0.104462
    74  H    0.108864
    75  H    0.129862
    76  H    0.104246
    77  H    0.079866
    78  H    0.097811
    79  H    0.103122
    80  H    0.137016
    81  H    0.070595
    82  H    0.308071
    83  H    0.310220
    84  H    0.102583
    85  H    0.126749
    86  H    0.138580
    87  H    0.104083
    88  H    0.076313
    89  H    0.113631
    90  H    0.122835
    91  H    0.126538
    92  H    0.068634
    93  H    0.095594
    94  H    0.056462
    95  H    0.083967
    96  H    0.073831
    97  H    0.075535
    98  H    0.110757
    99  H    0.128627
   100  H    0.138613
 Sum of Mulliken charges =  -0.00000

 Dipole moment (field-independent basis, Debye):
    X=              5.2722    Y=              0.6013    Z=              1.9902  Tot=              5.6673
 Quadrupole moment (field-independent basis, Debye-Ang):
   XX=           -265.0748   YY=           -262.7389   ZZ=           -276.3693
   XY=             -6.8979   XZ=             21.4761   YZ=             -4.3929

 Normal termination of Gaussian 16 at Tue Jul 30 14:48:08 2019.
