 Gaussian 16, Revision A.03,
 Gaussian 16:  ES64L-G16RevA.03 25-Dec-2016

 -------------------------------------
 # td=(NStates=1) CAM-B3LYP/6-31G(d,p)
 -------------------------------------

 --
 TD
 --
 Symbolic Z-matrix:
 Charge =  0 Multiplicity = 1

                         Standard orientation:
 ---------------------------------------------------------------------
 Center     Atomic      Atomic             Coordinates (Angstroms)
 Number     Number       Type             X           Y           Z
 ---------------------------------------------------------------------
      1          8           0      -11.686604    0.366216   -1.501499
      2          8           0      -13.086414   -2.439308    1.189310
      3          8           0       10.720930   -0.826644   -2.196315
      4          8           0       14.634220   -0.997085    0.009846
      5          6           0      -11.095502   -0.113307   -0.240074
      6          6           0      -11.700865   -1.018660   -1.336401
      7          6           0      -11.827142    0.268281    1.115800
      8          6           0      -12.967397   -1.766458   -1.067032
      9          6           0      -13.354938   -0.063652    0.965762
     10          6           0      -13.688394   -1.414598    0.353683
     11          6           0      -10.824800   -1.742049   -2.193840
     12          6           0       -9.576869    0.058461   -0.360744
     13          6           0      -11.242075   -0.385873    2.269576
     14          6           0      -11.647523    1.765376    1.160606
     15          6           0       -8.666753   -0.694474    0.272878
     16          6           0       -7.230176   -0.558700    0.245832
     17          6           0       -6.423037   -1.748978    0.518955
     18          6           0       -6.649397    0.694086   -0.081892
     19          6           0       -5.292197    0.923722   -0.113123
     20          6           0       11.918329   -0.128275    1.414166
     21          6           0       11.717958   -0.443518   -1.214778
     22          6           0       12.681028   -1.558929    1.443339
     23          6           0       13.505932   -1.791284    0.157959
     24          6           0       12.551808   -1.830380   -0.973920
     25          6           0       11.071880   -0.022745    0.086434
     26          6           0       11.005158   -0.057385    2.638269
     27          6           0       12.919880    1.018014    1.591511
     28          6           0       12.656842    0.699091   -1.802516
     29          6           0       -4.684240    2.137489   -0.268543
     30          6           0        9.854180    0.480648   -0.057764
     31          6           0       -3.323002    2.575994   -0.303404
     32          6           0        8.647306    1.024598   -0.057435
     33          6           0       -3.004760    4.025058   -0.601749
     34          6           0       -2.349795    1.613735   -0.133613
     35          6           0        7.411572    0.216856   -0.059217
     36          6           0        7.640947   -1.279923    0.004898
     37          6           0        6.189253    0.973300   -0.037320
     38          6           0       -0.986264    1.785557   -0.202593
     39          6           0        5.003770    0.214239   -0.179768
     40          6           0       -0.028378    0.787661   -0.221759
     41          6           0        3.766086    0.847578   -0.194817
     42          6           0        1.321665    1.084460   -0.256227
     43          6           0        2.469844    0.156044   -0.312520
     44          6           0        2.322336   -1.302493   -0.249254
     45          1           0      -12.724348   -2.840237   -1.127575
     46          1           0      -13.798933   -1.456797   -1.962679
     47          1           0      -13.894940    0.027359    1.789955
     48          1           0      -13.861428    0.677812    0.352273
     49          1           0      -14.804403   -1.837035    0.360653
     50          1           0      -10.494944   -2.778433   -1.821391
     51          1           0      -11.391494   -2.082817   -3.087703
     52          1           0      -10.215791   -1.056456   -2.491604
     53          1           0       -9.489826    0.900075   -1.182425
     54          1           0      -10.167919    0.084321    2.268133
     55          1           0      -11.836487   -0.371429    3.164624
     56          1           0      -10.721090   -1.540217    2.201008
     57          1           0      -11.936709    2.411773    0.463614
     58          1           0      -12.066859    2.310741    1.982781
     59          1           0      -10.642139    2.041726    1.291791
     60          1           0      -12.228599   -2.367081    0.869748
     61          1           0       -9.355969   -1.531169    0.860930
     62          1           0       -5.956898   -1.913253   -0.336536
     63          1           0       -5.546626   -1.682115    1.202933
     64          1           0       -7.129926   -2.605656    0.676125
     65          1           0       -7.175400    1.608150   -0.067394
     66          1           0       -4.585911   -0.014791   -0.109457
     67          1           0       13.151167   -1.435699    2.453006
     68          1           0       12.093495   -2.378823    1.668235
     69          1           0       13.793440   -2.684409    0.160257
     70          1           0       13.043749   -2.046114   -1.985513
     71          1           0       11.809851   -2.658893   -0.739114
     72          1           0       11.447059   -0.045934    3.579892
     73          1           0       10.411443    1.029788    2.579092
     74          1           0       10.251429   -0.690469    2.546708
     75          1           0       13.648172    0.901008    0.865338
     76          1           0       12.357488    2.013953    1.574192
     77          1           0       13.343674    0.847109    2.566998
     78          1           0       12.785030    0.472426   -2.950591
     79          1           0       12.177973    1.855108   -1.850061
     80          1           0       13.599227    0.851056   -1.239181
     81          1           0       -5.293605    3.062085   -0.364605
     82          1           0       10.301275   -0.001183   -2.062836
     83          1           0       15.031117   -0.768985    0.934613
     84          1           0        8.711765    2.056575   -0.222737
     85          1           0       -2.437641    4.360836    0.130510
     86          1           0       -2.596721    4.251870   -1.535259
     87          1           0       -3.913374    4.687969   -0.601686
     88          1           0       -2.689933    0.618980    0.154160
     89          1           0        6.649617   -1.788737    0.276767
     90          1           0        8.077488   -1.480744   -0.891736
     91          1           0        8.471075   -1.234682    1.010404
     92          1           0        6.284253    2.201275    0.005928
     93          1           0       -0.710191    2.892636   -0.183848
     94          1           0        5.035735   -0.949568   -0.000294
     95          1           0       -0.457182   -0.206009   -0.125116
     96          1           0        3.830296    1.949400    0.019757
     97          1           0        1.529136    2.219173   -0.431072
     98          1           0        1.322864   -1.792849   -0.364023
     99          1           0        2.828347   -1.710701   -1.128620
    100          1           0        2.928432   -1.778765    0.525698
 ---------------------------------------------------------------------

 SCF Done:  E(RCAM-B3LYP) =  -1857.25614852     A.U. after   15 cycles

 Excitation energies and oscillator strengths:

 Excited State   1:      Singlet-A      2.0585 eV  602.32 nm  f=3.2392  <S**2>=0.000
     163 ->166         0.13811
     164 ->165         0.69582
 This state for optimization and/or second-order correction.
 Total Energy, E(TD-HF/TD-DFT) =  -1857.18050153
 Copying the excited state density for this state as the 1-particle RhoCI density.

 The electronic state is 1-A.
 Alpha  occ. eigenvalues --  -19.22826 -19.22648 -19.20750 -19.19257 -10.32363
 Alpha  occ. eigenvalues --  -10.32113 -10.31729 -10.31545 -10.29313 -10.28956
 Alpha  occ. eigenvalues --  -10.28922 -10.28880 -10.28545 -10.28212 -10.28089
 Alpha  occ. eigenvalues --  -10.27789 -10.27470 -10.27400 -10.27362 -10.27291
 Alpha  occ. eigenvalues --  -10.27289 -10.27177 -10.27107 -10.27059 -10.26873
 Alpha  occ. eigenvalues --  -10.26743 -10.26708 -10.26660 -10.26582 -10.26364
 Alpha  occ. eigenvalues --  -10.26309 -10.26291 -10.26285 -10.26272 -10.26259
 Alpha  occ. eigenvalues --  -10.25686 -10.25431 -10.24897 -10.24723 -10.24630
 Alpha  occ. eigenvalues --  -10.24450 -10.24361 -10.23857 -10.22791  -1.15465
 Alpha  occ. eigenvalues --   -1.10670  -1.10336  -1.09594  -0.92587  -0.92478
 Alpha  occ. eigenvalues --   -0.91909  -0.91247  -0.90911  -0.89726  -0.87421
 Alpha  occ. eigenvalues --   -0.87114  -0.86239  -0.85724  -0.84936  -0.83382
 Alpha  occ. eigenvalues --   -0.82829  -0.81634  -0.80094  -0.79494  -0.77859
 Alpha  occ. eigenvalues --   -0.77340  -0.77258  -0.77175  -0.76529  -0.75995
 Alpha  occ. eigenvalues --   -0.75157  -0.74461  -0.72286  -0.70130  -0.69589
 Alpha  occ. eigenvalues --   -0.68143  -0.66393  -0.64756  -0.64404  -0.64101
 Alpha  occ. eigenvalues --   -0.62908  -0.61893  -0.60882  -0.60492  -0.59147
 Alpha  occ. eigenvalues --   -0.58750  -0.58459  -0.57968  -0.57340  -0.56439
 Alpha  occ. eigenvalues --   -0.55959  -0.55833  -0.55264  -0.54739  -0.54603
 Alpha  occ. eigenvalues --   -0.54093  -0.53336  -0.52852  -0.52658  -0.51585
 Alpha  occ. eigenvalues --   -0.50967  -0.50917  -0.50850  -0.50736  -0.50144
 Alpha  occ. eigenvalues --   -0.49942  -0.49872  -0.49327  -0.49006  -0.48817
 Alpha  occ. eigenvalues --   -0.48222  -0.48071  -0.47713  -0.47219  -0.47030
 Alpha  occ. eigenvalues --   -0.47014  -0.46838  -0.45744  -0.45701  -0.45460
 Alpha  occ. eigenvalues --   -0.45331  -0.45097  -0.44183  -0.43960  -0.43859
 Alpha  occ. eigenvalues --   -0.43477  -0.43201  -0.43145  -0.43022  -0.42905
 Alpha  occ. eigenvalues --   -0.42535  -0.42340  -0.41765  -0.41549  -0.41435
 Alpha  occ. eigenvalues --   -0.41247  -0.41106  -0.41040  -0.40826  -0.40603
 Alpha  occ. eigenvalues --   -0.40496  -0.40270  -0.39658  -0.38980  -0.38397
 Alpha  occ. eigenvalues --   -0.38319  -0.37789  -0.37718  -0.37596  -0.37110
 Alpha  occ. eigenvalues --   -0.36854  -0.35612  -0.35366  -0.34343  -0.33249
 Alpha  occ. eigenvalues --   -0.32866  -0.32491  -0.32159  -0.31868  -0.30111
 Alpha  occ. eigenvalues --   -0.29318  -0.27571  -0.23783  -0.18993
 Alpha virt. eigenvalues --   -0.06122  -0.00900   0.02945   0.06849   0.07141
 Alpha virt. eigenvalues --    0.09170   0.09419   0.10318   0.11077   0.11319
 Alpha virt. eigenvalues --    0.11765   0.12602   0.12698   0.13507   0.13542

 Mulliken charges:
               1
     1  O   -0.519157
     2  O   -0.541980
     3  O   -0.541101
     4  O   -0.561707
     5  C    0.134196
     6  C    0.297947
     7  C    0.025869
     8  C   -0.232738
     9  C   -0.156364
    10  C    0.112590
    11  C   -0.312780
    12  C   -0.088176
    13  C   -0.300316
    14  C   -0.322290
    15  C   -0.109969
    16  C    0.068861
    17  C   -0.379300
    18  C   -0.097609
    19  C   -0.056948
    20  C    0.005214
    21  C    0.196821
    22  C   -0.233910
    23  C    0.229631
    24  C   -0.205445
    25  C   -0.011810
    26  C   -0.297053
    27  C   -0.291908
    28  C   -0.316320
    29  C   -0.129400
    30  C    0.051498
    31  C    0.081767
    32  C   -0.235613
    33  C   -0.379324
    34  C   -0.109117
    35  C    0.057939
    36  C   -0.324143
    37  C   -0.096196
    38  C   -0.085868
    39  C   -0.096727
    40  C   -0.069487
    41  C   -0.120302
    42  C   -0.136710
    43  C    0.101715
    44  C   -0.393179
    45  H    0.116985
    46  H    0.079359
    47  H    0.113046
    48  H    0.104334
    49  H    0.093288
    50  H    0.105397
    51  H    0.102850
    52  H    0.123034
    53  H    0.112323
    54  H    0.104556
    55  H    0.126765
    56  H    0.072628
    57  H    0.130728
    58  H    0.096319
    59  H    0.110295
    60  H    0.292894
    61  H    0.069988
    62  H    0.149007
    63  H    0.122506
    64  H    0.108722
    65  H    0.088840
    66  H    0.067181
    67  H    0.077603
    68  H    0.110878
    69  H    0.086486
    70  H    0.109825
    71  H    0.111923
    72  H    0.105821
    73  H    0.072044
    74  H    0.113376
    75  H    0.111747
    76  H    0.104595
    77  H    0.093215
    78  H    0.111121
    79  H    0.062954
    80  H    0.142177
    81  H    0.064925
    82  H    0.296507
    83  H    0.319439
    84  H    0.113655
    85  H    0.138497
    86  H    0.137758
    87  H    0.102231
    88  H    0.074839
    89  H    0.101706
    90  H    0.161096
    91  H    0.097982
    92  H    0.091440
    93  H    0.073205
    94  H    0.079333
    95  H    0.082560
    96  H    0.090448
    97  H    0.082909
    98  H    0.120114
    99  H    0.129390
   100  H    0.126056
 Sum of Mulliken charges =  -0.00000

 Dipole moment (field-independent basis, Debye):
    X=              2.7743    Y=              0.4653    Z=              2.6128  Tot=              3.8392
 Quadrupole moment (field-independent basis, Debye-Ang):
   XX=           -280.5028   YY=           -256.0145   ZZ=           -279.2903
   XY=             -6.4134   XZ=             40.3498   YZ=              0.7393

 Normal termination of Gaussian 16 at Tue Jul 30 00:29:38 2019.
