 Gaussian 16, Revision A.03,
 Gaussian 16:  ES64L-G16RevA.03 25-Dec-2016

 -------------------------------------
 # td=(NStates=1) CAM-B3LYP/6-31G(d,p)
 -------------------------------------

 --
 TD
 --
 Symbolic Z-matrix:
 Charge =  0 Multiplicity = 1

                         Standard orientation:
 ---------------------------------------------------------------------
 Center     Atomic      Atomic             Coordinates (Angstroms)
 Number     Number       Type             X           Y           Z
 ---------------------------------------------------------------------
      1          8           0      -11.686201    0.317956   -1.557599
      2          8           0      -13.227909   -2.475013    1.358154
      3          8           0       10.491210   -1.028831   -1.992288
      4          8           0       14.439795   -1.026470   -0.250121
      5          6           0      -11.018908   -0.070845   -0.309137
      6          6           0      -11.644430   -1.118020   -1.209336
      7          6           0      -11.838816    0.379204    0.912416
      8          6           0      -13.067923   -1.765171   -0.944355
      9          6           0      -13.313273   -0.043286    0.922064
     10          6           0      -13.601519   -1.465235    0.327532
     11          6           0      -10.880164   -2.012310   -2.229224
     12          6           0       -9.552132    0.159086   -0.347662
     13          6           0      -11.098114   -0.261411    2.257327
     14          6           0      -11.813775    1.967744    1.173929
     15          6           0       -8.646516   -0.648949    0.201643
     16          6           0       -7.252855   -0.525183    0.137920
     17          6           0       -6.294044   -1.693328    0.424755
     18          6           0       -6.598277    0.677339   -0.091372
     19          6           0       -5.230508    0.921448   -0.137793
     20          6           0       11.911856    0.158945    1.263614
     21          6           0       11.670669   -0.629918   -1.179399
     22          6           0       12.704720   -1.179707    1.655589
     23          6           0       13.356437   -1.780071    0.244249
     24          6           0       12.403342   -1.950519   -0.890014
     25          6           0       11.120554   -0.060512    0.089132
     26          6           0       11.076451    0.196896    2.490317
     27          6           0       12.898056    1.310321    1.228420
     28          6           0       12.436591    0.319744   -1.995591
     29          6           0       -4.664042    2.221269   -0.461358
     30          6           0        9.956414    0.563390    0.035181
     31          6           0       -3.287743    2.551111   -0.445752
     32          6           0        8.692731    1.041031   -0.036175
     33          6           0       -2.867981    4.052606   -0.537720
     34          6           0       -2.285672    1.604810   -0.393603
     35          6           0        7.472121    0.249544    0.052711
     36          6           0        7.733776   -1.295820    0.283342
     37          6           0        6.203910    0.685613   -0.145408
     38          6           0       -0.899539    1.767041   -0.442277
     39          6           0        4.998044    0.027750    0.130452
     40          6           0        0.049654    0.816488   -0.192040
     41          6           0        3.790831    0.624684   -0.180907
     42          6           0        1.436221    1.211005   -0.276144
     43          6           0        2.429551    0.180425   -0.068715
     44          6           0        2.289634   -1.250215    0.349784
     45          1           0      -13.071978   -2.964247   -0.865583
     46          1           0      -13.723374   -1.305118   -1.675527
     47          1           0      -13.784901   -0.135875    1.962967
     48          1           0      -13.881967    0.737427    0.406257
     49          1           0      -14.710505   -1.479256    0.324036
     50          1           0      -10.641726   -2.856073   -1.658884
     51          1           0      -11.469527   -2.189889   -3.037255
     52          1           0       -9.884458   -1.459185   -2.413257
     53          1           0       -9.330766    1.103486   -0.661586
     54          1           0       -9.992486    0.105863    2.338484
     55          1           0      -11.720275    0.109912    2.948875
     56          1           0      -11.057705   -1.390862    2.274648
     57          1           0      -12.382782    2.335090    0.150765
     58          1           0      -12.419867    2.412807    1.798371
     59          1           0      -10.681306    2.112828    1.040932
     60          1           0      -12.272238   -2.697017    1.406665
     61          1           0       -9.044982   -1.494859    0.784512
     62          1           0       -5.987424   -1.779078   -0.612403
     63          1           0       -5.388253   -1.524559    0.967257
     64          1           0       -6.858705   -2.477933    0.747772
     65          1           0       -7.260992    1.436715   -0.199077
     66          1           0       -4.595479   -0.007090    0.064762
     67          1           0       13.612556   -1.179899    2.220056
     68          1           0       12.020322   -1.864032    2.267930
     69          1           0       13.636955   -2.944964    0.618743
     70          1           0       12.895673   -2.491254   -1.840949
     71          1           0       11.337364   -2.523586   -0.694244
     72          1           0       11.860311    0.123161    3.437619
     73          1           0       10.531313    1.026221    2.420035
     74          1           0       10.270876   -0.509564    2.628891
     75          1           0       13.748777    1.367770    0.356997
     76          1           0       12.246942    2.161325    1.126226
     77          1           0       13.515353    1.677732    2.054372
     78          1           0       12.549253   -0.048245   -3.015434
     79          1           0       11.968626    1.303612   -2.064488
     80          1           0       13.423198    0.483037   -1.495428
     81          1           0       -5.490775    2.819839   -0.669272
     82          1           0       10.161039   -0.146270   -2.612575
     83          1           0       15.192875   -0.939432    0.441118
     84          1           0        8.462396    2.136808   -0.332674
     85          1           0       -2.164356    4.256634    0.225475
     86          1           0       -2.113797    3.936505   -1.311763
     87          1           0       -3.722019    4.814283   -0.657269
     88          1           0       -2.553404    0.613131   -0.315537
     89          1           0        6.966975   -2.103903   -0.224756
     90          1           0        8.690576   -1.456971   -0.074555
     91          1           0        8.000941   -1.464831    1.389214
     92          1           0        6.083002    1.853693   -0.437716
     93          1           0       -0.711513    2.796249   -0.534980
     94          1           0        5.027634   -0.920148    0.683965
     95          1           0       -0.189691   -0.092633    0.039926
     96          1           0        3.849265    1.638888   -0.702266
     97          1           0        1.665635    2.165199   -0.875920
     98          1           0        1.271809   -1.686481    0.260994
     99          1           0        2.828214   -1.906056   -0.348643
    100          1           0        2.502226   -1.411987    1.480650
 ---------------------------------------------------------------------

 SCF Done:  E(RCAM-B3LYP) =  -1857.27258178     A.U. after   15 cycles

 Excitation energies and oscillator strengths:

 Excited State   1:      Singlet-A      2.0832 eV  595.17 nm  f=2.9845  <S**2>=0.000
     163 ->166        -0.14026
     164 ->165         0.69469
 This state for optimization and/or second-order correction.
 Total Energy, E(TD-HF/TD-DFT) =  -1857.19602601
 Copying the excited state density for this state as the 1-particle RhoCI density.

 The electronic state is 1-A.
 Alpha  occ. eigenvalues --  -19.23915 -19.21586 -19.21244 -19.20386 -10.32833
 Alpha  occ. eigenvalues --  -10.32517 -10.32272 -10.31258 -10.30217 -10.28402
 Alpha  occ. eigenvalues --  -10.28337 -10.28192 -10.27984 -10.27958 -10.27769
 Alpha  occ. eigenvalues --  -10.27662 -10.27416 -10.27350 -10.27324 -10.27084
 Alpha  occ. eigenvalues --  -10.27082 -10.26962 -10.26946 -10.26854 -10.26375
 Alpha  occ. eigenvalues --  -10.26359 -10.26324 -10.26271 -10.26127 -10.26036
 Alpha  occ. eigenvalues --  -10.25877 -10.25764 -10.25700 -10.25622 -10.25590
 Alpha  occ. eigenvalues --  -10.25364 -10.25359 -10.25023 -10.24910 -10.24788
 Alpha  occ. eigenvalues --  -10.24785 -10.24772 -10.24218 -10.23671  -1.12387
 Alpha  occ. eigenvalues --   -1.10536  -1.06692  -1.05771  -0.94415  -0.92776
 Alpha  occ. eigenvalues --   -0.91911  -0.90852  -0.89561  -0.89307  -0.87575
 Alpha  occ. eigenvalues --   -0.86800  -0.86365  -0.85557  -0.84542  -0.82703
 Alpha  occ. eigenvalues --   -0.81952  -0.81229  -0.79746  -0.78558  -0.77192
 Alpha  occ. eigenvalues --   -0.76756  -0.76579  -0.75926  -0.75496  -0.75367
 Alpha  occ. eigenvalues --   -0.75283  -0.75075  -0.72954  -0.70804  -0.69552
 Alpha  occ. eigenvalues --   -0.68606  -0.66961  -0.65807  -0.65241  -0.64561
 Alpha  occ. eigenvalues --   -0.64376  -0.62376  -0.61053  -0.59560  -0.59304
 Alpha  occ. eigenvalues --   -0.58663  -0.58178  -0.57261  -0.56628  -0.55959
 Alpha  occ. eigenvalues --   -0.55560  -0.55262  -0.55106  -0.54218  -0.53914
 Alpha  occ. eigenvalues --   -0.53475  -0.53036  -0.52368  -0.52331  -0.51951
 Alpha  occ. eigenvalues --   -0.51690  -0.51446  -0.50912  -0.49820  -0.49564
 Alpha  occ. eigenvalues --   -0.49494  -0.49328  -0.49153  -0.48924  -0.48537
 Alpha  occ. eigenvalues --   -0.47831  -0.47491  -0.47294  -0.47095  -0.46975
 Alpha  occ. eigenvalues --   -0.46867  -0.46714  -0.46167  -0.45881  -0.45685
 Alpha  occ. eigenvalues --   -0.45564  -0.45320  -0.44944  -0.44587  -0.44367
 Alpha  occ. eigenvalues --   -0.43728  -0.43188  -0.42703  -0.42330  -0.42309
 Alpha  occ. eigenvalues --   -0.41800  -0.41296  -0.41142  -0.40935  -0.40798
 Alpha  occ. eigenvalues --   -0.40627  -0.40159  -0.40022  -0.39996  -0.39599
 Alpha  occ. eigenvalues --   -0.39449  -0.38897  -0.38725  -0.38362  -0.38230
 Alpha  occ. eigenvalues --   -0.37902  -0.37575  -0.37559  -0.36806  -0.36402
 Alpha  occ. eigenvalues --   -0.36055  -0.35895  -0.35141  -0.34200  -0.34145
 Alpha  occ. eigenvalues --   -0.32783  -0.31900  -0.31631  -0.30873  -0.30592
 Alpha  occ. eigenvalues --   -0.29234  -0.27832  -0.23742  -0.19442
 Alpha virt. eigenvalues --   -0.06227  -0.01286   0.03135   0.04747   0.06307
 Alpha virt. eigenvalues --    0.08987   0.09849   0.10085   0.10445   0.11636
 Alpha virt. eigenvalues --    0.12857   0.13314   0.13399   0.13896   0.14146

 Mulliken charges:
               1
     1  O   -0.519241
     2  O   -0.580311
     3  O   -0.583153
     4  O   -0.538459
     5  C    0.214141
     6  C    0.192101
     7  C    0.008590
     8  C   -0.199176
     9  C   -0.189567
    10  C    0.155256
    11  C   -0.313452
    12  C   -0.104935
    13  C   -0.294844
    14  C   -0.300014
    15  C   -0.086662
    16  C    0.049389
    17  C   -0.367957
    18  C   -0.083895
    19  C   -0.069731
    20  C    0.018950
    21  C    0.240275
    22  C   -0.187409
    23  C    0.147528
    24  C   -0.169604
    25  C   -0.011100
    26  C   -0.293836
    27  C   -0.308253
    28  C   -0.322858
    29  C   -0.137006
    30  C    0.141305
    31  C    0.085481
    32  C   -0.282657
    33  C   -0.385458
    34  C   -0.098607
    35  C    0.131311
    36  C   -0.376791
    37  C   -0.131138
    38  C   -0.074500
    39  C   -0.077748
    40  C   -0.047284
    41  C   -0.114617
    42  C   -0.140647
    43  C    0.099106
    44  C   -0.382075
    45  H    0.107139
    46  H    0.126582
    47  H    0.107698
    48  H    0.095471
    49  H    0.100842
    50  H    0.109945
    51  H    0.128664
    52  H    0.110713
    53  H    0.106095
    54  H    0.095685
    55  H    0.116916
    56  H    0.065639
    57  H    0.086777
    58  H    0.124369
    59  H    0.097277
    60  H    0.300559
    61  H    0.082779
    62  H    0.139751
    63  H    0.131168
    64  H    0.104130
    65  H    0.063526
    66  H    0.074801
    67  H    0.086283
    68  H    0.100003
    69  H    0.038467
    70  H    0.103139
    71  H    0.112705
    72  H    0.076077
    73  H    0.102995
    74  H    0.112139
    75  H    0.095658
    76  H    0.102788
    77  H    0.107069
    78  H    0.111582
    79  H    0.088772
    80  H    0.136260
    81  H    0.089154
    82  H    0.306069
    83  H    0.320913
    84  H    0.101567
    85  H    0.137784
    86  H    0.131965
    87  H    0.116205
    88  H    0.063581
    89  H    0.098257
    90  H    0.147620
    91  H    0.097771
    92  H    0.061296
    93  H    0.057121
    94  H    0.097813
    95  H    0.071786
    96  H    0.069498
    97  H    0.104352
    98  H    0.105797
    99  H    0.135313
   100  H    0.125231
 Sum of Mulliken charges =  -0.00000

 Dipole moment (field-independent basis, Debye):
    X=              3.9754    Y=              0.1880    Z=              1.3207  Tot=              4.1933
 Quadrupole moment (field-independent basis, Debye-Ang):
   XX=           -253.5057   YY=           -262.6651   ZZ=           -277.1599
   XY=              7.0162   XZ=             19.3851   YZ=             -3.3661

 Normal termination of Gaussian 16 at Thu Aug  1 09:38:26 2019.
