 Gaussian 16, Revision A.03,
 Gaussian 16:  ES64L-G16RevA.03 25-Dec-2016

 -------------------------------------
 # td=(NStates=1) CAM-B3LYP/6-31G(d,p)
 -------------------------------------

 --
 TD
 --
 Symbolic Z-matrix:
 Charge =  0 Multiplicity = 1

                         Standard orientation:
 ---------------------------------------------------------------------
 Center     Atomic      Atomic             Coordinates (Angstroms)
 Number     Number       Type             X           Y           Z
 ---------------------------------------------------------------------
      1          8           0      -11.728146    0.146513   -1.571366
      2          8           0      -13.058440   -2.373124    1.517511
      3          8           0       10.566543   -0.899894   -2.190306
      4          8           0       14.439187   -1.009089   -0.431669
      5          6           0      -11.024514   -0.176243   -0.399618
      6          6           0      -11.680561   -1.165139   -1.189314
      7          6           0      -11.800538    0.454528    0.810932
      8          6           0      -12.954034   -2.024629   -0.891437
      9          6           0      -13.247880    0.000088    0.730095
     10          6           0      -13.526806   -1.460824    0.574749
     11          6           0      -10.832125   -2.171951   -2.162993
     12          6           0       -9.496476    0.085887   -0.475786
     13          6           0      -11.129535    0.239641    2.251223
     14          6           0      -11.676501    2.011769    0.539720
     15          6           0       -8.659242   -0.735505    0.231069
     16          6           0       -7.230553   -0.433608    0.206964
     17          6           0       -6.413223   -1.783978    0.575675
     18          6           0       -6.601002    0.667693   -0.246715
     19          6           0       -5.274376    0.895502   -0.146338
     20          6           0       11.884554   -0.000758    1.266370
     21          6           0       11.617481   -0.596824   -1.246623
     22          6           0       12.727648   -1.312041    1.287334
     23          6           0       13.434260   -1.766938    0.118902
     24          6           0       12.254498   -1.850162   -1.005461
     25          6           0       10.989761    0.071270   -0.002795
     26          6           0       11.119564    0.059203    2.542179
     27          6           0       12.890539    1.175318    1.273654
     28          6           0       12.429013    0.441170   -2.008182
     29          6           0       -4.628108    2.146356   -0.442003
     30          6           0        9.882301    0.633351   -0.059790
     31          6           0       -3.299295    2.397078   -0.491374
     32          6           0        8.611943    1.036684    0.043540
     33          6           0       -2.952094    3.859900   -0.825587
     34          6           0       -2.289368    1.475925   -0.227948
     35          6           0        7.406512    0.180104    0.118208
     36          6           0        7.649158   -1.324725    0.279194
     37          6           0        6.230926    0.753999    0.045732
     38          6           0       -0.888401    1.852104   -0.266802
     39          6           0        4.982504    0.147145    0.189213
     40          6           0        0.002601    0.820083    0.009637
     41          6           0        3.764372    0.831438    0.120352
     42          6           0        1.368621    1.110220    0.064965
     43          6           0        2.485158    0.279079    0.224939
     44          6           0        2.401085   -1.122672    0.550791
     45          1           0      -12.939202   -2.942248   -0.715722
     46          1           0      -13.524408   -1.725270   -1.919639
     47          1           0      -13.750809    0.098553    1.739370
     48          1           0      -13.750167    0.720585    0.128797
     49          1           0      -14.652615   -1.840543    0.590601
     50          1           0      -10.547163   -3.008125   -1.366405
     51          1           0      -11.426727   -2.699424   -3.054357
     52          1           0       -9.909384   -1.560691   -2.568096
     53          1           0       -9.257733    0.848570   -1.047648
     54          1           0      -10.182872    0.813655    1.930860
     55          1           0      -11.710002    0.925232    3.061307
     56          1           0      -10.889899   -0.831113    2.731284
     57          1           0      -12.384040    2.237221   -0.399105
     58          1           0      -12.094279    2.681391    1.324802
     59          1           0      -10.584913    2.352915    0.469058
     60          1           0      -11.890927   -2.043680    1.768020
     61          1           0       -9.031518   -1.653636    0.818844
     62          1           0       -5.707883   -1.732550   -0.465810
     63          1           0       -5.695275   -1.632449    1.400638
     64          1           0       -7.011854   -2.575709    0.726573
     65          1           0       -7.327889    1.603064   -0.447109
     66          1           0       -4.821392   -0.021133    0.284899
     67          1           0       13.339424   -1.222973    2.264881
     68          1           0       11.873961   -1.973091    1.854640
     69          1           0       13.859275   -2.796381    0.271427
     70          1           0       12.536848   -2.291320   -2.052897
     71          1           0       11.658079   -2.626023   -0.682982
     72          1           0       11.662357   -0.089116    3.426268
     73          1           0       10.740684    0.962579    2.880327
     74          1           0       10.216140   -0.430224    2.377046
     75          1           0       13.720218    1.063046    0.636892
     76          1           0       12.461112    2.103901    1.040078
     77          1           0       13.416011    1.248500    2.275602
     78          1           0       12.784168   -0.069759   -2.892951
     79          1           0       11.916035    1.482363   -2.187916
     80          1           0       13.436449    0.656658   -1.450701
     81          1           0       -5.285815    3.050552   -0.744734
     82          1           0        9.824272   -0.192337   -2.076344
     83          1           0       15.475617   -0.891885   -0.053661
     84          1           0        8.393164    2.179732    0.223268
     85          1           0       -2.430959    4.344250    0.125679
     86          1           0       -2.396405    3.934584   -1.749852
     87          1           0       -3.888369    4.432513   -1.212766
     88          1           0       -2.803667    0.440552   -0.266105
     89          1           0        6.813926   -1.938057   -0.135585
     90          1           0        8.734905   -1.709478   -0.042091
     91          1           0        7.804470   -1.707657    1.339040
     92          1           0        6.307168    1.816970    0.013153
     93          1           0       -0.552812    2.886390   -0.616928
     94          1           0        4.892693   -0.942285    0.403404
     95          1           0       -0.470145   -0.041733    0.313468
     96          1           0        3.722834    1.857684   -0.093425
     97          1           0        1.421986    2.088269   -0.430077
     98          1           0        1.394322   -1.603749    0.467531
     99          1           0        2.967502   -1.797895   -0.088674
    100          1           0        2.625146   -1.351652    1.480413
 ---------------------------------------------------------------------

 SCF Done:  E(RCAM-B3LYP) =  -1857.19904380     A.U. after   15 cycles

 Excitation energies and oscillator strengths:

 Excited State   1:      Singlet-A      2.0229 eV  612.91 nm  f=3.0331  <S**2>=0.000
     163 ->166         0.13048
     164 ->165         0.69880
     164 <-165        -0.10571
 This state for optimization and/or second-order correction.
 Total Energy, E(TD-HF/TD-DFT) =  -1857.12470418
 Copying the excited state density for this state as the 1-particle RhoCI density.

 The electronic state is 1-A.
 Alpha  occ. eigenvalues --  -19.23553 -19.23022 -19.22770 -19.19278 -10.32303
 Alpha  occ. eigenvalues --  -10.32147 -10.32044 -10.31639 -10.30448 -10.29314
 Alpha  occ. eigenvalues --  -10.28697 -10.28546 -10.28276 -10.28198 -10.27970
 Alpha  occ. eigenvalues --  -10.27812 -10.27362 -10.27357 -10.27274 -10.27220
 Alpha  occ. eigenvalues --  -10.27031 -10.27027 -10.26964 -10.26954 -10.26865
 Alpha  occ. eigenvalues --  -10.26672 -10.26644 -10.26524 -10.26501 -10.26498
 Alpha  occ. eigenvalues --  -10.26394 -10.26263 -10.26210 -10.25934 -10.25865
 Alpha  occ. eigenvalues --  -10.25542 -10.25215 -10.24937 -10.24813 -10.24768
 Alpha  occ. eigenvalues --  -10.24088 -10.23566 -10.23308 -10.22697  -1.19171
 Alpha  occ. eigenvalues --   -1.09477  -1.07885  -1.07052  -0.93296  -0.92775
 Alpha  occ. eigenvalues --   -0.92432  -0.91308  -0.90674  -0.90068  -0.87736
 Alpha  occ. eigenvalues --   -0.86363  -0.86015  -0.85600  -0.83949  -0.82595
 Alpha  occ. eigenvalues --   -0.81309  -0.80256  -0.79238  -0.78816  -0.77622
 Alpha  occ. eigenvalues --   -0.76720  -0.76262  -0.76224  -0.74825  -0.74790
 Alpha  occ. eigenvalues --   -0.74498  -0.73928  -0.73301  -0.70585  -0.70008
 Alpha  occ. eigenvalues --   -0.68750  -0.67042  -0.65810  -0.64458  -0.64273
 Alpha  occ. eigenvalues --   -0.63651  -0.63051  -0.61650  -0.60492  -0.59213
 Alpha  occ. eigenvalues --   -0.58927  -0.58585  -0.58284  -0.57512  -0.56840
 Alpha  occ. eigenvalues --   -0.56259  -0.55407  -0.55031  -0.54878  -0.54386
 Alpha  occ. eigenvalues --   -0.53666  -0.53080  -0.52907  -0.52044  -0.50957
 Alpha  occ. eigenvalues --   -0.50681  -0.50310  -0.50242  -0.50092  -0.49735
 Alpha  occ. eigenvalues --   -0.48910  -0.48862  -0.48672  -0.48162  -0.48046
 Alpha  occ. eigenvalues --   -0.47961  -0.47769  -0.47569  -0.47312  -0.47016
 Alpha  occ. eigenvalues --   -0.46454  -0.46252  -0.45748  -0.45417  -0.45298
 Alpha  occ. eigenvalues --   -0.44317  -0.44172  -0.43941  -0.43882  -0.43558
 Alpha  occ. eigenvalues --   -0.43223  -0.43122  -0.42838  -0.42533  -0.42467
 Alpha  occ. eigenvalues --   -0.41969  -0.41900  -0.41774  -0.41499  -0.41396
 Alpha  occ. eigenvalues --   -0.40611  -0.40470  -0.40371  -0.40190  -0.39931
 Alpha  occ. eigenvalues --   -0.39607  -0.39521  -0.39078  -0.38858  -0.38350
 Alpha  occ. eigenvalues --   -0.38113  -0.37612  -0.36978  -0.36730  -0.36595
 Alpha  occ. eigenvalues --   -0.36061  -0.35823  -0.34600  -0.34286  -0.33906
 Alpha  occ. eigenvalues --   -0.33117  -0.32373  -0.31783  -0.30912  -0.30117
 Alpha  occ. eigenvalues --   -0.28880  -0.28199  -0.24194  -0.19258
 Alpha virt. eigenvalues --   -0.06548  -0.01293   0.03186   0.04766   0.05569
 Alpha virt. eigenvalues --    0.07270   0.07515   0.10068   0.11496   0.12148
 Alpha virt. eigenvalues --    0.12497   0.12800   0.13109   0.13455   0.14055

 Mulliken charges:
               1
     1  O   -0.475782
     2  O   -0.529743
     3  O   -0.588426
     4  O   -0.562011
     5  C    0.175192
     6  C    0.238056
     7  C   -0.001637
     8  C   -0.163934
     9  C   -0.178559
    10  C    0.138555
    11  C   -0.312199
    12  C   -0.089668
    13  C   -0.301985
    14  C   -0.324047
    15  C   -0.082187
    16  C    0.057079
    17  C   -0.364343
    18  C   -0.081822
    19  C   -0.093244
    20  C    0.026157
    21  C    0.254740
    22  C   -0.188197
    23  C    0.183631
    24  C   -0.190750
    25  C   -0.054431
    26  C   -0.325773
    27  C   -0.295853
    28  C   -0.274841
    29  C   -0.139799
    30  C    0.104079
    31  C    0.114220
    32  C   -0.289691
    33  C   -0.377176
    34  C   -0.132913
    35  C    0.167511
    36  C   -0.391252
    37  C   -0.098721
    38  C   -0.106125
    39  C   -0.110772
    40  C   -0.051813
    41  C   -0.098304
    42  C   -0.150101
    43  C    0.135508
    44  C   -0.399648
    45  H    0.109483
    46  H    0.085008
    47  H    0.099671
    48  H    0.118668
    49  H    0.088089
    50  H    0.086648
    51  H    0.100975
    52  H    0.097458
    53  H    0.108750
    54  H    0.114392
    55  H    0.103905
    56  H    0.078405
    57  H    0.118279
    58  H    0.106768
    59  H    0.102943
    60  H    0.272166
    61  H    0.091888
    62  H    0.105029
    63  H    0.126043
    64  H    0.115649
    65  H    0.068511
    66  H    0.088089
    67  H    0.078421
    68  H    0.090414
    69  H    0.076160
    70  H    0.104058
    71  H    0.119344
    72  H    0.104539
    73  H    0.109909
    74  H    0.111431
    75  H    0.113596
    76  H    0.105715
    77  H    0.075900
    78  H    0.108940
    79  H    0.082541
    80  H    0.104634
    81  H    0.083153
    82  H    0.305737
    83  H    0.322491
    84  H    0.098327
    85  H    0.118005
    86  H    0.127103
    87  H    0.093318
    88  H    0.093290
    89  H    0.113592
    90  H    0.116712
    91  H    0.113850
    92  H    0.079755
    93  H    0.107362
    94  H    0.086141
    95  H    0.084486
    96  H    0.074101
    97  H    0.078122
    98  H    0.098980
    99  H    0.122882
   100  H    0.141192
 Sum of Mulliken charges =  -0.00000

 Dipole moment (field-independent basis, Debye):
    X=              3.0528    Y=              0.5414    Z=              3.3913  Tot=              4.5950
 Quadrupole moment (field-independent basis, Debye-Ang):
   XX=           -254.6515   YY=           -261.5624   ZZ=           -281.1476
   XY=            -13.8215   XZ=             28.2840   YZ=             -4.6812

 Normal termination of Gaussian 16 at Mon Jul 29 10:48:34 2019.
