 Gaussian 16, Revision A.03,
 Gaussian 16:  ES64L-G16RevA.03 25-Dec-2016

 -------------------------------------
 # td=(NStates=1) CAM-B3LYP/6-31G(d,p)
 -------------------------------------

 --
 TD
 --
 Symbolic Z-matrix:
 Charge =  0 Multiplicity = 1

                         Standard orientation:
 ---------------------------------------------------------------------
 Center     Atomic      Atomic             Coordinates (Angstroms)
 Number     Number       Type             X           Y           Z
 ---------------------------------------------------------------------
      1          8           0      -11.797779    0.144318   -1.389754
      2          8           0      -12.854756   -2.557442    1.394995
      3          8           0       10.576344   -0.951238   -2.020628
      4          8           0       14.415728   -1.084080   -0.007730
      5          6           0      -11.072052   -0.205428   -0.273880
      6          6           0      -11.666638   -1.256759   -1.179355
      7          6           0      -11.821290    0.276534    0.991803
      8          6           0      -13.054080   -1.840283   -0.888822
      9          6           0      -13.211733   -0.206192    1.084958
     10          6           0      -13.453722   -1.609671    0.550023
     11          6           0      -10.871978   -2.141727   -2.088432
     12          6           0       -9.647730    0.081694   -0.404816
     13          6           0      -11.006504   -0.050763    2.316924
     14          6           0      -11.851785    1.864484    0.917778
     15          6           0       -8.605548   -0.772206    0.095900
     16          6           0       -7.190048   -0.518816   -0.068296
     17          6           0       -6.348239   -1.763842    0.281046
     18          6           0       -6.622811    0.738188   -0.092656
     19          6           0       -5.269429    1.019789   -0.209918
     20          6           0       11.873342   -0.109121    1.390986
     21          6           0       11.634461   -0.654323   -1.224992
     22          6           0       12.475740   -1.486553    1.515076
     23          6           0       13.313028   -1.937853    0.276149
     24          6           0       12.423059   -1.949511   -0.889571
     25          6           0       11.100296    0.007061    0.064540
     26          6           0       10.855249    0.173416    2.564700
     27          6           0       12.895610    0.971864    1.589252
     28          6           0       12.615010    0.371574   -1.890897
     29          6           0       -4.619418    2.258273   -0.371847
     30          6           0        9.923888    0.522151    0.047008
     31          6           0       -3.281999    2.608123   -0.291605
     32          6           0        8.766338    1.068338   -0.028164
     33          6           0       -2.981075    4.132375   -0.478320
     34          6           0       -2.266929    1.765934   -0.349798
     35          6           0        7.447424    0.216535   -0.026319
     36          6           0        7.641273   -1.149433    0.265132
     37          6           0        6.261201    0.792537   -0.296222
     38          6           0       -0.941638    2.060233   -0.314073
     39          6           0        4.936293    0.167042   -0.249824
     40          6           0        0.134226    1.156034   -0.193171
     41          6           0        3.817677    0.863016   -0.400628
     42          6           0        1.442381    1.396877   -0.225463
     43          6           0        2.504605    0.398646   -0.264092
     44          6           0        2.275320   -0.974353   -0.024743
     45          1           0      -12.923717   -3.029420   -1.011288
     46          1           0      -13.845583   -1.401763   -1.479889
     47          1           0      -13.443621   -0.105922    2.095888
     48          1           0      -13.824307    0.470530    0.350474
     49          1           0      -14.405742   -1.618846    0.648119
     50          1           0      -10.369252   -2.960717   -1.495875
     51          1           0      -11.443166   -2.460900   -2.960300
     52          1           0       -9.899031   -1.656441   -2.696732
     53          1           0       -9.393893    0.976760   -0.985931
     54          1           0      -10.068309    0.410403    2.565394
     55          1           0      -11.685739    0.403193    2.997464
     56          1           0      -10.905428   -1.259895    2.386241
     57          1           0      -12.414316    2.432207   -0.059598
     58          1           0      -12.413099    2.342198    1.709069
     59          1           0      -10.744682    2.254100    1.012411
     60          1           0      -11.889496   -2.615465    1.259400
     61          1           0       -8.963897   -1.587573    0.529974
     62          1           0       -5.846609   -2.180336   -0.601115
     63          1           0       -5.401996   -1.698595    0.952819
     64          1           0       -6.926474   -2.550908    0.573445
     65          1           0       -7.312237    1.670482   -0.337787
     66          1           0       -4.690306    0.167044    0.010912
     67          1           0       13.214044   -1.597696    2.383394
     68          1           0       11.624225   -2.139644    1.639023
     69          1           0       13.520215   -2.903334    0.310357
     70          1           0       12.850553   -2.246969   -1.907494
     71          1           0       11.397471   -2.484745   -0.689874
     72          1           0       11.503456   -0.026377    3.369689
     73          1           0       10.144331    0.939565    2.392129
     74          1           0       10.243657   -0.673398    2.722544
     75          1           0       13.426308    1.186557    0.613555
     76          1           0       12.372874    2.037952    1.943561
     77          1           0       13.621300    0.612923    2.427532
     78          1           0       12.841856    0.079188   -2.921219
     79          1           0       12.051553    1.396821   -1.876264
     80          1           0       13.485095    0.430955   -1.429166
     81          1           0       -5.282739    3.000625   -0.618595
     82          1           0       10.145360   -0.077122   -2.116502
     83          1           0       14.892947   -1.032738    0.811395
     84          1           0        8.494131    2.139977   -0.307777
     85          1           0       -2.513250    4.484119    0.242619
     86          1           0       -2.320437    4.300481   -1.375202
     87          1           0       -4.062295    4.734718   -0.471462
     88          1           0       -2.434315    0.805522   -0.426690
     89          1           0        6.723328   -1.870015    0.232306
     90          1           0        8.347177   -1.908298   -0.447738
     91          1           0        8.106012   -1.493638    1.321319
     92          1           0        6.245252    1.837489   -0.597442
     93          1           0       -0.748973    3.214974   -0.445708
     94          1           0        4.848233   -0.919874   -0.035394
     95          1           0       -0.171122    0.029688   -0.086552
     96          1           0        4.017309    1.833678   -0.769938
     97          1           0        1.608088    2.388150   -0.402297
     98          1           0        1.221053   -1.434502   -0.472705
     99          1           0        3.080484   -1.532423   -0.808587
    100          1           0        2.290780   -1.228508    1.166817
 ---------------------------------------------------------------------

 SCF Done:  E(RCAM-B3LYP) =  -1857.26903383     A.U. after   15 cycles

 Excitation energies and oscillator strengths:

 Excited State   1:      Singlet-A      2.0513 eV  604.42 nm  f=3.0286  <S**2>=0.000
     163 ->166         0.12310
     164 ->165         0.70191
     164 <-165        -0.11378
 This state for optimization and/or second-order correction.
 Total Energy, E(TD-HF/TD-DFT) =  -1857.19365050
 Copying the excited state density for this state as the 1-particle RhoCI density.

 The electronic state is 1-A.
 Alpha  occ. eigenvalues --  -19.22843 -19.22012 -19.21529 -19.20827 -10.32332
 Alpha  occ. eigenvalues --  -10.31505 -10.31290 -10.30407 -10.29073 -10.28576
 Alpha  occ. eigenvalues --  -10.28328 -10.27868 -10.27759 -10.27752 -10.27731
 Alpha  occ. eigenvalues --  -10.27586 -10.27296 -10.27274 -10.26981 -10.26965
 Alpha  occ. eigenvalues --  -10.26952 -10.26762 -10.26747 -10.26708 -10.26550
 Alpha  occ. eigenvalues --  -10.26542 -10.26531 -10.26454 -10.26378 -10.26314
 Alpha  occ. eigenvalues --  -10.26191 -10.26031 -10.25878 -10.25835 -10.25693
 Alpha  occ. eigenvalues --  -10.25666 -10.25577 -10.25546 -10.25480 -10.25119
 Alpha  occ. eigenvalues --  -10.24418 -10.23723 -10.23270 -10.23030  -1.17396
 Alpha  occ. eigenvalues --   -1.12532  -1.11567  -1.09635  -0.93637  -0.93174
 Alpha  occ. eigenvalues --   -0.92484  -0.91146  -0.90655  -0.90379  -0.87891
 Alpha  occ. eigenvalues --   -0.86987  -0.86788  -0.85921  -0.85089  -0.83318
 Alpha  occ. eigenvalues --   -0.82350  -0.81167  -0.80741  -0.79568  -0.77206
 Alpha  occ. eigenvalues --   -0.76823  -0.76405  -0.76007  -0.75436  -0.75191
 Alpha  occ. eigenvalues --   -0.74997  -0.74322  -0.72874  -0.71413  -0.71181
 Alpha  occ. eigenvalues --   -0.69657  -0.67480  -0.65644  -0.65081  -0.64453
 Alpha  occ. eigenvalues --   -0.63144  -0.61758  -0.61102  -0.60621  -0.59851
 Alpha  occ. eigenvalues --   -0.59315  -0.59018  -0.58996  -0.58428  -0.56912
 Alpha  occ. eigenvalues --   -0.56633  -0.56179  -0.55994  -0.55397  -0.54817
 Alpha  occ. eigenvalues --   -0.54173  -0.53392  -0.52813  -0.52511  -0.52413
 Alpha  occ. eigenvalues --   -0.51779  -0.51736  -0.51413  -0.49956  -0.49657
 Alpha  occ. eigenvalues --   -0.49388  -0.49275  -0.49184  -0.49014  -0.48708
 Alpha  occ. eigenvalues --   -0.48269  -0.47951  -0.47864  -0.47307  -0.47111
 Alpha  occ. eigenvalues --   -0.46637  -0.46529  -0.46452  -0.45997  -0.45586
 Alpha  occ. eigenvalues --   -0.45372  -0.45101  -0.44444  -0.44294  -0.43839
 Alpha  occ. eigenvalues --   -0.43462  -0.43142  -0.42832  -0.42745  -0.41904
 Alpha  occ. eigenvalues --   -0.41781  -0.41744  -0.41669  -0.41293  -0.40952
 Alpha  occ. eigenvalues --   -0.40546  -0.40412  -0.40380  -0.40162  -0.39524
 Alpha  occ. eigenvalues --   -0.39424  -0.39248  -0.39167  -0.39147  -0.38653
 Alpha  occ. eigenvalues --   -0.38355  -0.38217  -0.37676  -0.37410  -0.37379
 Alpha  occ. eigenvalues --   -0.36376  -0.35990  -0.35211  -0.34812  -0.34249
 Alpha  occ. eigenvalues --   -0.33025  -0.32235  -0.31746  -0.31497  -0.30722
 Alpha  occ. eigenvalues --   -0.29890  -0.28174  -0.24836  -0.19253
 Alpha virt. eigenvalues --   -0.06712  -0.00841   0.03387   0.06208   0.06580
 Alpha virt. eigenvalues --    0.09141   0.09467   0.10198   0.11633   0.11696
 Alpha virt. eigenvalues --    0.12484   0.12636   0.13087   0.13790   0.14078

 Mulliken charges:
               1
     1  O   -0.490938
     2  O   -0.555636
     3  O   -0.542167
     4  O   -0.533775
     5  C    0.207326
     6  C    0.245267
     7  C    0.018147
     8  C   -0.214013
     9  C   -0.186978
    10  C    0.190684
    11  C   -0.349165
    12  C   -0.100963
    13  C   -0.295766
    14  C   -0.309593
    15  C   -0.087381
    16  C    0.085629
    17  C   -0.387878
    18  C   -0.103479
    19  C   -0.059958
    20  C    0.021885
    21  C    0.243847
    22  C   -0.227848
    23  C    0.187146
    24  C   -0.218460
    25  C   -0.088424
    26  C   -0.303215
    27  C   -0.279926
    28  C   -0.310520
    29  C   -0.126302
    30  C    0.239068
    31  C    0.096302
    32  C   -0.351665
    33  C   -0.363974
    34  C   -0.061790
    35  C    0.175218
    36  C   -0.407386
    37  C   -0.139508
    38  C   -0.098023
    39  C   -0.088372
    40  C   -0.085687
    41  C   -0.078201
    42  C   -0.089828
    43  C    0.112751
    44  C   -0.375622
    45  H    0.095693
    46  H    0.118499
    47  H    0.107892
    48  H    0.091691
    49  H    0.096509
    50  H    0.109596
    51  H    0.126448
    52  H    0.098460
    53  H    0.109148
    54  H    0.120935
    55  H    0.106272
    56  H    0.062760
    57  H    0.088986
    58  H    0.107862
    59  H    0.089529
    60  H    0.301946
    61  H    0.068751
    62  H    0.121420
    63  H    0.114782
    64  H    0.116380
    65  H    0.070250
    66  H    0.070970
    67  H    0.074757
    68  H    0.113320
    69  H    0.101745
    70  H    0.106189
    71  H    0.105653
    72  H    0.097034
    73  H    0.128344
    74  H    0.092875
    75  H    0.116927
    76  H    0.080397
    77  H    0.075181
    78  H    0.101495
    79  H    0.065898
    80  H    0.146416
    81  H    0.072926
    82  H    0.310357
    83  H    0.307247
    84  H    0.104008
    85  H    0.140933
    86  H    0.121283
    87  H    0.081951
    88  H    0.063679
    89  H    0.100131
    90  H    0.114695
    91  H    0.104243
    92  H    0.077035
    93  H    0.063625
    94  H    0.086317
    95  H    0.063779
    96  H    0.079351
    97  H    0.073085
    98  H    0.099510
    99  H    0.099403
   100  H    0.124600
 Sum of Mulliken charges =  -0.00000

 Dipole moment (field-independent basis, Debye):
    X=              2.4323    Y=             -0.8385    Z=              1.4443  Tot=              2.9504
 Quadrupole moment (field-independent basis, Debye-Ang):
   XX=           -269.4814   YY=           -260.3353   ZZ=           -278.1659
   XY=             -7.4519   XZ=             29.1969   YZ=             -1.8804

 Normal termination of Gaussian 16 at Tue Jul 30 07:01:22 2019.
