 Gaussian 16, Revision A.03,
 Gaussian 16:  ES64L-G16RevA.03 25-Dec-2016

 -------------------------------------
 # td=(NStates=1) CAM-B3LYP/6-31G(d,p)
 -------------------------------------

 --
 TD
 --
 Symbolic Z-matrix:
 Charge =  0 Multiplicity = 1

                         Standard orientation:
 ---------------------------------------------------------------------
 Center     Atomic      Atomic             Coordinates (Angstroms)
 Number     Number       Type             X           Y           Z
 ---------------------------------------------------------------------
      1          8           0      -11.812070    0.336827   -1.484807
      2          8           0      -13.218498   -2.368031    1.443966
      3          8           0       10.564876   -1.049404   -2.147076
      4          8           0       14.548398   -0.938304   -0.252201
      5          6           0      -11.077474   -0.102919   -0.365458
      6          6           0      -11.663700   -1.130408   -1.281567
      7          6           0      -11.820728    0.355754    0.959089
      8          6           0      -13.024098   -1.787077   -0.891147
      9          6           0      -13.304199    0.007113    0.871927
     10          6           0      -13.692047   -1.409611    0.454998
     11          6           0      -10.793150   -1.917750   -2.217819
     12          6           0       -9.642570    0.247927   -0.407606
     13          6           0      -11.075739   -0.176088    2.204407
     14          6           0      -11.673286    1.872796    0.949002
     15          6           0       -8.726269   -0.664618   -0.089970
     16          6           0       -7.314752   -0.525831    0.170838
     17          6           0       -6.422751   -1.659852    0.493376
     18          6           0       -6.681361    0.637682   -0.126204
     19          6           0       -5.274106    0.817340   -0.225815
     20          6           0       12.091427    0.072057    1.294372
     21          6           0       11.616091   -0.555871   -1.332387
     22          6           0       12.838288   -1.234504    1.386522
     23          6           0       13.382546   -1.768788    0.144002
     24          6           0       12.398267   -1.892712   -1.001502
     25          6           0       11.133984   -0.022408    0.014210
     26          6           0       11.233346    0.396907    2.531961
     27          6           0       13.122778    1.222312    1.116916
     28          6           0       12.483822    0.443880   -2.115861
     29          6           0       -4.697052    2.062444   -0.526519
     30          6           0        9.914033    0.461372   -0.008858
     31          6           0       -3.326637    2.377841   -0.530619
     32          6           0        8.658243    0.928815   -0.009389
     33          6           0       -3.111891    3.903674   -0.832060
     34          6           0       -2.323476    1.474440   -0.362146
     35          6           0        7.495587    0.048752    0.129328
     36          6           0        7.558644   -1.383802    0.349713
     37          6           0        6.211784    0.674307    0.040094
     38          6           0       -0.947529    1.791196   -0.201268
     39          6           0        4.943988    0.135767    0.267970
     40          6           0        0.091734    0.888442   -0.053564
     41          6           0        3.810164    0.817403    0.148688
     42          6           0        1.493987    1.086516    0.017823
     43          6           0        2.466999    0.255826    0.163303
     44          6           0        2.280689   -1.159909    0.591757
     45          1           0      -13.143433   -2.917684   -0.973125
     46          1           0      -13.739311   -1.437520   -1.768995
     47          1           0      -13.780446    0.280808    1.882570
     48          1           0      -13.662676    0.597511    0.093109
     49          1           0      -14.799361   -1.414876    0.292701
     50          1           0      -10.773284   -2.898521   -1.819747
     51          1           0      -11.628069   -2.066459   -3.043161
     52          1           0       -9.882420   -1.520121   -2.542655
     53          1           0       -9.381224    1.113322   -0.785169
     54          1           0      -10.035853    0.116546    2.094798
     55          1           0      -11.672748    0.278361    3.029179
     56          1           0      -11.073357   -1.341368    2.279680
     57          1           0      -11.919112    2.255605    0.093090
     58          1           0      -12.228780    2.383896    1.803356
     59          1           0      -10.589455    2.145786    1.070083
     60          1           0      -12.418055   -2.574318    1.126154
     61          1           0       -9.132054   -1.498056    0.310249
     62          1           0       -5.402194   -1.873073   -0.247608
     63          1           0       -5.902320   -1.741290    1.444466
     64          1           0       -7.041530   -2.702028    0.611152
     65          1           0       -7.390988    1.502616   -0.121416
     66          1           0       -4.748285    0.072599    0.076402
     67          1           0       13.598106   -1.342559    2.016349
     68          1           0       12.170837   -1.994612    1.636935
     69          1           0       13.743867   -2.718225    0.319655
     70          1           0       13.009259   -2.149706   -2.112985
     71          1           0       11.636588   -2.731795   -0.776902
     72          1           0       11.870155    0.410539    3.344491
     73          1           0       10.683074    1.219133    2.406498
     74          1           0       10.557183   -0.375484    2.648987
     75          1           0       13.882447    1.088865    0.393404
     76          1           0       12.857023    2.271000    0.705676
     77          1           0       13.712972    1.567448    1.857472
     78          1           0       12.908131    0.078187   -2.808449
     79          1           0       11.688923    1.293285   -2.425348
     80          1           0       13.161424    1.071785   -1.335975
     81          1           0       -5.316863    3.001191   -0.682292
     82          1           0       10.081574   -0.199882   -2.181432
     83          1           0       15.198487   -1.134889    0.689710
     84          1           0        8.481148    1.884831   -0.408993
     85          1           0       -2.472791    4.374371    0.059605
     86          1           0       -2.443667    3.928160   -1.782541
     87          1           0       -4.053524    4.425850   -0.996760
     88          1           0       -2.729404    0.481664   -0.390142
     89          1           0        6.654894   -1.970364    0.671896
     90          1           0        8.090318   -1.885206   -0.336793
     91          1           0        8.283802   -1.418274    1.228374
     92          1           0        6.154894    1.816039    0.205996
     93          1           0       -0.644336    2.736323   -0.178959
     94          1           0        4.957778   -0.937135    0.461200
     95          1           0       -0.158827   -0.141134    0.365510
     96          1           0        3.920354    1.785019   -0.117148
     97          1           0        1.641565    2.268542   -0.237584
     98          1           0        1.257264   -1.433184    0.624923
     99          1           0        2.888777   -1.974276   -0.106530
    100          1           0        2.610365   -1.436425    1.534759
 ---------------------------------------------------------------------

 SCF Done:  E(RCAM-B3LYP) =  -1857.27281635     A.U. after   15 cycles

 Excitation energies and oscillator strengths:

 Excited State   1:      Singlet-A      2.3478 eV  528.09 nm  f=2.9433  <S**2>=0.000
     163 ->166         0.14935
     164 ->165         0.68694
 This state for optimization and/or second-order correction.
 Total Energy, E(TD-HF/TD-DFT) =  -1857.18653739
 Copying the excited state density for this state as the 1-particle RhoCI density.

 The electronic state is 1-A.
 Alpha  occ. eigenvalues --  -19.22769 -19.21968 -19.21427 -19.20333 -10.33155
 Alpha  occ. eigenvalues --  -10.31979 -10.31371 -10.30955 -10.30042 -10.29618
 Alpha  occ. eigenvalues --  -10.28584 -10.28096 -10.28063 -10.27753 -10.27720
 Alpha  occ. eigenvalues --  -10.27506 -10.27485 -10.27445 -10.27363 -10.27189
 Alpha  occ. eigenvalues --  -10.27106 -10.26984 -10.26883 -10.26570 -10.26492
 Alpha  occ. eigenvalues --  -10.26237 -10.26232 -10.26173 -10.26106 -10.26100
 Alpha  occ. eigenvalues --  -10.26041 -10.25783 -10.25570 -10.25297 -10.25182
 Alpha  occ. eigenvalues --  -10.24882 -10.24818 -10.24614 -10.24538 -10.24391
 Alpha  occ. eigenvalues --  -10.24248 -10.23343 -10.23317 -10.22793  -1.14384
 Alpha  occ. eigenvalues --   -1.10676  -1.10630  -1.06334  -0.93314  -0.93006
 Alpha  occ. eigenvalues --   -0.92684  -0.91474  -0.90970  -0.90087  -0.87816
 Alpha  occ. eigenvalues --   -0.86882  -0.86500  -0.85686  -0.85633  -0.84391
 Alpha  occ. eigenvalues --   -0.82440  -0.81889  -0.81050  -0.78647  -0.78343
 Alpha  occ. eigenvalues --   -0.77990  -0.76839  -0.76708  -0.76183  -0.75794
 Alpha  occ. eigenvalues --   -0.75398  -0.74328  -0.73438  -0.70617  -0.70245
 Alpha  occ. eigenvalues --   -0.68949  -0.67556  -0.66195  -0.66131  -0.64482
 Alpha  occ. eigenvalues --   -0.64378  -0.61627  -0.61154  -0.60717  -0.59926
 Alpha  occ. eigenvalues --   -0.58905  -0.58127  -0.58058  -0.56924  -0.56707
 Alpha  occ. eigenvalues --   -0.56286  -0.55850  -0.55789  -0.55506  -0.54378
 Alpha  occ. eigenvalues --   -0.53794  -0.53618  -0.53404  -0.52917  -0.51974
 Alpha  occ. eigenvalues --   -0.51890  -0.51429  -0.50837  -0.50283  -0.49883
 Alpha  occ. eigenvalues --   -0.49703  -0.49645  -0.49298  -0.49101  -0.48781
 Alpha  occ. eigenvalues --   -0.48504  -0.47819  -0.47493  -0.47444  -0.47227
 Alpha  occ. eigenvalues --   -0.47010  -0.46504  -0.46267  -0.46180  -0.45931
 Alpha  occ. eigenvalues --   -0.45330  -0.45011  -0.44820  -0.44586  -0.44419
 Alpha  occ. eigenvalues --   -0.43964  -0.43784  -0.43514  -0.43417  -0.43118
 Alpha  occ. eigenvalues --   -0.42905  -0.42143  -0.42112  -0.41646  -0.41078
 Alpha  occ. eigenvalues --   -0.40949  -0.40816  -0.40489  -0.40186  -0.40065
 Alpha  occ. eigenvalues --   -0.39990  -0.39364  -0.39306  -0.39123  -0.38675
 Alpha  occ. eigenvalues --   -0.38241  -0.37946  -0.37860  -0.37521  -0.36946
 Alpha  occ. eigenvalues --   -0.36670  -0.36436  -0.35770  -0.34698  -0.33906
 Alpha  occ. eigenvalues --   -0.33222  -0.32500  -0.32201  -0.31984  -0.31093
 Alpha  occ. eigenvalues --   -0.30719  -0.28093  -0.24188  -0.20588
 Alpha virt. eigenvalues --   -0.05788  -0.01141   0.02784   0.06241   0.06743
 Alpha virt. eigenvalues --    0.07207   0.09932   0.10607   0.11595   0.12111
 Alpha virt. eigenvalues --    0.12632   0.13018   0.13321   0.13803   0.14334

 Mulliken charges:
               1
     1  O   -0.518616
     2  O   -0.528563
     3  O   -0.543821
     4  O   -0.543637
     5  C    0.192654
     6  C    0.237969
     7  C    0.011129
     8  C   -0.265724
     9  C   -0.164111
    10  C    0.143046
    11  C   -0.320526
    12  C   -0.092049
    13  C   -0.284277
    14  C   -0.306700
    15  C   -0.067355
    16  C    0.105298
    17  C   -0.386236
    18  C   -0.113787
    19  C   -0.055900
    20  C    0.034122
    21  C    0.214491
    22  C   -0.152492
    23  C    0.135642
    24  C   -0.186661
    25  C   -0.073834
    26  C   -0.295841
    27  C   -0.342562
    28  C   -0.232577
    29  C   -0.122334
    30  C    0.113088
    31  C    0.101590
    32  C   -0.268770
    33  C   -0.366153
    34  C   -0.103155
    35  C    0.112268
    36  C   -0.374476
    37  C   -0.139422
    38  C   -0.083841
    39  C   -0.063559
    40  C   -0.091366
    41  C   -0.097887
    42  C   -0.119876
    43  C    0.141981
    44  C   -0.375579
    45  H    0.110444
    46  H    0.109928
    47  H    0.087807
    48  H    0.114775
    49  H    0.103513
    50  H    0.119324
    51  H    0.098770
    52  H    0.138613
    53  H    0.092957
    54  H    0.109921
    55  H    0.100365
    56  H    0.074002
    57  H    0.130436
    58  H    0.091152
    59  H    0.089267
    60  H    0.296213
    61  H    0.066523
    62  H    0.088589
    63  H    0.135907
    64  H    0.077946
    65  H    0.081007
    66  H    0.078182
    67  H    0.082520
    68  H    0.100323
    69  H    0.094852
    70  H    0.078292
    71  H    0.110571
    72  H    0.103023
    73  H    0.123828
    74  H    0.103460
    75  H    0.143516
    76  H    0.081195
    77  H    0.100637
    78  H    0.111320
    79  H    0.059332
    80  H    0.104400
    81  H    0.082310
    82  H    0.298714
    83  H    0.287249
    84  H    0.120210
    85  H    0.107917
    86  H    0.121255
    87  H    0.115469
    88  H    0.081846
    89  H    0.116319
    90  H    0.147763
    91  H    0.109799
    92  H    0.070036
    93  H    0.076448
    94  H    0.067808
    95  H    0.066520
    96  H    0.071928
    97  H    0.060340
    98  H    0.113778
    99  H    0.091295
   100  H    0.138499
 Sum of Mulliken charges =  -0.00000

 Dipole moment (field-independent basis, Debye):
    X=              3.8947    Y=             -0.6837    Z=              2.1807  Tot=              4.5157
 Quadrupole moment (field-independent basis, Debye-Ang):
   XX=           -271.8235   YY=           -257.0335   ZZ=           -280.4694
   XY=             -3.6733   XZ=             45.8545   YZ=             -3.0124

 Normal termination of Gaussian 16 at Wed Jul 31 11:45:43 2019.
