 Gaussian 16, Revision A.03,
 Gaussian 16:  ES64L-G16RevA.03 25-Dec-2016

 -------------------------------------
 # td=(NStates=1) CAM-B3LYP/6-31G(d,p)
 -------------------------------------

 --
 TD
 --
 Symbolic Z-matrix:
 Charge =  0 Multiplicity = 1

                         Standard orientation:
 ---------------------------------------------------------------------
 Center     Atomic      Atomic             Coordinates (Angstroms)
 Number     Number       Type             X           Y           Z
 ---------------------------------------------------------------------
      1          8           0      -11.746286    0.421128   -1.451115
      2          8           0      -12.961858   -2.602768    1.285231
      3          8           0       10.648187   -0.798245   -2.117169
      4          8           0       14.499879   -1.034470   -0.130011
      5          6           0      -11.079231   -0.097967   -0.319651
      6          6           0      -11.647877   -1.061231   -1.262365
      7          6           0      -11.858396    0.185458    1.011667
      8          6           0      -12.985143   -1.725389   -1.090438
      9          6           0      -13.294323   -0.188691    0.886804
     10          6           0      -13.500854   -1.633209    0.510365
     11          6           0      -10.890706   -1.708103   -2.383345
     12          6           0       -9.570842    0.122469   -0.329345
     13          6           0      -11.031634   -0.329932    2.255147
     14          6           0      -11.772416    1.695683    1.137116
     15          6           0       -8.703518   -0.715070    0.134052
     16          6           0       -7.278655   -0.499108    0.134177
     17          6           0       -6.401393   -1.671539    0.349476
     18          6           0       -6.688334    0.822150    0.006178
     19          6           0       -5.262410    0.998951    0.027476
     20          6           0       11.891183   -0.025798    1.387556
     21          6           0       11.705182   -0.544784   -1.257038
     22          6           0       12.588139   -1.349863    1.443389
     23          6           0       13.398775   -1.784092    0.205337
     24          6           0       12.378067   -1.880384   -1.030806
     25          6           0       11.088144   -0.060728    0.118913
     26          6           0       10.926925    0.140563    2.599033
     27          6           0       12.888236    1.107846    1.511337
     28          6           0       12.630139    0.493897   -1.909243
     29          6           0       -4.661657    2.235621   -0.333582
     30          6           0        9.877553    0.432654    0.057125
     31          6           0       -3.332798    2.595254   -0.258701
     32          6           0        8.715010    0.978869   -0.084053
     33          6           0       -3.002245    4.160299   -0.632099
     34          6           0       -2.346049    1.622311   -0.209806
     35          6           0        7.445350    0.023067   -0.036043
     36          6           0        7.651006   -1.367417    0.197921
     37          6           0        6.247699    0.743635   -0.145361
     38          6           0       -0.968540    1.833362   -0.155681
     39          6           0        5.012239    0.168097   -0.114478
     40          6           0        0.065724    0.823144   -0.111260
     41          6           0        3.840564    0.906703   -0.112577
     42          6           0        1.385277    1.107944   -0.296136
     43          6           0        2.517747    0.273205   -0.133393
     44          6           0        2.352703   -1.131200    0.039497
     45          1           0      -12.949191   -2.803702   -1.272076
     46          1           0      -13.696945   -1.223261   -1.734701
     47          1           0      -13.858038    0.137658    1.908149
     48          1           0      -13.693174    0.306896    0.229422
     49          1           0      -14.539026   -1.683217    0.392544
     50          1           0      -10.275486   -2.543089   -1.876947
     51          1           0      -11.667106   -2.110732   -3.208020
     52          1           0      -10.034320   -0.879756   -2.736092
     53          1           0       -9.380523    1.079737   -0.754675
     54          1           0       -9.986238   -0.105086    2.295650
     55          1           0      -11.581711   -0.078453    3.109284
     56          1           0      -11.105684   -1.476626    2.377879
     57          1           0      -12.192117    2.122911    0.254787
     58          1           0      -12.285231    2.084760    2.041113
     59          1           0      -10.715521    2.051344    1.226640
     60          1           0      -11.965034   -2.514569    1.299696
     61          1           0       -9.006119   -1.719488    0.435229
     62          1           0       -5.515154   -1.697858   -0.488110
     63          1           0       -5.808975   -1.639103    1.220856
     64          1           0       -6.947147   -2.726591    0.345609
     65          1           0       -7.232308    1.592596   -0.151983
     66          1           0       -4.587990    0.107170    0.191706
     67          1           0       13.170538   -1.394178    2.389042
     68          1           0       11.888322   -2.248974    1.539740
     69          1           0       13.897766   -2.834779    0.339494
     70          1           0       12.998050   -2.196755   -2.072108
     71          1           0       11.568219   -2.500085   -0.843776
     72          1           0       11.381963    0.057253    3.640436
     73          1           0       10.459114    1.100372    2.643057
     74          1           0       10.161418   -0.613181    2.585015
     75          1           0       13.690084    1.086430    0.805685
     76          1           0       12.382675    2.116197    1.504342
     77          1           0       13.537973    0.994389    2.453924
     78          1           0       12.889209    0.020287   -2.857968
     79          1           0       12.076341    1.302794   -2.328439
     80          1           0       13.377205    0.884664   -1.371658
     81          1           0       -5.557845    3.078580   -0.514245
     82          1           0        9.993519   -0.011104   -2.115760
     83          1           0       15.061046   -0.883194    0.574328
     84          1           0        8.650832    2.103394   -0.231479
     85          1           0       -2.523652    4.508343    0.308374
     86          1           0       -2.107923    4.195362   -1.364342
     87          1           0       -4.001465    4.652557   -0.964118
     88          1           0       -2.704582    0.560434   -0.219863
     89          1           0        6.729744   -2.093356    0.107602
     90          1           0        8.468867   -1.392044   -0.494327
     91          1           0        7.823370   -1.783939    1.152534
     92          1           0        6.380683    1.802969   -0.188855
     93          1           0       -0.654095    2.835635   -0.405296
     94          1           0        4.909842   -1.081755   -0.153486
     95          1           0       -0.536732   -0.059406    0.221529
     96          1           0        3.941219    1.978016   -0.171777
     97          1           0        1.587701    2.158523   -0.745169
     98          1           0        1.312652   -1.425455    0.135377
     99          1           0        2.506303   -1.698580   -0.816384
    100          1           0        2.773453   -1.566175    0.814144
 ---------------------------------------------------------------------

 SCF Done:  E(RCAM-B3LYP) =  -1857.34137577     A.U. after   16 cycles

 Excitation energies and oscillator strengths:

 Excited State   1:      Singlet-A      1.9156 eV  647.24 nm  f=2.9044  <S**2>=0.000
     163 ->166        -0.12389
     164 ->165         0.70274
     164 <-165        -0.12096
 This state for optimization and/or second-order correction.
 Total Energy, E(TD-HF/TD-DFT) =  -1857.27097921
 Copying the excited state density for this state as the 1-particle RhoCI density.

 The electronic state is 1-A.
 Alpha  occ. eigenvalues --  -19.22228 -19.21650 -19.21330 -19.21214 -10.32398
 Alpha  occ. eigenvalues --  -10.31815 -10.31514 -10.31099 -10.30057 -10.29080
 Alpha  occ. eigenvalues --  -10.28384 -10.28344 -10.27804 -10.27773 -10.27758
 Alpha  occ. eigenvalues --  -10.27653 -10.27618 -10.27492 -10.27465 -10.27085
 Alpha  occ. eigenvalues --  -10.27081 -10.27051 -10.27002 -10.26905 -10.26716
 Alpha  occ. eigenvalues --  -10.26620 -10.26416 -10.26364 -10.26306 -10.26186
 Alpha  occ. eigenvalues --  -10.26162 -10.26092 -10.25721 -10.25693 -10.25676
 Alpha  occ. eigenvalues --  -10.25585 -10.25519 -10.25348 -10.24973 -10.24835
 Alpha  occ. eigenvalues --  -10.23682 -10.23673 -10.23342 -10.22424  -1.13962
 Alpha  occ. eigenvalues --   -1.12750  -1.11334  -1.10185  -0.93868  -0.92269
 Alpha  occ. eigenvalues --   -0.91839  -0.91221  -0.90804  -0.90101  -0.87259
 Alpha  occ. eigenvalues --   -0.86264  -0.85912  -0.85772  -0.84711  -0.83483
 Alpha  occ. eigenvalues --   -0.81879  -0.81170  -0.80843  -0.78727  -0.78055
 Alpha  occ. eigenvalues --   -0.77189  -0.76402  -0.76183  -0.76172  -0.75491
 Alpha  occ. eigenvalues --   -0.75007  -0.73926  -0.72607  -0.70836  -0.70614
 Alpha  occ. eigenvalues --   -0.68656  -0.66935  -0.65826  -0.64994  -0.63749
 Alpha  occ. eigenvalues --   -0.63339  -0.62467  -0.61161  -0.60726  -0.60455
 Alpha  occ. eigenvalues --   -0.59539  -0.59335  -0.58250  -0.57555  -0.56403
 Alpha  occ. eigenvalues --   -0.56260  -0.55604  -0.54835  -0.54566  -0.54156
 Alpha  occ. eigenvalues --   -0.53932  -0.53489  -0.53125  -0.52691  -0.52119
 Alpha  occ. eigenvalues --   -0.51518  -0.51188  -0.50715  -0.50588  -0.50209
 Alpha  occ. eigenvalues --   -0.49979  -0.49611  -0.49360  -0.49140  -0.48653
 Alpha  occ. eigenvalues --   -0.48020  -0.47712  -0.47335  -0.47213  -0.46891
 Alpha  occ. eigenvalues --   -0.46721  -0.46352  -0.45699  -0.45624  -0.45377
 Alpha  occ. eigenvalues --   -0.45198  -0.44985  -0.44564  -0.44301  -0.44061
 Alpha  occ. eigenvalues --   -0.43811  -0.43278  -0.42892  -0.42764  -0.42585
 Alpha  occ. eigenvalues --   -0.42523  -0.42101  -0.41955  -0.41869  -0.40965
 Alpha  occ. eigenvalues --   -0.40603  -0.40502  -0.40440  -0.40322  -0.39976
 Alpha  occ. eigenvalues --   -0.39839  -0.39796  -0.39727  -0.39510  -0.39370
 Alpha  occ. eigenvalues --   -0.38733  -0.37991  -0.37695  -0.37440  -0.37091
 Alpha  occ. eigenvalues --   -0.36477  -0.36334  -0.34906  -0.34446  -0.33700
 Alpha  occ. eigenvalues --   -0.32630  -0.32317  -0.31893  -0.31536  -0.30305
 Alpha  occ. eigenvalues --   -0.29884  -0.27847  -0.24104  -0.18517
 Alpha virt. eigenvalues --   -0.06557  -0.00758   0.03340   0.05911   0.07468
 Alpha virt. eigenvalues --    0.09747   0.09999   0.10539   0.11282   0.11858
 Alpha virt. eigenvalues --    0.12463   0.13071   0.13455   0.13698   0.14145

 Mulliken charges:
               1
     1  O   -0.525461
     2  O   -0.529598
     3  O   -0.581425
     4  O   -0.521839
     5  C    0.215466
     6  C    0.228036
     7  C    0.008123
     8  C   -0.256511
     9  C   -0.146482
    10  C    0.156447
    11  C   -0.312800
    12  C   -0.101755
    13  C   -0.316117
    14  C   -0.311760
    15  C   -0.070475
    16  C    0.080161
    17  C   -0.386501
    18  C   -0.075706
    19  C   -0.071250
    20  C    0.031785
    21  C    0.268768
    22  C   -0.204334
    23  C    0.160173
    24  C   -0.170140
    25  C   -0.066929
    26  C   -0.307917
    27  C   -0.305886
    28  C   -0.284221
    29  C   -0.135997
    30  C    0.156533
    31  C    0.081246
    32  C   -0.323961
    33  C   -0.359428
    34  C   -0.103305
    35  C    0.064595
    36  C   -0.356908
    37  C   -0.081152
    38  C   -0.107158
    39  C   -0.078662
    40  C   -0.064429
    41  C   -0.124812
    42  C   -0.150883
    43  C    0.119555
    44  C   -0.391334
    45  H    0.108895
    46  H    0.123262
    47  H    0.067356
    48  H    0.109940
    49  H    0.099587
    50  H    0.098545
    51  H    0.106924
    52  H    0.107682
    53  H    0.109781
    54  H    0.131264
    55  H    0.117653
    56  H    0.051755
    57  H    0.124729
    58  H    0.094153
    59  H    0.091547
    60  H    0.314954
    61  H    0.076321
    62  H    0.101690
    63  H    0.140656
    64  H    0.093555
    65  H    0.061647
    66  H    0.078103
    67  H    0.081562
    68  H    0.099367
    69  H    0.062632
    70  H    0.088011
    71  H    0.120448
    72  H    0.087054
    73  H    0.113401
    74  H    0.107405
    75  H    0.114710
    76  H    0.103664
    77  H    0.085278
    78  H    0.109329
    79  H    0.083363
    80  H    0.124208
    81  H    0.063383
    82  H    0.310567
    83  H    0.301179
    84  H    0.121002
    85  H    0.129851
    86  H    0.118453
    87  H    0.115227
    88  H    0.076067
    89  H    0.097973
    90  H    0.138800
    91  H    0.137825
    92  H    0.080877
    93  H    0.065875
    94  H    0.076380
    95  H    0.087402
    96  H    0.084733
    97  H    0.084257
    98  H    0.110752
    99  H    0.135215
   100  H    0.128001
 Sum of Mulliken charges =  -0.00000

 Dipole moment (field-independent basis, Debye):
    X=              4.7561    Y=             -0.2269    Z=              2.5463  Tot=              5.3996
 Quadrupole moment (field-independent basis, Debye-Ang):
   XX=           -268.6249   YY=           -261.4905   ZZ=           -279.3779
   XY=              6.8305   XZ=             30.2334   YZ=             -3.2112

 Normal termination of Gaussian 16 at Fri Aug  2 06:36:46 2019.
