 Gaussian 16, Revision A.03,
 Gaussian 16:  ES64L-G16RevA.03 25-Dec-2016

 -------------------------------------
 # td=(NStates=1) CAM-B3LYP/6-31G(d,p)
 -------------------------------------

 --
 TD
 --
 Symbolic Z-matrix:
 Charge =  0 Multiplicity = 1

                         Standard orientation:
 ---------------------------------------------------------------------
 Center     Atomic      Atomic             Coordinates (Angstroms)
 Number     Number       Type             X           Y           Z
 ---------------------------------------------------------------------
      1          8           0      -11.725140    0.472232   -1.399501
      2          8           0      -13.022615   -2.660313    1.178501
      3          8           0       10.449073   -0.841263   -2.035109
      4          8           0       14.446383   -1.122657   -0.223038
      5          6           0      -11.002155   -0.091160   -0.302393
      6          6           0      -11.593283   -0.986340   -1.253094
      7          6           0      -11.746933    0.147660    1.047480
      8          6           0      -13.007525   -1.741005   -1.081771
      9          6           0      -13.265442   -0.220015    1.024775
     10          6           0      -13.485173   -1.607586    0.349608
     11          6           0      -10.729510   -1.642313   -2.310364
     12          6           0       -9.590057    0.190418   -0.199879
     13          6           0      -11.024257   -0.345596    2.285491
     14          6           0      -11.821800    1.741014    1.222700
     15          6           0       -8.573657   -0.714024    0.058470
     16          6           0       -7.192287   -0.544313    0.140365
     17          6           0       -6.253413   -1.866016    0.172856
     18          6           0       -6.660418    0.649014   -0.128696
     19          6           0       -5.241151    0.969397    0.005697
     20          6           0       11.984421   -0.131046    1.431826
     21          6           0       11.601618   -0.459816   -1.271332
     22          6           0       12.673477   -1.466559    1.465103
     23          6           0       13.222440   -1.952914    0.181120
     24          6           0       12.311433   -1.779179   -1.156819
     25          6           0       11.130719   -0.012399    0.158219
     26          6           0       11.054837   -0.029062    2.652043
     27          6           0       13.059118    0.987231    1.432292
     28          6           0       12.377870    0.528014   -2.055353
     29          6           0       -4.727846    2.231827   -0.263235
     30          6           0        9.996389    0.661572    0.149821
     31          6           0       -3.337526    2.499759   -0.386742
     32          6           0        8.724147    1.037351    0.009069
     33          6           0       -3.014864    4.034619   -0.573471
     34          6           0       -2.366796    1.524879   -0.259559
     35          6           0        7.438482    0.201660    0.035256
     36          6           0        7.600371   -1.238932    0.065168
     37          6           0        6.342454    0.909484   -0.106452
     38          6           0       -1.094345    1.818536   -0.324969
     39          6           0        5.012649    0.342493   -0.002696
     40          6           0       -0.057916    0.905351   -0.162186
     41          6           0        3.775890    1.015103   -0.015680
     42          6           0        1.274780    1.160679   -0.133169
     43          6           0        2.449623    0.393933   -0.010509
     44          6           0        2.455338   -1.123890    0.082314
     45          1           0      -12.884605   -2.820116   -1.422579
     46          1           0      -13.592276   -1.163220   -1.815398
     47          1           0      -13.744064   -0.315264    2.097818
     48          1           0      -14.119940    0.419314    0.536210
     49          1           0      -14.618008   -1.846625    0.270506
     50          1           0      -10.462433   -2.698235   -1.856285
     51          1           0      -11.151149   -1.409526   -3.365711
     52          1           0       -9.702645   -1.075223   -2.370194
     53          1           0       -9.203735    1.266753   -0.668166
     54          1           0      -10.007500   -0.093526    2.190674
     55          1           0      -11.584829    0.017204    3.149352
     56          1           0      -10.883526   -1.433251    2.644551
     57          1           0      -12.404085    2.237137    0.360736
     58          1           0      -12.474358    1.967522    2.283830
     59          1           0      -10.814731    2.119032    1.196289
     60          1           0      -12.043411   -2.989795    1.004644
     61          1           0       -9.102096   -1.575537    0.201982
     62          1           0       -5.857330   -1.883421   -0.897011
     63          1           0       -5.499934   -1.787432    0.959586
     64          1           0       -6.771773   -2.604242    0.463321
     65          1           0       -7.355905    1.492100   -0.214285
     66          1           0       -4.560136    0.264080    0.056254
     67          1           0       13.399274   -1.546068    2.206153
     68          1           0       11.851995   -2.213948    1.903706
     69          1           0       13.572469   -3.011494    0.316259
     70          1           0       12.711244   -2.260845   -2.120919
     71          1           0       11.270224   -2.473626   -1.091275
     72          1           0       11.726547   -0.025003    3.562653
     73          1           0       10.656247    1.094079    2.618813
     74          1           0       10.460652   -0.872528    2.489026
     75          1           0       13.365283    0.986072    0.337071
     76          1           0       12.484499    1.919001    1.666814
     77          1           0       13.970416    0.841883    2.244665
     78          1           0       12.345995    0.048549   -3.122958
     79          1           0       11.852067    1.559592   -2.045337
     80          1           0       13.580213    0.385068   -1.621304
     81          1           0       -5.405053    3.046809   -0.569096
     82          1           0        9.740993   -0.190139   -1.752430
     83          1           0       14.929225   -1.139315    0.664014
     84          1           0        8.461048    2.221748   -0.050786
     85          1           0       -2.652280    4.438951    0.348328
     86          1           0       -2.242763    4.113617   -1.222617
     87          1           0       -3.742955    4.640971   -0.865650
     88          1           0       -2.761970    0.485291   -0.019201
     89          1           0        6.656618   -1.762001   -0.130238
     90          1           0        8.227572   -1.428309   -0.821323
     91          1           0        7.975140   -1.583405    1.107512
     92          1           0        6.554143    2.032430   -0.236820
     93          1           0       -0.660968    2.955421   -0.470962
     94          1           0        4.861179   -0.741563    0.259507
     95          1           0       -0.356469   -0.230391   -0.364941
     96          1           0        3.664200    2.217244   -0.348493
     97          1           0        1.546887    2.268912   -0.072229
     98          1           0        1.397670   -1.612440    0.503008
     99          1           0        2.815613   -1.484916   -0.924108
    100          1           0        3.203683   -1.538344    0.822376
 ---------------------------------------------------------------------

 SCF Done:  E(RCAM-B3LYP) =  -1857.27974573     A.U. after   15 cycles

 Excitation energies and oscillator strengths:

 Excited State   1:      Singlet-A      2.1187 eV  585.20 nm  f=3.0103  <S**2>=0.000
     163 ->166        -0.12553
     164 ->165         0.69869
     164 <-165        -0.10486
 This state for optimization and/or second-order correction.
 Total Energy, E(TD-HF/TD-DFT) =  -1857.20188657
 Copying the excited state density for this state as the 1-particle RhoCI density.

 The electronic state is 1-A.
 Alpha  occ. eigenvalues --  -19.22267 -19.22223 -19.21086 -19.20348 -10.32517
 Alpha  occ. eigenvalues --  -10.32131 -10.32001 -10.31581 -10.30851 -10.29391
 Alpha  occ. eigenvalues --  -10.28568 -10.28463 -10.28291 -10.28196 -10.28160
 Alpha  occ. eigenvalues --  -10.28036 -10.27870 -10.27797 -10.27791 -10.27781
 Alpha  occ. eigenvalues --  -10.27746 -10.27727 -10.27547 -10.27527 -10.27098
 Alpha  occ. eigenvalues --  -10.27007 -10.26960 -10.26901 -10.26838 -10.26769
 Alpha  occ. eigenvalues --  -10.26711 -10.26655 -10.26548 -10.26491 -10.26466
 Alpha  occ. eigenvalues --  -10.26425 -10.26273 -10.26215 -10.26080 -10.26075
 Alpha  occ. eigenvalues --  -10.26001 -10.25888 -10.24358 -10.24181  -1.14837
 Alpha  occ. eigenvalues --   -1.09103  -1.07522  -1.07060  -0.93759  -0.93267
 Alpha  occ. eigenvalues --   -0.92333  -0.92134  -0.90309  -0.89618  -0.87624
 Alpha  occ. eigenvalues --   -0.86222  -0.85631  -0.85395  -0.85040  -0.83248
 Alpha  occ. eigenvalues --   -0.82191  -0.81082  -0.80160  -0.79625  -0.78199
 Alpha  occ. eigenvalues --   -0.77197  -0.76202  -0.75835  -0.75481  -0.75422
 Alpha  occ. eigenvalues --   -0.75007  -0.74164  -0.73479  -0.70914  -0.69151
 Alpha  occ. eigenvalues --   -0.68526  -0.67362  -0.65219  -0.64422  -0.63983
 Alpha  occ. eigenvalues --   -0.63366  -0.61252  -0.60452  -0.60106  -0.58707
 Alpha  occ. eigenvalues --   -0.58090  -0.58020  -0.57978  -0.56348  -0.55956
 Alpha  occ. eigenvalues --   -0.55497  -0.55065  -0.54903  -0.54508  -0.53552
 Alpha  occ. eigenvalues --   -0.53178  -0.53089  -0.52769  -0.52109  -0.51691
 Alpha  occ. eigenvalues --   -0.51055  -0.50701  -0.50350  -0.50067  -0.49812
 Alpha  occ. eigenvalues --   -0.49577  -0.49125  -0.49013  -0.48673  -0.48438
 Alpha  occ. eigenvalues --   -0.48317  -0.48205  -0.47907  -0.47415  -0.47069
 Alpha  occ. eigenvalues --   -0.46769  -0.46698  -0.46319  -0.45982  -0.45531
 Alpha  occ. eigenvalues --   -0.44948  -0.44794  -0.43736  -0.43682  -0.43632
 Alpha  occ. eigenvalues --   -0.43556  -0.43290  -0.42843  -0.42277  -0.41962
 Alpha  occ. eigenvalues --   -0.41695  -0.41593  -0.41220  -0.40865  -0.40811
 Alpha  occ. eigenvalues --   -0.40749  -0.40245  -0.39958  -0.39890  -0.39475
 Alpha  occ. eigenvalues --   -0.39345  -0.39242  -0.38962  -0.38919  -0.38766
 Alpha  occ. eigenvalues --   -0.38583  -0.38057  -0.37680  -0.37166  -0.36907
 Alpha  occ. eigenvalues --   -0.36663  -0.36206  -0.35282  -0.34926  -0.34318
 Alpha  occ. eigenvalues --   -0.33077  -0.32574  -0.32400  -0.31857  -0.30666
 Alpha  occ. eigenvalues --   -0.30223  -0.28306  -0.25523  -0.19839
 Alpha virt. eigenvalues --   -0.06749  -0.00969   0.02431   0.04293   0.06580
 Alpha virt. eigenvalues --    0.08525   0.08991   0.09707   0.10884   0.11755
 Alpha virt. eigenvalues --    0.12655   0.12894   0.13066   0.13236   0.13606

 Mulliken charges:
               1
     1  O   -0.505406
     2  O   -0.563837
     3  O   -0.569117
     4  O   -0.552320
     5  C    0.253751
     6  C    0.185854
     7  C    0.011494
     8  C   -0.203601
     9  C   -0.171188
    10  C    0.169950
    11  C   -0.329421
    12  C   -0.139790
    13  C   -0.305607
    14  C   -0.286424
    15  C   -0.065868
    16  C    0.065715
    17  C   -0.345699
    18  C   -0.113777
    19  C   -0.049520
    20  C   -0.005203
    21  C    0.260185
    22  C   -0.177234
    23  C    0.120846
    24  C   -0.190466
    25  C   -0.031668
    26  C   -0.285051
    27  C   -0.283634
    28  C   -0.289453
    29  C   -0.125204
    30  C    0.072633
    31  C    0.060715
    32  C   -0.287978
    33  C   -0.365551
    34  C   -0.087146
    35  C    0.167056
    36  C   -0.370788
    37  C   -0.104398
    38  C   -0.078411
    39  C   -0.127665
    40  C   -0.092645
    41  C   -0.108431
    42  C   -0.124192
    43  C    0.112610
    44  C   -0.378555
    45  H    0.104397
    46  H    0.130049
    47  H    0.098398
    48  H    0.092228
    49  H    0.079046
    50  H    0.092373
    51  H    0.122657
    52  H    0.111491
    53  H    0.088585
    54  H    0.118365
    55  H    0.109015
    56  H    0.080955
    57  H    0.118633
    58  H    0.069963
    59  H    0.101125
    60  H    0.299542
    61  H    0.063476
    62  H    0.132235
    63  H    0.119163
    64  H    0.115199
    65  H    0.086282
    66  H    0.068566
    67  H    0.099653
    68  H    0.082530
    69  H    0.093269
    70  H    0.117475
    71  H    0.094086
    72  H    0.093699
    73  H    0.101136
    74  H    0.113421
    75  H    0.132137
    76  H    0.094878
    77  H    0.068938
    78  H    0.110536
    79  H    0.091262
    80  H    0.122758
    81  H    0.086003
    82  H    0.300684
    83  H    0.300999
    84  H    0.093648
    85  H    0.130754
    86  H    0.126415
    87  H    0.116334
    88  H    0.094463
    89  H    0.112023
    90  H    0.136129
    91  H    0.117976
    92  H    0.086543
    93  H    0.083280
    94  H    0.084999
    95  H    0.072179
    96  H    0.066099
    97  H    0.066768
    98  H    0.091842
    99  H    0.130869
   100  H    0.118908
 Sum of Mulliken charges =  -0.00000

 Dipole moment (field-independent basis, Debye):
    X=              1.6700    Y=             -1.2064    Z=              2.0498  Tot=              2.9062
 Quadrupole moment (field-independent basis, Debye-Ang):
   XX=           -311.3138   YY=           -259.2230   ZZ=           -279.7040
   XY=             -3.7100   XZ=             45.8349   YZ=             -2.8083

 Normal termination of Gaussian 16 at Tue Jul 30 08:48:55 2019.
