 Gaussian 16, Revision A.03,
 Gaussian 16:  ES64L-G16RevA.03 25-Dec-2016

 -------------------------------------
 # td=(NStates=1) CAM-B3LYP/6-31G(d,p)
 -------------------------------------

 --
 TD
 --
 Symbolic Z-matrix:
 Charge =  0 Multiplicity = 1

                         Standard orientation:
 ---------------------------------------------------------------------
 Center     Atomic      Atomic             Coordinates (Angstroms)
 Number     Number       Type             X           Y           Z
 ---------------------------------------------------------------------
      1          8           0      -11.708265   -0.050854   -1.724980
      2          8           0      -13.090001   -2.276820    1.612512
      3          8           0       10.573286   -1.311270   -2.053314
      4          8           0       14.475738   -0.833226    0.015970
      5          6           0      -11.032116   -0.186634   -0.419800
      6          6           0      -11.538804   -1.379478   -1.153459
      7          6           0      -11.782244    0.460653    0.800845
      8          6           0      -12.894013   -1.946458   -0.868186
      9          6           0      -13.292192    0.095936    0.665240
     10          6           0      -13.404004   -1.452991    0.445454
     11          6           0      -10.706479   -2.154148   -1.963753
     12          6           0       -9.572134    0.113658   -0.379317
     13          6           0      -11.167394    0.133120    2.165192
     14          6           0      -11.736236    2.068563    0.637012
     15          6           0       -8.704653   -0.749595    0.151540
     16          6           0       -7.320122   -0.549872    0.291830
     17          6           0       -6.482846   -1.766554    0.565847
     18          6           0       -6.610761    0.592746    0.023786
     19          6           0       -5.218452    0.898089   -0.097293
     20          6           0       11.837914    0.173988    1.226586
     21          6           0       11.683946   -0.760122   -1.275648
     22          6           0       12.617330   -1.120666    1.483683
     23          6           0       13.387962   -1.751212    0.376138
     24          6           0       12.555799   -1.946238   -0.958405
     25          6           0       11.047202    0.007156   -0.060307
     26          6           0       11.083605    0.395486    2.472961
     27          6           0       12.826916    1.385906    1.034959
     28          6           0       12.419915    0.215397   -2.194187
     29          6           0       -4.698968    2.169740   -0.472664
     30          6           0        9.872403    0.398430   -0.066593
     31          6           0       -3.337382    2.533289   -0.513390
     32          6           0        8.627459    0.871968   -0.202906
     33          6           0       -2.970594    3.864760   -0.999268
     34          6           0       -2.350588    1.580644   -0.201302
     35          6           0        7.438728    0.036639   -0.116938
     36          6           0        7.668544   -1.328661    0.409812
     37          6           0        6.304327    0.662361   -0.071103
     38          6           0       -0.906971    1.851109   -0.388847
     39          6           0        4.899960    0.137633    0.138874
     40          6           0        0.010546    0.989972    0.036896
     41          6           0        3.780001    0.891045    0.071409
     42          6           0        1.425245    1.230512   -0.053271
     43          6           0        2.489808    0.362231    0.187030
     44          6           0        2.224712   -1.076079    0.566298
     45          1           0      -12.735478   -3.079542   -0.780521
     46          1           0      -13.646613   -1.666213   -1.693011
     47          1           0      -13.535389    0.328618    1.624033
     48          1           0      -13.722904    0.763254   -0.111561
     49          1           0      -14.430371   -1.574636    0.424669
     50          1           0      -10.377382   -3.326386   -1.567558
     51          1           0      -11.236974   -2.214200   -3.090236
     52          1           0       -9.942523   -1.692668   -2.076790
     53          1           0       -9.175585    0.762508   -1.076395
     54          1           0      -10.211635    0.618391    2.241508
     55          1           0      -11.917550    0.458372    3.050172
     56          1           0      -11.163657   -1.049404    2.364425
     57          1           0      -12.285310    2.335480   -0.261876
     58          1           0      -12.493654    2.515147    1.358463
     59          1           0      -10.832590    2.432430    0.766437
     60          1           0      -12.128274   -2.143322    1.605999
     61          1           0       -9.111556   -1.442217    0.848573
     62          1           0       -6.042423   -2.095740   -0.392517
     63          1           0       -5.462169   -1.530957    1.057667
     64          1           0       -7.012005   -2.503636    0.988898
     65          1           0       -7.270182    1.643274   -0.014620
     66          1           0       -4.388499    0.046443    0.116592
     67          1           0       13.211234   -0.878179    2.289215
     68          1           0       11.994121   -1.925120    1.943350
     69          1           0       13.864181   -2.696734    0.577033
     70          1           0       13.137717   -2.252112   -1.817260
     71          1           0       11.781382   -2.763003   -0.558929
     72          1           0       11.796319    0.254867    3.327074
     73          1           0       10.480133    1.377876    2.605422
     74          1           0       10.366534   -0.398143    2.688410
     75          1           0       13.531894    1.253660    0.287334
     76          1           0       12.383730    2.293643    0.811747
     77          1           0       13.562114    1.362732    1.997781
     78          1           0       12.592144   -0.239089   -2.855761
     79          1           0       11.887515    1.104370   -2.425437
     80          1           0       13.337342    0.519638   -1.620185
     81          1           0       -5.428618    2.872375   -0.806562
     82          1           0       10.256362   -0.480774   -2.426715
     83          1           0       15.287271   -0.916893    0.691483
     84          1           0        8.292604    1.903739   -0.706283
     85          1           0       -2.521588    4.400735   -0.130297
     86          1           0       -2.561347    3.920797   -1.837927
     87          1           0       -3.823965    4.516727   -1.120678
     88          1           0       -2.611577    0.557995    0.226860
     89          1           0        6.625774   -1.831245    0.177076
     90          1           0        8.299101   -1.882769   -0.202311
     91          1           0        8.014869   -1.257370    1.419579
     92          1           0        6.264740    1.696775   -0.371557
     93          1           0       -0.466437    2.784150   -0.651730
     94          1           0        4.892135   -0.854132    0.244560
     95          1           0       -0.356211    0.068423    0.501802
     96          1           0        3.797083    1.949070   -0.174079
     97          1           0        1.678107    2.289695   -0.212292
     98          1           0        1.245376   -1.243369    0.324676
     99          1           0        2.949443   -1.765442    0.079587
    100          1           0        2.504952   -1.264440    1.772624
 ---------------------------------------------------------------------

 SCF Done:  E(RCAM-B3LYP) =  -1857.24625056     A.U. after   15 cycles

 Excitation energies and oscillator strengths:

 Excited State   1:      Singlet-A      2.3933 eV  518.04 nm  f=2.6134  <S**2>=0.000
     163 ->166         0.13993
     164 ->165         0.68874
 This state for optimization and/or second-order correction.
 Total Energy, E(TD-HF/TD-DFT) =  -1857.15829695
 Copying the excited state density for this state as the 1-particle RhoCI density.

 The electronic state is 1-A.
 Alpha  occ. eigenvalues --  -19.21906 -19.21903 -19.21574 -19.20737 -10.32250
 Alpha  occ. eigenvalues --  -10.32070 -10.31614 -10.30797 -10.29223 -10.28134
 Alpha  occ. eigenvalues --  -10.27908 -10.27812 -10.27524 -10.27513 -10.27471
 Alpha  occ. eigenvalues --  -10.27280 -10.27135 -10.27054 -10.26957 -10.26843
 Alpha  occ. eigenvalues --  -10.26797 -10.26452 -10.26251 -10.26208 -10.26068
 Alpha  occ. eigenvalues --  -10.25965 -10.25950 -10.25797 -10.25734 -10.25665
 Alpha  occ. eigenvalues --  -10.25573 -10.25469 -10.25392 -10.25280 -10.25196
 Alpha  occ. eigenvalues --  -10.25093 -10.25001 -10.24783 -10.24460 -10.24344
 Alpha  occ. eigenvalues --  -10.24193 -10.24066 -10.23987 -10.21856  -1.13695
 Alpha  occ. eigenvalues --   -1.09283  -1.08879  -1.07269  -0.93649  -0.92521
 Alpha  occ. eigenvalues --   -0.92197  -0.91525  -0.90710  -0.90154  -0.87647
 Alpha  occ. eigenvalues --   -0.87237  -0.86965  -0.85911  -0.85552  -0.83161
 Alpha  occ. eigenvalues --   -0.82669  -0.81795  -0.81548  -0.78265  -0.77626
 Alpha  occ. eigenvalues --   -0.76792  -0.76722  -0.76599  -0.76319  -0.76297
 Alpha  occ. eigenvalues --   -0.76096  -0.75129  -0.73503  -0.70571  -0.70069
 Alpha  occ. eigenvalues --   -0.68852  -0.67290  -0.65851  -0.64858  -0.63894
 Alpha  occ. eigenvalues --   -0.63459  -0.62539  -0.61060  -0.60228  -0.58971
 Alpha  occ. eigenvalues --   -0.58468  -0.57835  -0.57388  -0.57115  -0.56910
 Alpha  occ. eigenvalues --   -0.55985  -0.55757  -0.55071  -0.54868  -0.54301
 Alpha  occ. eigenvalues --   -0.53614  -0.53164  -0.53126  -0.53037  -0.52134
 Alpha  occ. eigenvalues --   -0.51660  -0.51323  -0.51118  -0.50838  -0.50669
 Alpha  occ. eigenvalues --   -0.50405  -0.50147  -0.49632  -0.49448  -0.48915
 Alpha  occ. eigenvalues --   -0.48480  -0.47655  -0.47127  -0.46931  -0.46679
 Alpha  occ. eigenvalues --   -0.46565  -0.46445  -0.45909  -0.45689  -0.45486
 Alpha  occ. eigenvalues --   -0.45348  -0.45320  -0.44805  -0.44362  -0.44197
 Alpha  occ. eigenvalues --   -0.43650  -0.43336  -0.43207  -0.42742  -0.42725
 Alpha  occ. eigenvalues --   -0.42577  -0.42024  -0.41753  -0.41642  -0.41169
 Alpha  occ. eigenvalues --   -0.41010  -0.40961  -0.40275  -0.40210  -0.39997
 Alpha  occ. eigenvalues --   -0.39602  -0.39333  -0.39292  -0.39210  -0.38992
 Alpha  occ. eigenvalues --   -0.38495  -0.38354  -0.37980  -0.37567  -0.37351
 Alpha  occ. eigenvalues --   -0.36957  -0.36258  -0.34812  -0.34613  -0.33876
 Alpha  occ. eigenvalues --   -0.32896  -0.32747  -0.32213  -0.31611  -0.30842
 Alpha  occ. eigenvalues --   -0.30451  -0.27919  -0.24276  -0.20452
 Alpha virt. eigenvalues --   -0.05262  -0.00566   0.03483   0.06260   0.07738
 Alpha virt. eigenvalues --    0.09014   0.09896   0.10300   0.11145   0.11587
 Alpha virt. eigenvalues --    0.12364   0.12827   0.13080   0.13688   0.13927

 Mulliken charges:
               1
     1  O   -0.520554
     2  O   -0.546695
     3  O   -0.552490
     4  O   -0.569886
     5  C    0.233117
     6  C    0.228522
     7  C   -0.020517
     8  C   -0.189009
     9  C   -0.176558
    10  C    0.121473
    11  C   -0.264530
    12  C   -0.131705
    13  C   -0.298085
    14  C   -0.313780
    15  C   -0.069135
    16  C    0.087963
    17  C   -0.368684
    18  C   -0.131704
    19  C   -0.060002
    20  C    0.015294
    21  C    0.204846
    22  C   -0.172108
    23  C    0.132600
    24  C   -0.181489
    25  C   -0.125617
    26  C   -0.301083
    27  C   -0.289522
    28  C   -0.267050
    29  C   -0.122217
    30  C    0.229482
    31  C    0.085427
    32  C   -0.289461
    33  C   -0.366992
    34  C   -0.128689
    35  C    0.096718
    36  C   -0.361777
    37  C   -0.084294
    38  C   -0.078111
    39  C   -0.089790
    40  C   -0.071865
    41  C   -0.098616
    42  C   -0.163909
    43  C    0.130222
    44  C   -0.348933
    45  H    0.103237
    46  H    0.119399
    47  H    0.106728
    48  H    0.114135
    49  H    0.101171
    50  H    0.067023
    51  H    0.091315
    52  H    0.113765
    53  H    0.111358
    54  H    0.128340
    55  H    0.103118
    56  H    0.063162
    57  H    0.120628
    58  H    0.092413
    59  H    0.110539
    60  H    0.297573
    61  H    0.079433
    62  H    0.128399
    63  H    0.104878
    64  H    0.109583
    65  H    0.059083
    66  H    0.067761
    67  H    0.094765
    68  H    0.091952
    69  H    0.091302
    70  H    0.120108
    71  H    0.102889
    72  H    0.091156
    73  H    0.102156
    74  H    0.102503
    75  H    0.135058
    76  H    0.107848
    77  H    0.058450
    78  H    0.092674
    79  H    0.093873
    80  H    0.128996
    81  H    0.085413
    82  H    0.304089
    83  H    0.305462
    84  H    0.089035
    85  H    0.125170
    86  H    0.138850
    87  H    0.105417
    88  H    0.086669
    89  H    0.080172
    90  H    0.142165
    91  H    0.132866
    92  H    0.062824
    93  H    0.086006
    94  H    0.066665
    95  H    0.080788
    96  H    0.081285
    97  H    0.077497
    98  H    0.118172
    99  H    0.117626
   100  H    0.096251
 Sum of Mulliken charges =  -0.00000

 Dipole moment (field-independent basis, Debye):
    X=              5.3047    Y=              0.5848    Z=              1.3052  Tot=              5.4941
 Quadrupole moment (field-independent basis, Debye-Ang):
   XX=           -255.3307   YY=           -259.8055   ZZ=           -275.5767
   XY=            -18.5059   XZ=             21.4255   YZ=             -5.3591

 Normal termination of Gaussian 16 at Thu Aug  1 06:45:35 2019.
