 Gaussian 16, Revision A.03,
 Gaussian 16:  ES64L-G16RevA.03 25-Dec-2016

 -------------------------------------
 # td=(NStates=1) CAM-B3LYP/6-31G(d,p)
 -------------------------------------

 --
 TD
 --
 Symbolic Z-matrix:
 Charge =  0 Multiplicity = 1

                         Standard orientation:
 ---------------------------------------------------------------------
 Center     Atomic      Atomic             Coordinates (Angstroms)
 Number     Number       Type             X           Y           Z
 ---------------------------------------------------------------------
      1          8           0       11.856044    0.398530    1.561560
      2          8           0       12.885606   -2.391768   -1.418574
      3          8           0      -10.664294   -0.935984    2.186911
      4          8           0      -14.545230   -0.973256    0.211333
      5          6           0       11.172106   -0.086030    0.333926
      6          6           0       11.764388   -1.101193    1.303839
      7          6           0       11.698614    0.434813   -0.959568
      8          6           0       13.168435   -1.743486    0.871911
      9          6           0       13.225471   -0.071039   -0.919558
     10          6           0       13.488248   -1.485575   -0.592675
     11          6           0       10.970996   -1.907367    2.262160
     12          6           0        9.688106    0.131803    0.455292
     13          6           0       10.948953   -0.042203   -2.170885
     14          6           0       11.820060    1.916962   -0.948530
     15          6           0        8.746711   -0.708469   -0.024700
     16          6           0        7.324243   -0.600676   -0.003740
     17          6           0        6.541122   -1.814191   -0.388792
     18          6           0        6.693686    0.691445    0.201727
     19          6           0        5.270474    0.831361    0.206311
     20          6           0      -11.909094    0.086880   -1.226792
     21          6           0      -11.731280   -0.516941    1.344451
     22          6           0      -12.671750   -1.228730   -1.417939
     23          6           0      -13.365004   -1.729869   -0.218383
     24          6           0      -12.433910   -1.831489    1.018058
     25          6           0      -11.026337    0.016486    0.015315
     26          6           0      -11.079678    0.252904   -2.488075
     27          6           0      -12.933142    1.287305   -1.237824
     28          6           0      -12.642626    0.409665    2.086387
     29          6           0        4.674553    2.109973    0.344076
     30          6           0       -9.865752    0.505766    0.033676
     31          6           0        3.246265    2.469232    0.345356
     32          6           0       -8.639926    1.004767    0.062969
     33          6           0        2.902074    3.811023    0.724508
     34          6           0        2.307497    1.486511    0.142005
     35          6           0       -7.417509    0.132690   -0.114695
     36          6           0       -7.567823   -1.393084   -0.456850
     37          6           0       -6.294023    0.732936   -0.145198
     38          6           0        0.984012    1.726252    0.356042
     39          6           0       -5.017943    0.100294   -0.062190
     40          6           0       -0.064410    0.807486    0.082325
     41          6           0       -3.832292    0.739643    0.031444
     42          6           0       -1.371617    1.055954    0.010368
     43          6           0       -2.541248    0.177213   -0.158441
     44          6           0       -2.299944   -1.250549   -0.585910
     45          1           0       12.996030   -2.658888    0.986694
     46          1           0       13.895116   -1.058815    1.597466
     47          1           0       13.787775    0.072446   -1.853562
     48          1           0       13.673069    0.638825   -0.257098
     49          1           0       14.611785   -1.583586   -0.456490
     50          1           0       10.663341   -2.721579    1.839315
     51          1           0       11.567739   -1.966710    3.228841
     52          1           0        9.991076   -1.335415    2.424129
     53          1           0        9.204308    0.974606    1.446323
     54          1           0       10.002832    0.566149   -2.344102
     55          1           0       11.557398   -0.090143   -3.069505
     56          1           0       10.399194   -1.059729   -2.028758
     57          1           0       11.987889    2.454980    0.109367
     58          1           0       12.305222    2.189796   -1.748701
     59          1           0       10.758309    2.014088   -1.061631
     60          1           0       11.909479   -2.448814   -1.261748
     61          1           0        9.248910   -1.492874   -0.624834
     62          1           0        6.142234   -2.216184    0.503553
     63          1           0        5.785652   -1.500895   -1.130646
     64          1           0        7.154173   -2.686747   -0.814956
     65          1           0        7.410306    1.511552    0.133028
     66          1           0        4.673805    0.001886    0.062860
     67          1           0      -13.476715   -0.945033   -2.347700
     68          1           0      -12.011301   -2.034580   -1.644646
     69          1           0      -13.723019   -2.846562   -0.444113
     70          1           0      -13.046705   -2.273055    1.804758
     71          1           0      -11.654211   -2.674641    0.696370
     72          1           0      -11.735543    0.359657   -3.283064
     73          1           0      -10.572115    1.130117   -2.459753
     74          1           0      -10.431904   -0.751527   -2.395664
     75          1           0      -13.693089    1.068119   -0.359777
     76          1           0      -12.290100    2.134712   -0.930208
     77          1           0      -13.505911    1.424391   -2.254111
     78          1           0      -13.329774   -0.286728    2.817387
     79          1           0      -12.050936    1.281345    2.820696
     80          1           0      -13.520222    0.811280    1.580515
     81          1           0        5.238554    2.918182    0.464117
     82          1           0      -10.133063   -0.048083    2.220946
     83          1           0      -14.967254   -0.895289   -0.738463
     84          1           0       -8.489041    2.187458    0.007268
     85          1           0        2.285925    4.310476    0.071713
     86          1           0        2.261797    4.018765    1.596783
     87          1           0        3.725786    4.539707    0.799614
     88          1           0        2.748598    0.577685   -0.092454
     89          1           0       -6.723501   -1.887075   -0.216823
     90          1           0       -8.185173   -1.973613    0.461439
     91          1           0       -7.964476   -1.538019   -1.505027
     92          1           0       -6.235593    1.859030   -0.159047
     93          1           0        0.667712    2.655428    0.750374
     94          1           0       -4.876734   -0.918152   -0.167885
     95          1           0        0.314762   -0.096360   -0.105459
     96          1           0       -4.083311    1.740812    0.182828
     97          1           0       -1.457002    1.973401    0.397010
     98          1           0       -1.286461   -1.386855   -0.565110
     99          1           0       -2.794177   -1.981800    0.075179
    100          1           0       -2.572700   -1.288160   -1.755480
 ---------------------------------------------------------------------

 SCF Done:  E(RCAM-B3LYP) =  -1857.23405685     A.U. after   15 cycles

 Excitation energies and oscillator strengths:

 Excited State   1:      Singlet-A      1.9749 eV  627.81 nm  f=2.9609  <S**2>=0.000
     163 ->166        -0.12436
     164 ->165         0.70169
     164 <-165        -0.11922
 This state for optimization and/or second-order correction.
 Total Energy, E(TD-HF/TD-DFT) =  -1857.16148187
 Copying the excited state density for this state as the 1-particle RhoCI density.

 The electronic state is 1-A.
 Alpha  occ. eigenvalues --  -19.22824 -19.22194 -19.21655 -19.20935 -10.32380
 Alpha  occ. eigenvalues --  -10.32366 -10.31958 -10.31679 -10.30028 -10.28798
 Alpha  occ. eigenvalues --  -10.28777 -10.28100 -10.27961 -10.27708 -10.27573
 Alpha  occ. eigenvalues --  -10.27276 -10.27088 -10.27000 -10.26956 -10.26904
 Alpha  occ. eigenvalues --  -10.26893 -10.26852 -10.26740 -10.26663 -10.26570
 Alpha  occ. eigenvalues --  -10.26471 -10.26423 -10.26225 -10.26197 -10.26139
 Alpha  occ. eigenvalues --  -10.26112 -10.25975 -10.25643 -10.25224 -10.25205
 Alpha  occ. eigenvalues --  -10.25162 -10.25087 -10.25052 -10.24966 -10.24847
 Alpha  occ. eigenvalues --  -10.24614 -10.24037 -10.23491 -10.23461  -1.11587
 Alpha  occ. eigenvalues --   -1.10567  -1.09112  -1.08403  -0.93601  -0.92836
 Alpha  occ. eigenvalues --   -0.92356  -0.92204  -0.90845  -0.90247  -0.87828
 Alpha  occ. eigenvalues --   -0.87072  -0.86303  -0.85710  -0.85236  -0.83518
 Alpha  occ. eigenvalues --   -0.82726  -0.81691  -0.81050  -0.79948  -0.77311
 Alpha  occ. eigenvalues --   -0.76955  -0.76744  -0.76645  -0.76489  -0.75947
 Alpha  occ. eigenvalues --   -0.75019  -0.74881  -0.73195  -0.70621  -0.69410
 Alpha  occ. eigenvalues --   -0.68211  -0.67436  -0.65002  -0.64523  -0.64306
 Alpha  occ. eigenvalues --   -0.64080  -0.62406  -0.61913  -0.60932  -0.59708
 Alpha  occ. eigenvalues --   -0.59351  -0.58730  -0.56861  -0.56769  -0.56584
 Alpha  occ. eigenvalues --   -0.55975  -0.55542  -0.55353  -0.54644  -0.54247
 Alpha  occ. eigenvalues --   -0.53969  -0.53552  -0.53211  -0.52954  -0.51867
 Alpha  occ. eigenvalues --   -0.51699  -0.51450  -0.50959  -0.50350  -0.50215
 Alpha  occ. eigenvalues --   -0.49686  -0.49431  -0.49078  -0.49023  -0.48678
 Alpha  occ. eigenvalues --   -0.48303  -0.48153  -0.47969  -0.47714  -0.47517
 Alpha  occ. eigenvalues --   -0.46965  -0.46800  -0.46513  -0.46017  -0.45853
 Alpha  occ. eigenvalues --   -0.45284  -0.45148  -0.44579  -0.44190  -0.43957
 Alpha  occ. eigenvalues --   -0.43836  -0.43270  -0.43095  -0.42574  -0.42473
 Alpha  occ. eigenvalues --   -0.42315  -0.41885  -0.41251  -0.41131  -0.41087
 Alpha  occ. eigenvalues --   -0.40739  -0.40531  -0.40268  -0.40230  -0.40125
 Alpha  occ. eigenvalues --   -0.39670  -0.39304  -0.39113  -0.39074  -0.38912
 Alpha  occ. eigenvalues --   -0.38690  -0.38185  -0.37862  -0.37580  -0.37248
 Alpha  occ. eigenvalues --   -0.36428  -0.36217  -0.35350  -0.34295  -0.33039
 Alpha  occ. eigenvalues --   -0.32671  -0.32376  -0.31871  -0.31522  -0.30901
 Alpha  occ. eigenvalues --   -0.30664  -0.27946  -0.24544  -0.18879
 Alpha virt. eigenvalues --   -0.06664  -0.00835   0.02995   0.05887   0.06784
 Alpha virt. eigenvalues --    0.08482   0.08648   0.09508   0.10799   0.12058
 Alpha virt. eigenvalues --    0.12388   0.12709   0.12830   0.13767   0.14154

 Mulliken charges:
               1
     1  O   -0.525632
     2  O   -0.544269
     3  O   -0.561535
     4  O   -0.548281
     5  C    0.196059
     6  C    0.197379
     7  C    0.012626
     8  C   -0.172497
     9  C   -0.189314
    10  C    0.159061
    11  C   -0.327604
    12  C   -0.116161
    13  C   -0.318569
    14  C   -0.287229
    15  C   -0.078330
    16  C    0.063126
    17  C   -0.375500
    18  C   -0.110942
    19  C   -0.076832
    20  C   -0.010750
    21  C    0.279469
    22  C   -0.154327
    23  C    0.130617
    24  C   -0.187991
    25  C   -0.101637
    26  C   -0.260196
    27  C   -0.311291
    28  C   -0.293076
    29  C   -0.109450
    30  C    0.206083
    31  C    0.107316
    32  C   -0.321784
    33  C   -0.413700
    34  C   -0.074879
    35  C    0.099927
    36  C   -0.356714
    37  C   -0.083251
    38  C   -0.108562
    39  C   -0.085975
    40  C   -0.068707
    41  C   -0.083547
    42  C   -0.092287
    43  C    0.056817
    44  C   -0.358286
    45  H    0.088843
    46  H    0.109724
    47  H    0.082799
    48  H    0.115470
    49  H    0.096834
    50  H    0.119090
    51  H    0.122554
    52  H    0.122047
    53  H    0.070458
    54  H    0.109411
    55  H    0.125192
    56  H    0.070844
    57  H    0.122171
    58  H    0.113371
    59  H    0.098574
    60  H    0.310988
    61  H    0.060330
    62  H    0.138100
    63  H    0.125773
    64  H    0.102458
    65  H    0.102190
    66  H    0.087399
    67  H    0.051601
    68  H    0.106051
    69  H    0.064513
    70  H    0.125041
    71  H    0.097775
    72  H    0.096308
    73  H    0.107722
    74  H    0.080673
    75  H    0.115497
    76  H    0.105226
    77  H    0.088829
    78  H    0.096455
    79  H    0.068160
    80  H    0.137926
    81  H    0.068697
    82  H    0.300522
    83  H    0.306512
    84  H    0.109361
    85  H    0.135336
    86  H    0.125258
    87  H    0.108579
    88  H    0.071514
    89  H    0.129348
    90  H    0.100403
    91  H    0.130995
    92  H    0.078467
    93  H    0.077153
    94  H    0.067627
    95  H    0.057743
    96  H    0.068929
    97  H    0.065269
    98  H    0.125754
    99  H    0.124289
   100  H    0.112470
 Sum of Mulliken charges =  -0.00000

 Dipole moment (field-independent basis, Debye):
    X=             -2.3223    Y=             -0.3341    Z=             -2.6233  Tot=              3.5194
 Quadrupole moment (field-independent basis, Debye-Ang):
   XX=           -298.0611   YY=           -257.9262   ZZ=           -279.2003
   XY=            -10.1246   XZ=             30.3441   YZ=              1.5312

 Normal termination of Gaussian 16 at Mon Jul 29 13:10:13 2019.
