 Gaussian 16, Revision A.03,
 Gaussian 16:  ES64L-G16RevA.03 25-Dec-2016

 -------------------------------------
 # td=(NStates=1) CAM-B3LYP/6-31G(d,p)
 -------------------------------------

 --
 TD
 --
 Symbolic Z-matrix:
 Charge =  0 Multiplicity = 1

                         Standard orientation:
 ---------------------------------------------------------------------
 Center     Atomic      Atomic             Coordinates (Angstroms)
 Number     Number       Type             X           Y           Z
 ---------------------------------------------------------------------
      1          8           0      -11.781750    0.305717   -1.451063
      2          8           0      -13.146318   -2.518157    1.403300
      3          8           0       10.611578   -0.770494   -2.157407
      4          8           0       14.494283   -1.152320   -0.196320
      5          6           0      -11.058405   -0.224985   -0.282749
      6          6           0      -11.592077   -1.154141   -1.198912
      7          6           0      -11.802347    0.256565    0.989686
      8          6           0      -12.985784   -1.828284   -0.984274
      9          6           0      -13.248831   -0.153389    0.830735
     10          6           0      -13.556630   -1.518763    0.406428
     11          6           0      -10.833381   -1.956768   -2.210604
     12          6           0       -9.566948    0.179912   -0.408190
     13          6           0      -11.131485   -0.297720    2.311871
     14          6           0      -11.652129    1.830922    1.007318
     15          6           0       -8.607748   -0.669931    0.065501
     16          6           0       -7.149628   -0.473696    0.150788
     17          6           0       -6.333874   -1.733287    0.242686
     18          6           0       -6.643083    0.760413   -0.060405
     19          6           0       -5.314110    1.007353   -0.169844
     20          6           0       11.893990   -0.141071    1.410641
     21          6           0       11.705988   -0.465709   -1.224321
     22          6           0       12.555913   -1.472053    1.332812
     23          6           0       13.335396   -1.890445    0.127809
     24          6           0       12.481129   -1.870676   -1.087394
     25          6           0       11.169282    0.133429    0.055050
     26          6           0       11.105220    0.017722    2.703357
     27          6           0       12.969729    1.054167    1.424198
     28          6           0       12.521987    0.495647   -1.972246
     29          6           0       -4.738952    2.215427   -0.264475
     30          6           0        9.883324    0.405410    0.024736
     31          6           0       -3.411208    2.549142   -0.390710
     32          6           0        8.683863    0.981610   -0.004526
     33          6           0       -2.974917    3.993399   -0.677243
     34          6           0       -2.393401    1.591094   -0.237165
     35          6           0        7.444696    0.151287    0.070653
     36          6           0        7.632980   -1.316487    0.176619
     37          6           0        6.197302    0.840169    0.081301
     38          6           0       -0.979577    1.876021   -0.255089
     39          6           0        4.897644    0.215449    0.017965
     40          6           0        0.079289    0.979610   -0.194855
     41          6           0        3.826231    0.942687   -0.098299
     42          6           0        1.386762    1.281495   -0.243587
     43          6           0        2.507887    0.441726   -0.042832
     44          6           0        2.420878   -0.996499    0.407119
     45          1           0      -13.117599   -2.940520   -1.318055
     46          1           0      -13.713506   -1.354112   -1.659650
     47          1           0      -13.590929    0.019969    1.862972
     48          1           0      -13.839014    0.462062    0.020130
     49          1           0      -14.597123   -1.713939    0.309891
     50          1           0      -10.479117   -2.906878   -1.916316
     51          1           0      -11.506270   -2.044272   -3.158136
     52          1           0       -9.996219   -1.290177   -2.740005
     53          1           0       -9.305959    1.332873   -0.673213
     54          1           0      -10.043243    0.135649    2.314343
     55          1           0      -11.525040    0.036385    3.275215
     56          1           0      -11.171221   -1.316643    2.266351
     57          1           0      -12.121475    2.031028    0.206147
     58          1           0      -12.279774    2.209490    1.860662
     59          1           0      -10.697395    1.962203    1.469970
     60          1           0      -12.267004   -2.506201    1.324820
     61          1           0       -9.064537   -1.629636    0.095496
     62          1           0       -5.594317   -1.986594   -0.572656
     63          1           0       -5.711284   -2.018525    1.159080
     64          1           0       -6.978241   -2.759908   -0.019325
     65          1           0       -7.363645    1.740720    0.001713
     66          1           0       -4.521092    0.055936   -0.465019
     67          1           0       13.056119   -1.482441    2.343124
     68          1           0       11.594361   -2.053900    1.407208
     69          1           0       13.801716   -2.792703    0.056145
     70          1           0       12.898037   -2.069846   -1.906031
     71          1           0       11.632595   -2.590474   -0.823324
     72          1           0       11.688214    0.005756    3.518846
     73          1           0       10.461730    1.042457    2.921357
     74          1           0       10.381175   -0.833561    2.608346
     75          1           0       13.422037    1.150722    0.390242
     76          1           0       12.290623    1.966728    1.398745
     77          1           0       13.633564    0.808097    2.373514
     78          1           0       12.655398   -0.068953   -2.942018
     79          1           0       11.945834    1.389208   -2.111037
     80          1           0       13.380085    0.744274   -1.459207
     81          1           0       -5.383513    3.152832   -0.292119
     82          1           0       10.121445    0.172444   -2.166371
     83          1           0       15.217563   -1.374108    0.312143
     84          1           0        8.862048    2.048745   -0.198179
     85          1           0       -2.581314    4.365440    0.250255
     86          1           0       -2.235294    3.980009   -1.515467
     87          1           0       -3.826431    4.600899   -0.823334
     88          1           0       -2.763693    0.470740    0.013728
     89          1           0        6.472983   -1.838286    0.446044
     90          1           0        8.055600   -1.847368   -0.704936
     91          1           0        8.309879   -1.717544    1.084919
     92          1           0        6.254751    1.868351   -0.038382
     93          1           0       -0.773466    2.878958   -0.291798
     94          1           0        4.850006   -1.011432    0.193971
     95          1           0       -0.366144   -0.008131    0.000479
     96          1           0        3.857743    2.064166   -0.445538
     97          1           0        1.546858    2.338701   -0.493669
     98          1           0        1.498883   -1.238536   -0.175826
     99          1           0        3.325308   -1.729945   -0.092822
    100          1           0        2.427131   -1.048672    1.751177
 ---------------------------------------------------------------------

 SCF Done:  E(RCAM-B3LYP) =  -1857.22527970     A.U. after   15 cycles

 Excitation energies and oscillator strengths:

 Excited State   1:      Singlet-A      2.1491 eV  576.92 nm  f=3.0393  <S**2>=0.000
     163 ->166         0.13138
     164 ->165         0.69618
 This state for optimization and/or second-order correction.
 Total Energy, E(TD-HF/TD-DFT) =  -1857.14630215
 Copying the excited state density for this state as the 1-particle RhoCI density.

 The electronic state is 1-A.
 Alpha  occ. eigenvalues --  -19.21649 -19.20701 -19.20697 -19.19737 -10.32649
 Alpha  occ. eigenvalues --  -10.31979 -10.31044 -10.30325 -10.29761 -10.29159
 Alpha  occ. eigenvalues --  -10.29002 -10.28326 -10.28294 -10.28088 -10.27941
 Alpha  occ. eigenvalues --  -10.27669 -10.27660 -10.27501 -10.27497 -10.27309
 Alpha  occ. eigenvalues --  -10.27152 -10.27095 -10.27020 -10.27013 -10.26947
 Alpha  occ. eigenvalues --  -10.26734 -10.26707 -10.26669 -10.26500 -10.26392
 Alpha  occ. eigenvalues --  -10.26386 -10.26335 -10.26273 -10.26135 -10.25955
 Alpha  occ. eigenvalues --  -10.25902 -10.25887 -10.25864 -10.25562 -10.25077
 Alpha  occ. eigenvalues --  -10.24971 -10.24334 -10.23227 -10.22816  -1.13226
 Alpha  occ. eigenvalues --   -1.11523  -1.09885  -1.07078  -0.93627  -0.92813
 Alpha  occ. eigenvalues --   -0.92309  -0.90999  -0.90568  -0.90022  -0.88108
 Alpha  occ. eigenvalues --   -0.86875  -0.86767  -0.85833  -0.85162  -0.83425
 Alpha  occ. eigenvalues --   -0.82600  -0.81198  -0.80723  -0.78248  -0.77119
 Alpha  occ. eigenvalues --   -0.77026  -0.76851  -0.76601  -0.75850  -0.75198
 Alpha  occ. eigenvalues --   -0.74830  -0.74416  -0.72756  -0.70799  -0.70364
 Alpha  occ. eigenvalues --   -0.68702  -0.66937  -0.65959  -0.64301  -0.63886
 Alpha  occ. eigenvalues --   -0.63222  -0.62256  -0.60846  -0.59158  -0.59015
 Alpha  occ. eigenvalues --   -0.58952  -0.58294  -0.57841  -0.57479  -0.56641
 Alpha  occ. eigenvalues --   -0.56009  -0.55399  -0.55115  -0.54839  -0.53935
 Alpha  occ. eigenvalues --   -0.53513  -0.53146  -0.53024  -0.52327  -0.51849
 Alpha  occ. eigenvalues --   -0.51516  -0.51275  -0.50869  -0.50148  -0.50058
 Alpha  occ. eigenvalues --   -0.49977  -0.49265  -0.48757  -0.48620  -0.48045
 Alpha  occ. eigenvalues --   -0.47798  -0.47531  -0.47407  -0.47140  -0.46944
 Alpha  occ. eigenvalues --   -0.46593  -0.45986  -0.45544  -0.45201  -0.44840
 Alpha  occ. eigenvalues --   -0.44669  -0.44593  -0.44244  -0.44021  -0.43934
 Alpha  occ. eigenvalues --   -0.43408  -0.43254  -0.42752  -0.42545  -0.42184
 Alpha  occ. eigenvalues --   -0.42075  -0.41712  -0.41572  -0.41111  -0.40982
 Alpha  occ. eigenvalues --   -0.40799  -0.40595  -0.40204  -0.40090  -0.39703
 Alpha  occ. eigenvalues --   -0.39465  -0.39378  -0.38887  -0.38747  -0.38240
 Alpha  occ. eigenvalues --   -0.38167  -0.37492  -0.37336  -0.37165  -0.36531
 Alpha  occ. eigenvalues --   -0.36138  -0.35848  -0.35429  -0.34304  -0.34055
 Alpha  occ. eigenvalues --   -0.33116  -0.32340  -0.32198  -0.31828  -0.31348
 Alpha  occ. eigenvalues --   -0.29468  -0.28012  -0.24622  -0.19626
 Alpha virt. eigenvalues --   -0.06184  -0.00701   0.03300   0.06226   0.06840
 Alpha virt. eigenvalues --    0.08829   0.09847   0.10078   0.10818   0.11024
 Alpha virt. eigenvalues --    0.11567   0.12353   0.12678   0.13087   0.13494

 Mulliken charges:
               1
     1  O   -0.518755
     2  O   -0.541392
     3  O   -0.573026
     4  O   -0.556732
     5  C    0.187733
     6  C    0.254816
     7  C   -0.019639
     8  C   -0.224989
     9  C   -0.167897
    10  C    0.123154
    11  C   -0.353065
    12  C   -0.097271
    13  C   -0.308827
    14  C   -0.281865
    15  C   -0.089993
    16  C    0.108581
    17  C   -0.386717
    18  C   -0.102791
    19  C   -0.059734
    20  C   -0.000669
    21  C    0.200591
    22  C   -0.179259
    23  C    0.179273
    24  C   -0.147364
    25  C   -0.091767
    26  C   -0.285170
    27  C   -0.285346
    28  C   -0.278356
    29  C   -0.115882
    30  C    0.117460
    31  C    0.083573
    32  C   -0.243614
    33  C   -0.371586
    34  C   -0.119977
    35  C    0.099326
    36  C   -0.356121
    37  C   -0.103438
    38  C   -0.103970
    39  C   -0.077810
    40  C   -0.059654
    41  C   -0.082843
    42  C   -0.123029
    43  C    0.089139
    44  C   -0.333370
    45  H    0.105364
    46  H    0.128430
    47  H    0.105075
    48  H    0.100288
    49  H    0.103480
    50  H    0.125341
    51  H    0.110403
    52  H    0.114423
    53  H    0.094934
    54  H    0.100735
    55  H    0.112925
    56  H    0.087707
    57  H    0.130325
    58  H    0.087129
    59  H    0.111747
    60  H    0.289755
    61  H    0.074759
    62  H    0.123593
    63  H    0.126391
    64  H    0.082465
    65  H    0.086023
    66  H    0.078821
    67  H    0.083668
    68  H    0.099091
    69  H    0.087393
    70  H    0.099649
    71  H    0.103963
    72  H    0.115206
    73  H    0.093838
    74  H    0.098370
    75  H    0.114113
    76  H    0.095371
    77  H    0.075550
    78  H    0.111352
    79  H    0.079704
    80  H    0.130232
    81  H    0.072830
    82  H    0.297402
    83  H    0.297355
    84  H    0.120898
    85  H    0.134747
    86  H    0.130112
    87  H    0.108713
    88  H    0.068671
    89  H    0.064525
    90  H    0.151712
    91  H    0.105765
    92  H    0.081700
    93  H    0.073652
    94  H    0.076493
    95  H    0.078469
    96  H    0.075489
    97  H    0.082442
    98  H    0.118490
    99  H    0.092089
   100  H    0.099102
 Sum of Mulliken charges =  -0.00000

 Dipole moment (field-independent basis, Debye):
    X=              4.2580    Y=             -0.2409    Z=              1.5443  Tot=              4.5358
 Quadrupole moment (field-independent basis, Debye-Ang):
   XX=           -267.7676   YY=           -258.0991   ZZ=           -278.7004
   XY=            -11.4764   XZ=             32.9333   YZ=              1.8873

 Normal termination of Gaussian 16 at Wed Jul 31 21:57:20 2019.
