 Gaussian 16, Revision A.03,
 Gaussian 16:  ES64L-G16RevA.03 25-Dec-2016

 -------------------------------------
 # td=(NStates=1) CAM-B3LYP/6-31G(d,p)
 -------------------------------------

 --
 TD
 --
 Symbolic Z-matrix:
 Charge =  0 Multiplicity = 1

                         Standard orientation:
 ---------------------------------------------------------------------
 Center     Atomic      Atomic             Coordinates (Angstroms)
 Number     Number       Type             X           Y           Z
 ---------------------------------------------------------------------
      1          8           0      -11.662003    0.106610   -1.531814
      2          8           0      -13.049577   -2.497183    1.367694
      3          8           0       10.594678   -1.093128   -2.087458
      4          8           0       14.555934   -1.003452   -0.240290
      5          6           0      -10.965746   -0.187378   -0.307491
      6          6           0      -11.577682   -1.162818   -1.250294
      7          6           0      -11.840515    0.240258    0.916918
      8          6           0      -12.817742   -1.867174   -0.950725
      9          6           0      -13.351980   -0.123140    0.713784
     10          6           0      -13.568079   -1.557827    0.366821
     11          6           0      -10.645912   -1.970036   -2.255607
     12          6           0       -9.470918    0.089519   -0.335422
     13          6           0      -11.069094   -0.287137    2.187680
     14          6           0      -11.720365    1.787305    0.998093
     15          6           0       -8.571387   -0.629987    0.200281
     16          6           0       -7.171356   -0.423776    0.179582
     17          6           0       -6.247751   -1.507404    0.683091
     18          6           0       -6.598538    0.772364   -0.197247
     19          6           0       -5.297726    1.096308   -0.157942
     20          6           0       11.893049   -0.015570    1.297046
     21          6           0       11.654198   -0.690881   -1.243756
     22          6           0       12.648057   -1.324702    1.527687
     23          6           0       13.395756   -1.879024    0.208056
     24          6           0       12.426563   -1.939164   -0.913942
     25          6           0       11.011489    0.029671    0.018357
     26          6           0       10.983095    0.202253    2.502397
     27          6           0       12.851438    1.236845    1.304786
     28          6           0       12.432448    0.374425   -2.041753
     29          6           0       -4.764583    2.327447   -0.407091
     30          6           0        9.844436    0.542614   -0.010308
     31          6           0       -3.348009    2.641136   -0.462894
     32          6           0        8.667819    1.047213   -0.106562
     33          6           0       -2.950888    4.072768   -0.884965
     34          6           0       -2.372580    1.677110   -0.106099
     35          6           0        7.482423    0.118010    0.033751
     36          6           0        7.623122   -1.316332    0.249496
     37          6           0        6.210719    0.739321   -0.167492
     38          6           0       -1.029257    1.958905   -0.130762
     39          6           0        4.926452    0.081931   -0.046304
     40          6           0        0.012246    0.975715    0.019780
     41          6           0        3.717199    0.739412   -0.075319
     42          6           0        1.373478    1.203276   -0.017224
     43          6           0        2.406808    0.336872    0.068876
     44          6           0        2.188607   -1.167436    0.257853
     45          1           0      -12.769100   -2.913361   -1.117659
     46          1           0      -13.524434   -1.555302   -1.656307
     47          1           0      -13.854151   -0.050370    1.664673
     48          1           0      -13.657463    0.575218   -0.022072
     49          1           0      -14.584730   -1.680798    0.525821
     50          1           0      -10.407630   -3.038549   -2.070854
     51          1           0      -11.210485   -2.337495   -3.341380
     52          1           0       -9.922097   -1.291615   -2.503127
     53          1           0       -9.159403    1.006667   -0.887236
     54          1           0      -10.085893    0.316248    2.213850
     55          1           0      -11.649096    0.106011    3.204296
     56          1           0      -10.934327   -1.284281    2.306480
     57          1           0      -12.092805    2.133727    0.026968
     58          1           0      -12.253331    2.390910    1.886685
     59          1           0      -10.605406    2.023251    1.056731
     60          1           0      -12.214701   -3.068862    1.171064
     61          1           0       -8.923387   -1.589958    0.673484
     62          1           0       -5.561427   -2.005252   -0.136361
     63          1           0       -5.719408   -1.198369    1.611807
     64          1           0       -6.689346   -2.312613    1.162786
     65          1           0       -7.336728    1.559262   -0.395575
     66          1           0       -4.403829    0.283354   -0.006469
     67          1           0       13.353216   -1.542407    2.355162
     68          1           0       11.824440   -2.076049    1.711301
     69          1           0       13.783693   -2.972540    0.548701
     70          1           0       12.919968   -2.299631   -1.800433
     71          1           0       11.623932   -2.650278   -0.728236
     72          1           0       11.403464    0.449384    3.442394
     73          1           0       10.445578    1.077944    2.399854
     74          1           0       10.143679   -0.494337    2.601129
     75          1           0       13.390655    1.368591    0.326856
     76          1           0       12.194894    1.939405    1.211177
     77          1           0       13.589390    1.218617    2.265520
     78          1           0       12.365923   -0.093188   -2.992785
     79          1           0       11.716863    1.284502   -2.129770
     80          1           0       13.529447    0.707408   -1.500851
     81          1           0       -5.409426    3.126137   -0.444570
     82          1           0        9.792661   -0.556772   -2.239988
     83          1           0       15.113071   -0.555617    0.618806
     84          1           0        8.563938    2.091909   -0.180404
     85          1           0       -2.402810    4.559778   -0.116475
     86          1           0       -2.301111    4.057165   -1.640915
     87          1           0       -3.829207    4.609836   -1.249158
     88          1           0       -2.796230    0.709392    0.274591
     89          1           0        6.679774   -2.066680   -0.035313
     90          1           0        8.527034   -1.731199   -0.415465
     91          1           0        7.838161   -1.383877    1.331087
     92          1           0        6.344298    1.850294   -0.318781
     93          1           0       -0.504133    2.924325   -0.129398
     94          1           0        4.851516   -0.875015    0.118876
     95          1           0       -0.183467   -0.080538    0.112160
     96          1           0        3.514126    1.936227   -0.135921
     97          1           0        1.437678    2.285496   -0.072701
     98          1           0        1.040848   -1.286918    0.814132
     99          1           0        2.405125   -1.683994   -0.572290
    100          1           0        2.864148   -1.463311    1.148247
 ---------------------------------------------------------------------

 SCF Done:  E(RCAM-B3LYP) =  -1857.28651432     A.U. after   15 cycles

 Excitation energies and oscillator strengths:

 Excited State   1:      Singlet-A      2.0780 eV  596.64 nm  f=3.0229  <S**2>=0.000
     163 ->166         0.12961
     164 ->165         0.69703
 This state for optimization and/or second-order correction.
 Total Energy, E(TD-HF/TD-DFT) =  -1857.21014824
 Copying the excited state density for this state as the 1-particle RhoCI density.

 The electronic state is 1-A.
 Alpha  occ. eigenvalues --  -19.22932 -19.22598 -19.20626 -19.20243 -10.32666
 Alpha  occ. eigenvalues --  -10.32266 -10.32236 -10.32112 -10.30199 -10.28522
 Alpha  occ. eigenvalues --  -10.28491 -10.28235 -10.27816 -10.27721 -10.27527
 Alpha  occ. eigenvalues --  -10.27349 -10.27249 -10.26981 -10.26898 -10.26881
 Alpha  occ. eigenvalues --  -10.26829 -10.26821 -10.26757 -10.26617 -10.26583
 Alpha  occ. eigenvalues --  -10.26288 -10.26275 -10.26118 -10.26032 -10.26015
 Alpha  occ. eigenvalues --  -10.26003 -10.25972 -10.25932 -10.25868 -10.25621
 Alpha  occ. eigenvalues --  -10.25505 -10.24985 -10.24912 -10.24892 -10.24800
 Alpha  occ. eigenvalues --  -10.24724 -10.24422 -10.24353 -10.23153  -1.20274
 Alpha  occ. eigenvalues --   -1.09425  -1.06093  -1.04564  -0.93204  -0.93029
 Alpha  occ. eigenvalues --   -0.92493  -0.91152  -0.90512  -0.89927  -0.88016
 Alpha  occ. eigenvalues --   -0.86913  -0.86485  -0.85985  -0.84867  -0.83148
 Alpha  occ. eigenvalues --   -0.82151  -0.80788  -0.80581  -0.79050  -0.77416
 Alpha  occ. eigenvalues --   -0.77280  -0.76805  -0.76751  -0.75954  -0.75689
 Alpha  occ. eigenvalues --   -0.74689  -0.74409  -0.73246  -0.70791  -0.69883
 Alpha  occ. eigenvalues --   -0.69197  -0.67668  -0.65483  -0.64885  -0.64291
 Alpha  occ. eigenvalues --   -0.63201  -0.61905  -0.61310  -0.60423  -0.59745
 Alpha  occ. eigenvalues --   -0.59114  -0.59020  -0.58327  -0.57239  -0.56702
 Alpha  occ. eigenvalues --   -0.56081  -0.55578  -0.55056  -0.54734  -0.54544
 Alpha  occ. eigenvalues --   -0.53340  -0.53172  -0.52664  -0.51855  -0.51748
 Alpha  occ. eigenvalues --   -0.51426  -0.51233  -0.51021  -0.50752  -0.49933
 Alpha  occ. eigenvalues --   -0.49718  -0.49292  -0.49088  -0.49031  -0.49003
 Alpha  occ. eigenvalues --   -0.48736  -0.48550  -0.48041  -0.47544  -0.47151
 Alpha  occ. eigenvalues --   -0.46767  -0.46625  -0.45702  -0.45478  -0.45418
 Alpha  occ. eigenvalues --   -0.45048  -0.44535  -0.44461  -0.44392  -0.43442
 Alpha  occ. eigenvalues --   -0.43367  -0.43123  -0.42088  -0.41832  -0.41786
 Alpha  occ. eigenvalues --   -0.41732  -0.41536  -0.41316  -0.41274  -0.40935
 Alpha  occ. eigenvalues --   -0.40756  -0.40361  -0.40275  -0.40033  -0.39826
 Alpha  occ. eigenvalues --   -0.39698  -0.39081  -0.39069  -0.38620  -0.38443
 Alpha  occ. eigenvalues --   -0.38099  -0.37615  -0.37257  -0.37163  -0.36803
 Alpha  occ. eigenvalues --   -0.36685  -0.36191  -0.35436  -0.34867  -0.33554
 Alpha  occ. eigenvalues --   -0.32905  -0.32472  -0.32299  -0.31478  -0.30715
 Alpha  occ. eigenvalues --   -0.30214  -0.28074  -0.24457  -0.19439
 Alpha virt. eigenvalues --   -0.06463  -0.00984   0.03335   0.06836   0.07790
 Alpha virt. eigenvalues --    0.08335   0.09872   0.10355   0.11691   0.11769
 Alpha virt. eigenvalues --    0.12300   0.12689   0.13091   0.13261   0.14023

 Mulliken charges:
               1
     1  O   -0.476695
     2  O   -0.599577
     3  O   -0.594293
     4  O   -0.571283
     5  C    0.171539
     6  C    0.279755
     7  C    0.018660
     8  C   -0.237186
     9  C   -0.185013
    10  C    0.183944
    11  C   -0.317955
    12  C   -0.136553
    13  C   -0.277685
    14  C   -0.307056
    15  C   -0.039771
    16  C    0.083259
    17  C   -0.380750
    18  C   -0.115556
    19  C   -0.041245
    20  C    0.023337
    21  C    0.278388
    22  C   -0.203904
    23  C    0.158045
    24  C   -0.174881
    25  C   -0.145829
    26  C   -0.317154
    27  C   -0.283399
    28  C   -0.288247
    29  C   -0.121948
    30  C    0.236194
    31  C    0.067114
    32  C   -0.301116
    33  C   -0.371166
    34  C   -0.105061
    35  C    0.087624
    36  C   -0.372193
    37  C   -0.096569
    38  C   -0.105657
    39  C   -0.101108
    40  C   -0.082949
    41  C   -0.081505
    42  C   -0.112530
    43  C    0.107233
    44  C   -0.361864
    45  H    0.098429
    46  H    0.119512
    47  H    0.106890
    48  H    0.119361
    49  H    0.101149
    50  H    0.108574
    51  H    0.062342
    52  H    0.124874
    53  H    0.102781
    54  H    0.095409
    55  H    0.067851
    56  H    0.099402
    57  H    0.113561
    58  H    0.091718
    59  H    0.090908
    60  H    0.311438
    61  H    0.079715
    62  H    0.115148
    63  H    0.121388
    64  H    0.110852
    65  H    0.081505
    66  H    0.075805
    67  H    0.096254
    68  H    0.096383
    69  H    0.069979
    70  H    0.121982
    71  H    0.122143
    72  H    0.098748
    73  H    0.109522
    74  H    0.098536
    75  H    0.097901
    76  H    0.113472
    77  H    0.079111
    78  H    0.119501
    79  H    0.073130
    80  H    0.115856
    81  H    0.079187
    82  H    0.318034
    83  H    0.308016
    84  H    0.118101
    85  H    0.129374
    86  H    0.138979
    87  H    0.109215
    88  H    0.094429
    89  H    0.100808
    90  H    0.115265
    91  H    0.133158
    92  H    0.079623
    93  H    0.086319
    94  H    0.069780
    95  H    0.062011
    96  H    0.057107
    97  H    0.066971
    98  H    0.081785
    99  H    0.141645
   100  H    0.111674
 Sum of Mulliken charges =  -0.00000

 Dipole moment (field-independent basis, Debye):
    X=              0.8227    Y=             -0.2552    Z=              2.0344  Tot=              2.2092
 Quadrupole moment (field-independent basis, Debye-Ang):
   XX=           -293.3511   YY=           -255.6254   ZZ=           -279.3665
   XY=             10.5875   XZ=             38.2272   YZ=             -1.6444

 Normal termination of Gaussian 16 at Mon Jul 29 10:32:16 2019.
