 Gaussian 16, Revision A.03,
 Gaussian 16:  ES64L-G16RevA.03 25-Dec-2016

 -------------------------------------
 # td=(NStates=1) CAM-B3LYP/6-31G(d,p)
 -------------------------------------

 --
 TD
 --
 Symbolic Z-matrix:
 Charge =  0 Multiplicity = 1

                         Standard orientation:
 ---------------------------------------------------------------------
 Center     Atomic      Atomic             Coordinates (Angstroms)
 Number     Number       Type             X           Y           Z
 ---------------------------------------------------------------------
      1          8           0      -11.761478    0.350319   -1.437482
      2          8           0      -13.070138   -2.509929    1.275811
      3          8           0       10.682183   -1.086518   -2.034016
      4          8           0       14.537853   -1.188646   -0.000872
      5          6           0      -11.085544   -0.111697   -0.255324
      6          6           0      -11.805568   -1.081666   -1.183699
      7          6           0      -11.801516    0.296054    1.120590
      8          6           0      -13.134904   -1.608567   -0.978589
      9          6           0      -13.315324   -0.061732    0.958300
     10          6           0      -13.559256   -1.492389    0.594793
     11          6           0      -10.982233   -1.752978   -2.289613
     12          6           0       -9.609434    0.062700   -0.387297
     13          6           0      -11.099170   -0.223042    2.205736
     14          6           0      -11.620818    1.939243    1.101128
     15          6           0       -8.645268   -0.740660    0.075501
     16          6           0       -7.245011   -0.666431    0.142709
     17          6           0       -6.424674   -1.894426    0.452576
     18          6           0       -6.645463    0.539306   -0.100015
     19          6           0       -5.185386    0.739673   -0.199490
     20          6           0       11.906468    0.084741    1.353496
     21          6           0       11.690703   -0.636732   -1.241710
     22          6           0       12.588468   -1.232146    1.594862
     23          6           0       13.425269   -1.887630    0.378357
     24          6           0       12.414688   -1.960305   -0.810968
     25          6           0       11.130485    0.121883   -0.008303
     26          6           0       11.118463    0.297669    2.569803
     27          6           0       12.925526    1.269843    1.307083
     28          6           0       12.679031    0.206052   -2.123166
     29          6           0       -4.725679    2.063967   -0.457304
     30          6           0        9.927794    0.548066    0.024444
     31          6           0       -3.404323    2.442181   -0.500203
     32          6           0        8.678923    1.099120   -0.159172
     33          6           0       -3.076461    3.941573   -0.534082
     34          6           0       -2.316405    1.541909   -0.437256
     35          6           0        7.409908    0.275692    0.098942
     36          6           0        7.595158   -1.220028    0.136954
     37          6           0        6.233880    0.860538   -0.215033
     38          6           0       -0.964841    1.851054   -0.371073
     39          6           0        5.003359    0.261025   -0.121359
     40          6           0        0.018588    0.963571   -0.254092
     41          6           0        3.774897    0.972611   -0.154759
     42          6           0        1.419902    1.267073   -0.115246
     43          6           0        2.534949    0.356619   -0.033455
     44          6           0        2.367930   -0.986498    0.221698
     45          1           0      -13.178815   -2.731264   -1.076258
     46          1           0      -13.841272   -0.956816   -1.842482
     47          1           0      -13.902793    0.106150    1.945126
     48          1           0      -13.679275    0.529394    0.173964
     49          1           0      -14.653527   -1.560767    0.792057
     50          1           0      -10.416277   -2.648051   -1.801944
     51          1           0      -11.565710   -1.922224   -3.176988
     52          1           0      -10.128000   -1.179616   -2.589509
     53          1           0       -9.490809    1.029222   -0.735497
     54          1           0       -9.922519   -0.086273    2.193114
     55          1           0      -11.506043    0.230429    3.268671
     56          1           0      -11.120859   -1.349462    2.230659
     57          1           0      -11.737158    2.239886    0.056749
     58          1           0      -12.472209    2.250399    1.943570
     59          1           0      -10.495938    2.010394    1.411379
     60          1           0      -12.011702   -2.719375    1.238338
     61          1           0       -9.001471   -1.758672    0.579173
     62          1           0       -5.433034   -2.203321   -0.313387
     63          1           0       -5.916719   -1.779286    1.605933
     64          1           0       -7.173731   -2.749355    0.454850
     65          1           0       -7.150355    1.481341   -0.447885
     66          1           0       -4.501968   -0.109655   -0.190364
     67          1           0       13.411016   -1.207211    2.276996
     68          1           0       11.783408   -2.000545    1.853623
     69          1           0       13.567135   -2.926821    0.625699
     70          1           0       13.247915   -2.412711   -1.475025
     71          1           0       11.637449   -2.783864   -0.820043
     72          1           0       11.724906   -0.017212    3.524882
     73          1           0       10.740230    1.325943    2.709199
     74          1           0       10.321440   -0.380406    2.630483
     75          1           0       13.966773    1.027100    0.693323
     76          1           0       12.421517    2.116261    0.857635
     77          1           0       13.301674    1.400152    2.467994
     78          1           0       12.918008   -0.472058   -3.093907
     79          1           0       12.169591    1.181312   -2.265797
     80          1           0       13.551491    0.447303   -1.668279
     81          1           0       -5.653479    2.794700   -0.495797
     82          1           0       10.122024   -0.281206   -2.418432
     83          1           0       15.027497   -0.944587    0.823431
     84          1           0        8.498371    2.099313   -0.374352
     85          1           0       -2.675520    4.314285    0.322703
     86          1           0       -2.245749    4.035660   -1.355141
     87          1           0       -4.171441    4.317828   -0.823058
     88          1           0       -2.542734    0.471623   -0.293288
     89          1           0        6.651150   -1.753401   -0.283708
     90          1           0        8.238239   -1.548554   -0.512281
     91          1           0        7.942991   -1.566312    1.239212
     92          1           0        6.409319    1.912844   -0.361750
     93          1           0       -0.800558    2.874106   -0.421254
     94          1           0        4.850166   -0.830942   -0.124001
     95          1           0       -0.049000   -0.041943   -0.038559
     96          1           0        3.793862    1.886017   -0.496227
     97          1           0        1.783339    2.276738   -0.205725
     98          1           0        1.336855   -1.385251    0.262762
     99          1           0        2.803728   -1.838338   -0.506399
    100          1           0        2.928558   -1.406115    1.163698
 ---------------------------------------------------------------------

 SCF Done:  E(RCAM-B3LYP) =  -1857.26851565     A.U. after   15 cycles

 Excitation energies and oscillator strengths:

 Excited State   1:      Singlet-A      2.0262 eV  611.90 nm  f=3.0670  <S**2>=0.000
     163 ->166        -0.13718
     164 ->165         0.69583
 This state for optimization and/or second-order correction.
 Total Energy, E(TD-HF/TD-DFT) =  -1857.19405296
 Copying the excited state density for this state as the 1-particle RhoCI density.

 The electronic state is 1-A.
 Alpha  occ. eigenvalues --  -19.23590 -19.23005 -19.21961 -19.21392 -10.32456
 Alpha  occ. eigenvalues --  -10.31896 -10.31194 -10.30927 -10.30594 -10.29913
 Alpha  occ. eigenvalues --  -10.27932 -10.27899 -10.27845 -10.27656 -10.27602
 Alpha  occ. eigenvalues --  -10.27545 -10.27457 -10.27343 -10.27339 -10.27289
 Alpha  occ. eigenvalues --  -10.27217 -10.27126 -10.27075 -10.27061 -10.27053
 Alpha  occ. eigenvalues --  -10.26801 -10.26653 -10.26626 -10.26533 -10.26492
 Alpha  occ. eigenvalues --  -10.26200 -10.26130 -10.26091 -10.25889 -10.25793
 Alpha  occ. eigenvalues --  -10.25700 -10.25471 -10.25407 -10.25348 -10.24947
 Alpha  occ. eigenvalues --  -10.24744 -10.24655 -10.24592 -10.24408  -1.14019
 Alpha  occ. eigenvalues --   -1.12572  -1.11805  -1.10848  -0.93295  -0.93076
 Alpha  occ. eigenvalues --   -0.92354  -0.91556  -0.90637  -0.90273  -0.87942
 Alpha  occ. eigenvalues --   -0.85995  -0.85751  -0.84939  -0.84497  -0.82835
 Alpha  occ. eigenvalues --   -0.81879  -0.80649  -0.79878  -0.78840  -0.77310
 Alpha  occ. eigenvalues --   -0.76934  -0.75698  -0.75618  -0.75541  -0.75110
 Alpha  occ. eigenvalues --   -0.74528  -0.73618  -0.72965  -0.70408  -0.70053
 Alpha  occ. eigenvalues --   -0.69030  -0.67211  -0.65551  -0.64532  -0.64074
 Alpha  occ. eigenvalues --   -0.62609  -0.62561  -0.61759  -0.60710  -0.60057
 Alpha  occ. eigenvalues --   -0.59431  -0.58941  -0.58312  -0.57916  -0.56835
 Alpha  occ. eigenvalues --   -0.56213  -0.55349  -0.54809  -0.54702  -0.54462
 Alpha  occ. eigenvalues --   -0.53842  -0.53244  -0.53156  -0.52941  -0.52049
 Alpha  occ. eigenvalues --   -0.51838  -0.51626  -0.50279  -0.49506  -0.49492
 Alpha  occ. eigenvalues --   -0.49302  -0.48936  -0.48536  -0.48509  -0.48445
 Alpha  occ. eigenvalues --   -0.48189  -0.48101  -0.47508  -0.47211  -0.46922
 Alpha  occ. eigenvalues --   -0.46431  -0.46333  -0.46181  -0.45573  -0.44872
 Alpha  occ. eigenvalues --   -0.44794  -0.44535  -0.44395  -0.44069  -0.43864
 Alpha  occ. eigenvalues --   -0.43722  -0.43303  -0.42834  -0.42697  -0.42563
 Alpha  occ. eigenvalues --   -0.42025  -0.41956  -0.41755  -0.41483  -0.41305
 Alpha  occ. eigenvalues --   -0.41245  -0.40692  -0.40620  -0.40415  -0.39934
 Alpha  occ. eigenvalues --   -0.39878  -0.39512  -0.39255  -0.38703  -0.38568
 Alpha  occ. eigenvalues --   -0.38496  -0.37947  -0.37768  -0.37555  -0.36621
 Alpha  occ. eigenvalues --   -0.35843  -0.34487  -0.34239  -0.33977  -0.33527
 Alpha  occ. eigenvalues --   -0.32621  -0.32208  -0.31320  -0.30965  -0.30754
 Alpha  occ. eigenvalues --   -0.29606  -0.28011  -0.24227  -0.19475
 Alpha virt. eigenvalues --   -0.06684  -0.01331   0.03048   0.05975   0.06662
 Alpha virt. eigenvalues --    0.07323   0.09349   0.09513   0.10751   0.11170
 Alpha virt. eigenvalues --    0.11903   0.11983   0.12699   0.12786   0.12825

 Mulliken charges:
               1
     1  O   -0.516537
     2  O   -0.529139
     3  O   -0.561577
     4  O   -0.519859
     5  C    0.164445
     6  C    0.239293
     7  C    0.051320
     8  C   -0.235771
     9  C   -0.195802
    10  C    0.188573
    11  C   -0.314651
    12  C   -0.094078
    13  C   -0.285917
    14  C   -0.312854
    15  C   -0.076346
    16  C    0.105704
    17  C   -0.346024
    18  C   -0.119968
    19  C   -0.060222
    20  C    0.040361
    21  C    0.291520
    22  C   -0.198896
    23  C    0.147198
    24  C   -0.213857
    25  C   -0.107010
    26  C   -0.298942
    27  C   -0.295231
    28  C   -0.304081
    29  C   -0.139788
    30  C    0.158491
    31  C    0.073836
    32  C   -0.261707
    33  C   -0.357379
    34  C   -0.097422
    35  C    0.090077
    36  C   -0.355660
    37  C   -0.082412
    38  C   -0.054524
    39  C   -0.105916
    40  C   -0.066014
    41  C   -0.108974
    42  C   -0.154108
    43  C    0.189092
    44  C   -0.427864
    45  H    0.104432
    46  H    0.090774
    47  H    0.077740
    48  H    0.127932
    49  H    0.091018
    50  H    0.079562
    51  H    0.114848
    52  H    0.126219
    53  H    0.100787
    54  H    0.104229
    55  H    0.084511
    56  H    0.061642
    57  H    0.134855
    58  H    0.088407
    59  H    0.095033
    60  H    0.316928
    61  H    0.047664
    62  H    0.096861
    63  H    0.102098
    64  H    0.106548
    65  H    0.089596
    66  H    0.092359
    67  H    0.074880
    68  H    0.093620
    69  H    0.082575
    70  H    0.099431
    71  H    0.110372
    72  H    0.087935
    73  H    0.103924
    74  H    0.110237
    75  H    0.082692
    76  H    0.115468
    77  H    0.075258
    78  H    0.102231
    79  H    0.076892
    80  H    0.133767
    81  H    0.085960
    82  H    0.310698
    83  H    0.315244
    84  H    0.107344
    85  H    0.143374
    86  H    0.111270
    87  H    0.096052
    88  H    0.067964
    89  H    0.091767
    90  H    0.148821
    91  H    0.095773
    92  H    0.075540
    93  H    0.074323
    94  H    0.090319
    95  H    0.071922
    96  H    0.074077
    97  H    0.072299
    98  H    0.117048
    99  H    0.102457
   100  H    0.123038
 Sum of Mulliken charges =  -0.00000

 Dipole moment (field-independent basis, Debye):
    X=              4.2091    Y=             -0.3907    Z=              1.8533  Tot=              4.6156
 Quadrupole moment (field-independent basis, Debye-Ang):
   XX=           -289.3008   YY=           -263.7493   ZZ=           -278.2057
   XY=              5.7363   XZ=             19.4559   YZ=             -4.1850

 Normal termination of Gaussian 16 at Tue Jul 30 14:20:00 2019.
