 Gaussian 16, Revision A.03,
 Gaussian 16:  ES64L-G16RevA.03 25-Dec-2016

 -------------------------------------
 # td=(NStates=1) CAM-B3LYP/6-31G(d,p)
 -------------------------------------

 --
 TD
 --
 Symbolic Z-matrix:
 Charge =  0 Multiplicity = 1

                         Standard orientation:
 ---------------------------------------------------------------------
 Center     Atomic      Atomic             Coordinates (Angstroms)
 Number     Number       Type             X           Y           Z
 ---------------------------------------------------------------------
      1          8           0      -11.918514    0.378612   -1.432990
      2          8           0      -12.946252   -2.500448    1.351859
      3          8           0       10.678680   -0.984556   -2.081731
      4          8           0       14.521670   -0.954893   -0.151318
      5          6           0      -11.116614   -0.038766   -0.414842
      6          6           0      -11.795019   -0.968828   -1.294647
      7          6           0      -11.758612    0.214181    1.081487
      8          6           0      -13.107753   -1.687230   -0.934486
      9          6           0      -13.218900   -0.138839    1.057323
     10          6           0      -13.574955   -1.557701    0.461528
     11          6           0      -10.978709   -1.659211   -2.321306
     12          6           0       -9.637317    0.159892   -0.443468
     13          6           0      -11.041563   -0.426505    2.212703
     14          6           0      -11.624465    1.826967    1.328028
     15          6           0       -8.709721   -0.641226    0.006770
     16          6           0       -7.251199   -0.496661    0.108737
     17          6           0       -6.511466   -1.751149    0.367312
     18          6           0       -6.653218    0.726093   -0.205077
     19          6           0       -5.263005    0.908305   -0.256224
     20          6           0       11.922362   -0.109821    1.389162
     21          6           0       11.682696   -0.414718   -1.236690
     22          6           0       12.626755   -1.369014    1.390842
     23          6           0       13.437880   -1.803872    0.219479
     24          6           0       12.419558   -1.786841   -0.931457
     25          6           0       11.027375    0.022587    0.109334
     26          6           0       11.026752   -0.001089    2.645204
     27          6           0       13.018227    0.989540    1.522002
     28          6           0       12.510557    0.652736   -1.831467
     29          6           0       -4.685820    2.181119   -0.327689
     30          6           0        9.824452    0.565752    0.072065
     31          6           0       -3.271334    2.454777   -0.380631
     32          6           0        8.687747    1.027359   -0.020026
     33          6           0       -3.045462    3.977502   -0.382148
     34          6           0       -2.243046    1.469626   -0.280010
     35          6           0        7.457507    0.221955    0.009015
     36          6           0        7.659771   -1.316553    0.065904
     37          6           0        6.194800    0.765953   -0.108808
     38          6           0       -0.906071    1.929687   -0.397733
     39          6           0        4.930668    0.133536    0.021819
     40          6           0        0.087942    0.875641   -0.328175
     41          6           0        3.809513    0.817093   -0.114616
     42          6           0        1.474919    1.244586   -0.159589
     43          6           0        2.535971    0.318873   -0.102313
     44          6           0        2.266169   -1.247076   -0.146635
     45          1           0      -13.054060   -2.776807   -1.135551
     46          1           0      -13.819965   -1.287175   -1.747329
     47          1           0      -13.500120   -0.140150    2.180705
     48          1           0      -13.792621    0.527259    0.479289
     49          1           0      -14.663757   -1.600026    0.438369
     50          1           0      -10.570369   -2.471961   -1.777158
     51          1           0      -11.533853   -2.097823   -3.111661
     52          1           0      -10.284918   -1.181266   -2.908618
     53          1           0       -9.304351    1.150849   -0.865777
     54          1           0       -9.979298   -0.251195    2.404773
     55          1           0      -11.705443   -0.372175    3.153598
     56          1           0      -10.752352   -1.573177    2.193974
     57          1           0      -11.744609    2.256054    0.404661
     58          1           0      -11.977378    2.309024    2.256148
     59          1           0      -10.484185    2.174325    1.691241
     60          1           0      -12.056337   -2.636466    1.142894
     61          1           0       -9.101863   -1.611390    0.607794
     62          1           0       -5.891230   -1.937668   -0.529942
     63          1           0       -5.709506   -1.686688    1.429020
     64          1           0       -7.281901   -2.649268    0.422346
     65          1           0       -7.312340    1.484752   -0.175144
     66          1           0       -4.582414    0.038937   -0.443800
     67          1           0       13.273253   -1.428808    2.378741
     68          1           0       11.959096   -2.248671    1.662384
     69          1           0       13.666383   -2.902849    0.315413
     70          1           0       13.080615   -2.086441   -1.850020
     71          1           0       11.559350   -2.423106   -0.797764
     72          1           0       11.755182    0.197300    3.497687
     73          1           0       10.251793    0.920304    2.337499
     74          1           0       10.439301   -1.079975    2.641753
     75          1           0       13.618627    0.753275    0.609270
     76          1           0       12.520329    2.079311    1.384026
     77          1           0       13.681250    0.914558    2.265846
     78          1           0       12.974797    0.416028   -2.869365
     79          1           0       12.087955    1.462197   -1.881441
     80          1           0       13.334319    0.634400   -1.394223
     81          1           0       -5.534576    2.892870   -0.079936
     82          1           0        9.845452   -0.167155   -2.034955
     83          1           0       15.289309   -1.167702    0.433309
     84          1           0        8.539783    2.029698   -0.445577
     85          1           0       -2.276123    4.377454    0.406570
     86          1           0       -2.684507    4.211144   -1.268159
     87          1           0       -3.742779    4.521394   -0.301138
     88          1           0       -2.489897    0.588589   -0.211962
     89          1           0        6.770445   -1.836189   -0.178573
     90          1           0        8.552805   -1.541395   -0.539758
     91          1           0        7.827473   -1.508302    1.098527
     92          1           0        6.329634    1.852139   -0.186815
     93          1           0       -0.708817    3.027037   -0.526990
     94          1           0        4.923649   -0.969821    0.201003
     95          1           0       -0.194153   -0.320862   -0.219095
     96          1           0        3.816300    1.972876   -0.302641
     97          1           0        1.843352    2.234290   -0.139662
     98          1           0        1.249307   -1.472556   -0.270619
     99          1           0        2.853323   -1.786189   -0.891724
    100          1           0        2.761730   -1.734499    0.857939
 ---------------------------------------------------------------------

 SCF Done:  E(RCAM-B3LYP) =  -1857.19958705     A.U. after   15 cycles

 Excitation energies and oscillator strengths:

 Excited State   1:      Singlet-A      2.1449 eV  578.05 nm  f=2.9183  <S**2>=0.000
     163 ->166         0.12936
     164 ->165         0.69701
 This state for optimization and/or second-order correction.
 Total Energy, E(TD-HF/TD-DFT) =  -1857.12076463
 Copying the excited state density for this state as the 1-particle RhoCI density.

 The electronic state is 1-A.
 Alpha  occ. eigenvalues --  -19.23369 -19.23288 -19.21515 -19.20332 -10.32209
 Alpha  occ. eigenvalues --  -10.31780 -10.31216 -10.31164 -10.30795 -10.28950
 Alpha  occ. eigenvalues --  -10.28704 -10.28325 -10.28300 -10.28032 -10.27822
 Alpha  occ. eigenvalues --  -10.27394 -10.27336 -10.27266 -10.27253 -10.27249
 Alpha  occ. eigenvalues --  -10.26998 -10.26973 -10.26919 -10.26770 -10.26744
 Alpha  occ. eigenvalues --  -10.26583 -10.26504 -10.26446 -10.26244 -10.26187
 Alpha  occ. eigenvalues --  -10.25945 -10.25785 -10.25712 -10.25617 -10.25498
 Alpha  occ. eigenvalues --  -10.25490 -10.25350 -10.24781 -10.24608 -10.24114
 Alpha  occ. eigenvalues --  -10.23844 -10.23611 -10.23382 -10.20748  -1.20824
 Alpha  occ. eigenvalues --   -1.10752  -1.09446  -1.06776  -0.93378  -0.92314
 Alpha  occ. eigenvalues --   -0.92118  -0.91105  -0.90627  -0.89799  -0.87459
 Alpha  occ. eigenvalues --   -0.87072  -0.86199  -0.85397  -0.84921  -0.83613
 Alpha  occ. eigenvalues --   -0.82889  -0.81665  -0.81519  -0.78914  -0.77895
 Alpha  occ. eigenvalues --   -0.76802  -0.76373  -0.76278  -0.75412  -0.75199
 Alpha  occ. eigenvalues --   -0.74342  -0.74025  -0.73273  -0.70678  -0.69841
 Alpha  occ. eigenvalues --   -0.68819  -0.66944  -0.65939  -0.64388  -0.64026
 Alpha  occ. eigenvalues --   -0.63326  -0.62218  -0.61365  -0.60444  -0.59875
 Alpha  occ. eigenvalues --   -0.59534  -0.59005  -0.58210  -0.57346  -0.56165
 Alpha  occ. eigenvalues --   -0.55989  -0.55881  -0.55542  -0.55228  -0.54831
 Alpha  occ. eigenvalues --   -0.54232  -0.53380  -0.53116  -0.52810  -0.52432
 Alpha  occ. eigenvalues --   -0.51645  -0.51369  -0.51138  -0.50667  -0.50309
 Alpha  occ. eigenvalues --   -0.49835  -0.49016  -0.48796  -0.48744  -0.48414
 Alpha  occ. eigenvalues --   -0.48000  -0.47441  -0.47237  -0.47173  -0.47027
 Alpha  occ. eigenvalues --   -0.46634  -0.46500  -0.46103  -0.45961  -0.45389
 Alpha  occ. eigenvalues --   -0.45237  -0.45107  -0.44765  -0.44454  -0.43995
 Alpha  occ. eigenvalues --   -0.43936  -0.43671  -0.43213  -0.42987  -0.42495
 Alpha  occ. eigenvalues --   -0.42281  -0.41880  -0.41698  -0.41293  -0.40502
 Alpha  occ. eigenvalues --   -0.40470  -0.40395  -0.40205  -0.39656  -0.39632
 Alpha  occ. eigenvalues --   -0.39555  -0.39313  -0.39062  -0.38857  -0.38666
 Alpha  occ. eigenvalues --   -0.38423  -0.37833  -0.37340  -0.36802  -0.36704
 Alpha  occ. eigenvalues --   -0.36228  -0.35837  -0.35263  -0.34962  -0.34010
 Alpha  occ. eigenvalues --   -0.32752  -0.32648  -0.32358  -0.31395  -0.30346
 Alpha  occ. eigenvalues --   -0.29710  -0.28147  -0.24624  -0.19495
 Alpha virt. eigenvalues --   -0.06036  -0.00696   0.03573   0.05713   0.07106
 Alpha virt. eigenvalues --    0.09752   0.09823   0.10099   0.10833   0.11557
 Alpha virt. eigenvalues --    0.12021   0.12763   0.13273   0.13540   0.14072

 Mulliken charges:
               1
     1  O   -0.476973
     2  O   -0.547144
     3  O   -0.562040
     4  O   -0.539366
     5  C    0.187366
     6  C    0.236865
     7  C    0.049683
     8  C   -0.225891
     9  C   -0.174219
    10  C    0.156458
    11  C   -0.334639
    12  C   -0.111240
    13  C   -0.299880
    14  C   -0.317167
    15  C   -0.076762
    16  C    0.092913
    17  C   -0.359801
    18  C   -0.098135
    19  C   -0.069196
    20  C    0.017851
    21  C    0.230954
    22  C   -0.170705
    23  C    0.134143
    24  C   -0.190523
    25  C   -0.068133
    26  C   -0.270828
    27  C   -0.298714
    28  C   -0.263548
    29  C   -0.132628
    30  C    0.213083
    31  C    0.032496
    32  C   -0.359532
    33  C   -0.335334
    34  C   -0.024461
    35  C    0.065226
    36  C   -0.365624
    37  C   -0.102098
    38  C   -0.088676
    39  C   -0.101951
    40  C   -0.117969
    41  C   -0.097379
    42  C   -0.118956
    43  C    0.119704
    44  C   -0.358635
    45  H    0.109919
    46  H    0.112312
    47  H    0.092103
    48  H    0.103262
    49  H    0.105778
    50  H    0.108913
    51  H    0.104694
    52  H    0.125302
    53  H    0.094160
    54  H    0.114359
    55  H    0.105333
    56  H    0.053787
    57  H    0.128108
    58  H    0.115373
    59  H    0.058680
    60  H    0.299044
    61  H    0.052527
    62  H    0.133384
    63  H    0.086486
    64  H    0.100601
    65  H    0.080813
    66  H    0.083407
    67  H    0.057949
    68  H    0.090626
    69  H    0.090653
    70  H    0.091995
    71  H    0.126799
    72  H    0.098014
    73  H    0.093314
    74  H    0.076898
    75  H    0.129264
    76  H    0.074835
    77  H    0.102515
    78  H    0.089733
    79  H    0.094008
    80  H    0.141827
    81  H    0.088324
    82  H    0.286407
    83  H    0.316062
    84  H    0.113421
    85  H    0.097306
    86  H    0.133336
    87  H    0.103829
    88  H    0.045994
    89  H    0.107244
    90  H    0.127575
    91  H    0.126840
    92  H    0.070086
    93  H    0.108277
    94  H    0.088815
    95  H    0.089885
    96  H    0.078301
    97  H    0.081510
    98  H    0.108635
    99  H    0.127585
   100  H    0.095201
 Sum of Mulliken charges =  -0.00000

 Dipole moment (field-independent basis, Debye):
    X=              2.1117    Y=             -0.1977    Z=              0.7670  Tot=              2.2554
 Quadrupole moment (field-independent basis, Debye-Ang):
   XX=           -261.2324   YY=           -258.0236   ZZ=           -281.3457
   XY=             -5.1551   XZ=             34.5989   YZ=             -1.2611

 Normal termination of Gaussian 16 at Thu Aug  1 11:04:38 2019.
