 Gaussian 16, Revision A.03,
 Gaussian 16:  ES64L-G16RevA.03 25-Dec-2016

 -------------------------------------
 # td=(NStates=1) CAM-B3LYP/6-31G(d,p)
 -------------------------------------

 --
 TD
 --
 Symbolic Z-matrix:
 Charge =  0 Multiplicity = 1

                         Standard orientation:
 ---------------------------------------------------------------------
 Center     Atomic      Atomic             Coordinates (Angstroms)
 Number     Number       Type             X           Y           Z
 ---------------------------------------------------------------------
      1          8           0      -11.719320    0.073671   -1.581320
      2          8           0      -12.862457   -2.361395    1.537337
      3          8           0       10.541947   -0.940108   -2.127843
      4          8           0       14.485770   -1.128674   -0.375519
      5          6           0      -11.114520   -0.102898   -0.266082
      6          6           0      -11.677121   -1.329457   -1.135770
      7          6           0      -11.966278    0.414365    0.872005
      8          6           0      -12.983918   -1.850977   -0.814849
      9          6           0      -13.393249   -0.031567    0.805153
     10          6           0      -13.591200   -1.579100    0.594300
     11          6           0      -10.765777   -2.080204   -2.054468
     12          6           0       -9.618145    0.125423   -0.341696
     13          6           0      -11.308407    0.173423    2.318325
     14          6           0      -11.945368    1.954235    0.793682
     15          6           0       -8.644111   -0.744299    0.048725
     16          6           0       -7.229373   -0.690235   -0.040410
     17          6           0       -6.360188   -1.880485    0.287627
     18          6           0       -6.665257    0.591072   -0.202234
     19          6           0       -5.275509    0.828528   -0.162902
     20          6           0       12.020110   -0.016386    1.313435
     21          6           0       11.641761   -0.577434   -1.255195
     22          6           0       12.668078   -1.475070    1.426870
     23          6           0       13.340511   -1.961635    0.101884
     24          6           0       12.343354   -1.868576   -1.034833
     25          6           0       11.074399    0.003376    0.078770
     26          6           0       11.228900    0.164431    2.522466
     27          6           0       13.054142    1.132384    1.238540
     28          6           0       12.517371    0.448005   -2.035019
     29          6           0       -4.704188    2.056926   -0.447921
     30          6           0        9.919731    0.461093    0.150173
     31          6           0       -3.242253    2.526483   -0.412188
     32          6           0        8.730677    1.018701    0.071491
     33          6           0       -3.140773    3.927288   -0.828907
     34          6           0       -2.231846    1.566443   -0.250690
     35          6           0        7.525783    0.206150    0.205539
     36          6           0        7.626079   -1.200369    0.498938
     37          6           0        6.295866    0.786268    0.010526
     38          6           0       -0.951764    1.895892   -0.253521
     39          6           0        5.008010    0.185579    0.182478
     40          6           0        0.098918    1.060990   -0.170351
     41          6           0        3.794373    0.880371   -0.015104
     42          6           0        1.426008    1.362066   -0.236978
     43          6           0        2.527104    0.476597   -0.041436
     44          6           0        2.352911   -0.913330    0.331093
     45          1           0      -13.070558   -3.033173   -0.982157
     46          1           0      -13.557471   -1.521655   -1.737986
     47          1           0      -13.877614    0.171659    1.703957
     48          1           0      -13.842717    0.387736   -0.035245
     49          1           0      -14.665194   -1.659073    0.584137
     50          1           0      -10.440821   -3.184224   -1.776637
     51          1           0      -11.098570   -2.077716   -3.221441
     52          1           0       -9.735323   -1.677495   -2.296763
     53          1           0       -9.120618    0.900379   -0.771946
     54          1           0      -10.130221    0.236242    2.012312
     55          1           0      -11.552288    0.908742    3.196243
     56          1           0      -11.603878   -0.904287    2.757781
     57          1           0      -12.344778    2.296109   -0.248828
     58          1           0      -12.726245    2.358356    1.535191
     59          1           0      -11.025663    2.448633    1.092152
     60          1           0      -11.949154   -2.597643    1.111829
     61          1           0       -9.038950   -1.707114    0.358269
     62          1           0       -6.104661   -2.567932   -0.713518
     63          1           0       -5.635317   -1.601683    1.002837
     64          1           0       -7.072962   -2.416786    1.252355
     65          1           0       -7.304071    1.449795   -0.262983
     66          1           0       -4.587119   -0.152728   -0.048478
     67          1           0       13.460479   -1.216722    2.292782
     68          1           0       11.954700   -2.040874    1.860090
     69          1           0       13.576043   -3.159992    0.189527
     70          1           0       12.767936   -2.212755   -1.888876
     71          1           0       11.362624   -2.518699   -0.812987
     72          1           0       12.026232    0.140166    3.463067
     73          1           0       10.802000    1.087070    2.594789
     74          1           0       10.436653   -0.609625    2.707640
     75          1           0       13.956984    0.812594    0.653878
     76          1           0       12.594535    2.038984    0.973014
     77          1           0       13.452732    1.379213    2.314621
     78          1           0       12.755338    0.021024   -3.081006
     79          1           0       11.813671    1.363964   -2.253410
     80          1           0       13.317404    0.891519   -1.385024
     81          1           0       -5.432929    2.866333   -0.574671
     82          1           0       10.040031   -0.101988   -2.057080
     83          1           0       15.184099   -1.254273    0.404601
     84          1           0        8.614290    2.002523   -0.130368
     85          1           0       -2.429860    4.700882   -0.277940
     86          1           0       -2.624021    4.082028   -1.872743
     87          1           0       -4.048728    4.548567   -0.785325
     88          1           0       -2.591572    0.552641   -0.268205
     89          1           0        6.782447   -1.762720    0.181366
     90          1           0        8.577789   -1.583283   -0.016470
     91          1           0        7.531019   -1.515109    1.657697
     92          1           0        6.232799    1.942254   -0.179502
     93          1           0       -0.655888    3.085938   -0.248306
     94          1           0        4.954529   -0.818971    0.573347
     95          1           0       -0.473267   -0.107346   -0.051585
     96          1           0        3.961897    2.044607   -0.360976
     97          1           0        1.642318    2.422438   -0.362473
     98          1           0        1.340173   -1.268765    0.572599
     99          1           0        2.750270   -1.635545   -0.322474
    100          1           0        2.974904   -1.044560    1.249275
 ---------------------------------------------------------------------

 SCF Done:  E(RCAM-B3LYP) =  -1857.30608405     A.U. after   15 cycles

 Excitation energies and oscillator strengths:

 Excited State   1:      Singlet-A      2.0188 eV  614.16 nm  f=3.3208  <S**2>=0.000
     163 ->166        -0.13281
     164 ->165         0.69745
     164 <-165        -0.10521
 This state for optimization and/or second-order correction.
 Total Energy, E(TD-HF/TD-DFT) =  -1857.23189633
 Copying the excited state density for this state as the 1-particle RhoCI density.

 The electronic state is 1-A.
 Alpha  occ. eigenvalues --  -19.24126 -19.22451 -19.22205 -19.20897 -10.33468
 Alpha  occ. eigenvalues --  -10.33246 -10.32830 -10.31785 -10.31376 -10.29263
 Alpha  occ. eigenvalues --  -10.28863 -10.28141 -10.27891 -10.27667 -10.27652
 Alpha  occ. eigenvalues --  -10.27518 -10.27480 -10.27475 -10.27382 -10.27369
 Alpha  occ. eigenvalues --  -10.27095 -10.27035 -10.27012 -10.26993 -10.26927
 Alpha  occ. eigenvalues --  -10.26845 -10.26773 -10.26736 -10.26683 -10.26644
 Alpha  occ. eigenvalues --  -10.26546 -10.26345 -10.26216 -10.26202 -10.26026
 Alpha  occ. eigenvalues --  -10.25825 -10.25789 -10.25615 -10.25282 -10.25072
 Alpha  occ. eigenvalues --  -10.24978 -10.24824 -10.24580 -10.23445  -1.13191
 Alpha  occ. eigenvalues --   -1.09404  -1.08911  -1.08007  -0.93844  -0.93157
 Alpha  occ. eigenvalues --   -0.92241  -0.91698  -0.91090  -0.90300  -0.87813
 Alpha  occ. eigenvalues --   -0.86789  -0.86634  -0.86162  -0.85122  -0.82953
 Alpha  occ. eigenvalues --   -0.82054  -0.80650  -0.80310  -0.79689  -0.77779
 Alpha  occ. eigenvalues --   -0.76192  -0.76160  -0.76094  -0.75759  -0.75614
 Alpha  occ. eigenvalues --   -0.74112  -0.73208  -0.72504  -0.70493  -0.70021
 Alpha  occ. eigenvalues --   -0.68961  -0.67312  -0.65203  -0.63982  -0.63612
 Alpha  occ. eigenvalues --   -0.62919  -0.61688  -0.60677  -0.59565  -0.59317
 Alpha  occ. eigenvalues --   -0.58931  -0.58616  -0.57691  -0.57008  -0.56928
 Alpha  occ. eigenvalues --   -0.56564  -0.55783  -0.55116  -0.54605  -0.54470
 Alpha  occ. eigenvalues --   -0.53434  -0.53221  -0.52857  -0.52469  -0.51952
 Alpha  occ. eigenvalues --   -0.51487  -0.51075  -0.50994  -0.50329  -0.50031
 Alpha  occ. eigenvalues --   -0.49567  -0.49085  -0.48953  -0.48583  -0.48373
 Alpha  occ. eigenvalues --   -0.47781  -0.47712  -0.47462  -0.47248  -0.46829
 Alpha  occ. eigenvalues --   -0.46599  -0.46244  -0.45652  -0.45218  -0.44934
 Alpha  occ. eigenvalues --   -0.44708  -0.44076  -0.43868  -0.43279  -0.43141
 Alpha  occ. eigenvalues --   -0.43087  -0.42994  -0.42910  -0.42329  -0.42233
 Alpha  occ. eigenvalues --   -0.41961  -0.41641  -0.41517  -0.41125  -0.40805
 Alpha  occ. eigenvalues --   -0.40631  -0.40584  -0.40212  -0.39870  -0.39428
 Alpha  occ. eigenvalues --   -0.39380  -0.39228  -0.38996  -0.38878  -0.38702
 Alpha  occ. eigenvalues --   -0.38478  -0.38132  -0.37887  -0.37756  -0.37640
 Alpha  occ. eigenvalues --   -0.37483  -0.36192  -0.35359  -0.34285  -0.33646
 Alpha  occ. eigenvalues --   -0.33109  -0.32956  -0.32725  -0.31975  -0.31236
 Alpha  occ. eigenvalues --   -0.30045  -0.27752  -0.24400  -0.19295
 Alpha virt. eigenvalues --   -0.06899  -0.01416   0.02892   0.06634   0.07807
 Alpha virt. eigenvalues --    0.08632   0.09109   0.09797   0.10468   0.10999
 Alpha virt. eigenvalues --    0.11369   0.11872   0.12113   0.13170   0.13524

 Mulliken charges:
               1
     1  O   -0.508824
     2  O   -0.550875
     3  O   -0.560312
     4  O   -0.542904
     5  C    0.225105
     6  C    0.240026
     7  C    0.040837
     8  C   -0.257400
     9  C   -0.187431
    10  C    0.171169
    11  C   -0.338606
    12  C   -0.099701
    13  C   -0.324952
    14  C   -0.305503
    15  C   -0.076753
    16  C    0.076115
    17  C   -0.356916
    18  C   -0.099639
    19  C   -0.073475
    20  C    0.018641
    21  C    0.226570
    22  C   -0.179830
    23  C    0.135849
    24  C   -0.162307
    25  C   -0.107610
    26  C   -0.294215
    27  C   -0.315884
    28  C   -0.280904
    29  C   -0.145745
    30  C    0.178645
    31  C    0.107617
    32  C   -0.250274
    33  C   -0.391848
    34  C   -0.101513
    35  C    0.127079
    36  C   -0.384662
    37  C   -0.114931
    38  C   -0.050150
    39  C   -0.091119
    40  C   -0.059056
    41  C   -0.139149
    42  C   -0.154926
    43  C    0.166808
    44  C   -0.397339
    45  H    0.092523
    46  H    0.125708
    47  H    0.102829
    48  H    0.112398
    49  H    0.106241
    50  H    0.087007
    51  H    0.100390
    52  H    0.131327
    53  H    0.084344
    54  H    0.087932
    55  H    0.095899
    56  H    0.108345
    57  H    0.101509
    58  H    0.090993
    59  H    0.106986
    60  H    0.323517
    61  H    0.059983
    62  H    0.122499
    63  H    0.149038
    64  H    0.070552
    65  H    0.094797
    66  H    0.078081
    67  H    0.067652
    68  H    0.117278
    69  H    0.074229
    70  H    0.121586
    71  H    0.100704
    72  H    0.062645
    73  H    0.117266
    74  H    0.103123
    75  H    0.127138
    76  H    0.116295
    77  H    0.077719
    78  H    0.114381
    79  H    0.063203
    80  H    0.125129
    81  H    0.080524
    82  H    0.303862
    83  H    0.313514
    84  H    0.106471
    85  H    0.102664
    86  H    0.124110
    87  H    0.122552
    88  H    0.088570
    89  H    0.123366
    90  H    0.123980
    91  H    0.098356
    92  H    0.070282
    93  H    0.069623
    94  H    0.084536
    95  H    0.055052
    96  H    0.057090
    97  H    0.089895
    98  H    0.108426
    99  H    0.129360
   100  H    0.116810
 Sum of Mulliken charges =  -0.00000

 Dipole moment (field-independent basis, Debye):
    X=              2.9675    Y=             -0.2459    Z=              1.8538  Tot=              3.5075
 Quadrupole moment (field-independent basis, Debye-Ang):
   XX=           -264.0726   YY=           -257.2736   ZZ=           -283.4502
   XY=              1.2191   XZ=             35.8826   YZ=             -1.6693

 Normal termination of Gaussian 16 at Wed Jul 31 10:05:02 2019.
