 Gaussian 16, Revision A.03,
 Gaussian 16:  ES64L-G16RevA.03 25-Dec-2016

 -------------------------------------
 # td=(NStates=1) CAM-B3LYP/6-31G(d,p)
 -------------------------------------

 --
 TD
 --
 Symbolic Z-matrix:
 Charge =  0 Multiplicity = 1

                         Standard orientation:
 ---------------------------------------------------------------------
 Center     Atomic      Atomic             Coordinates (Angstroms)
 Number     Number       Type             X           Y           Z
 ---------------------------------------------------------------------
      1          8           0      -11.664634    0.236883   -1.617963
      2          8           0      -12.974796   -2.492083    1.424193
      3          8           0       10.629779   -1.058856   -2.003123
      4          8           0       14.508881   -1.146681   -0.004388
      5          6           0      -11.072165   -0.190601   -0.280944
      6          6           0      -11.721508   -1.187793   -1.212614
      7          6           0      -11.823627    0.317366    0.865448
      8          6           0      -12.986538   -1.814395   -1.005559
      9          6           0      -13.286839   -0.118341    0.852199
     10          6           0      -13.522410   -1.537973    0.452085
     11          6           0      -10.740494   -2.015914   -2.050164
     12          6           0       -9.607475    0.152289   -0.365795
     13          6           0      -11.100627   -0.049461    2.184181
     14          6           0      -11.818496    1.895411    0.823348
     15          6           0       -8.726257   -0.714458    0.150483
     16          6           0       -7.303857   -0.529956    0.231785
     17          6           0       -6.398001   -1.872070    0.603702
     18          6           0       -6.715758    0.668448   -0.022833
     19          6           0       -5.336762    0.923931   -0.068974
     20          6           0       11.972972   -0.044882    1.406039
     21          6           0       11.739068   -0.692550   -1.221389
     22          6           0       12.598734   -1.351161    1.619431
     23          6           0       13.324364   -1.862035    0.277767
     24          6           0       12.533814   -1.920689   -0.914376
     25          6           0       11.151270    0.070894    0.012893
     26          6           0       10.988146    0.231495    2.603395
     27          6           0       12.992342    1.125913    1.251300
     28          6           0       12.588348    0.267788   -1.991217
     29          6           0       -4.740303    2.175540   -0.307293
     30          6           0        9.935670    0.598944   -0.068921
     31          6           0       -3.410559    2.515559   -0.416032
     32          6           0        8.744959    1.047828   -0.230692
     33          6           0       -2.956172    3.991248   -0.652404
     34          6           0       -2.351584    1.638546   -0.296917
     35          6           0        7.468381    0.251764   -0.037289
     36          6           0        7.554446   -1.176808    0.167235
     37          6           0        6.322265    0.928794   -0.158619
     38          6           0       -1.009730    1.882772   -0.242292
     39          6           0        5.016302    0.313645   -0.047772
     40          6           0        0.015975    0.957186   -0.122835
     41          6           0        3.717818    0.961496   -0.137951
     42          6           0        1.404718    1.239210   -0.274132
     43          6           0        2.454133    0.361447   -0.098554
     44          6           0        2.279507   -1.124661    0.080199
     45          1           0      -13.110276   -2.953647   -1.357152
     46          1           0      -13.756566   -1.432305   -1.549801
     47          1           0      -13.765757    0.165299    1.694463
     48          1           0      -13.690231    0.360335   -0.069416
     49          1           0      -14.577906   -1.757409    0.648804
     50          1           0      -10.441845   -2.885171   -1.748500
     51          1           0      -11.218923   -2.316931   -3.051082
     52          1           0       -9.806609   -1.314582   -2.297850
     53          1           0       -9.317728    1.145955   -0.563007
     54          1           0      -10.146807    0.240614    2.296416
     55          1           0      -11.594888    0.384505    3.052825
     56          1           0      -11.212908   -1.077875    2.411709
     57          1           0      -12.301643    2.383029   -0.090268
     58          1           0      -12.410164    2.121730    1.702602
     59          1           0      -10.820934    2.092153    1.075641
     60          1           0      -12.082466   -2.575207    1.128578
     61          1           0       -9.088212   -1.693329    0.603483
     62          1           0       -5.828556   -2.167505   -0.287671
     63          1           0       -5.423600   -1.558407    1.084009
     64          1           0       -7.031987   -2.694379    1.041197
     65          1           0       -7.555563    1.377831   -0.218792
     66          1           0       -4.640846    0.153928    0.319481
     67          1           0       13.199835   -1.229786    2.558094
     68          1           0       11.882004   -2.147809    1.899216
     69          1           0       13.727441   -2.868602    0.528277
     70          1           0       13.086626   -2.070123   -2.000051
     71          1           0       11.803986   -2.693787   -0.985847
     72          1           0       11.385629    0.327855    3.662205
     73          1           0       10.647381    1.399320    2.450092
     74          1           0       10.376802   -0.543516    2.668485
     75          1           0       13.778368    1.007246    0.552903
     76          1           0       12.457677    1.910286    0.795775
     77          1           0       13.345570    1.398626    2.325438
     78          1           0       12.736891   -0.288067   -2.949245
     79          1           0       12.117751    1.056036   -2.197403
     80          1           0       13.552717    0.518415   -1.641309
     81          1           0       -5.561325    2.766461   -0.344276
     82          1           0        9.945736   -0.295695   -1.976230
     83          1           0       15.034506   -1.380049    0.764176
     84          1           0        8.660545    1.932436   -0.678677
     85          1           0       -2.190232    4.179453    0.213865
     86          1           0       -2.532414    4.286757   -1.695205
     87          1           0       -3.769480    4.710468   -0.403207
     88          1           0       -2.436460    0.557354    0.039757
     89          1           0        6.736523   -1.928944   -0.279899
     90          1           0        8.593163   -1.345168   -0.355640
     91          1           0        7.683621   -1.541559    1.106484
     92          1           0        6.309541    1.928507   -0.302862
     93          1           0       -0.549373    2.964008   -0.430058
     94          1           0        4.976761   -0.624435    0.402757
     95          1           0       -0.185834   -0.035414    0.238692
     96          1           0        3.932818    1.897893   -0.428730
     97          1           0        1.719091    2.406900   -0.339287
     98          1           0        1.117513   -1.094436    0.183087
     99          1           0        2.572868   -1.861416   -0.676842
    100          1           0        2.629884   -1.494544    0.944516
 ---------------------------------------------------------------------

 SCF Done:  E(RCAM-B3LYP) =  -1857.30901320     A.U. after   15 cycles

 Excitation energies and oscillator strengths:

 Excited State   1:      Singlet-A      2.0976 eV  591.08 nm  f=3.0321  <S**2>=0.000
     163 ->166         0.13024
     164 ->165         0.69855
     164 <-165        -0.10320
 This state for optimization and/or second-order correction.
 Total Energy, E(TD-HF/TD-DFT) =  -1857.23192781
 Copying the excited state density for this state as the 1-particle RhoCI density.

 The electronic state is 1-A.
 Alpha  occ. eigenvalues --  -19.21729 -19.21460 -19.20758 -19.20456 -10.32535
 Alpha  occ. eigenvalues --  -10.31733 -10.31516 -10.31177 -10.30778 -10.28372
 Alpha  occ. eigenvalues --  -10.28188 -10.28074 -10.27954 -10.27604 -10.27532
 Alpha  occ. eigenvalues --  -10.27511 -10.27342 -10.27329 -10.27167 -10.27145
 Alpha  occ. eigenvalues --  -10.27106 -10.27074 -10.26904 -10.26733 -10.26646
 Alpha  occ. eigenvalues --  -10.26604 -10.26528 -10.26494 -10.26436 -10.26413
 Alpha  occ. eigenvalues --  -10.26047 -10.25832 -10.25676 -10.25614 -10.25466
 Alpha  occ. eigenvalues --  -10.25319 -10.25301 -10.25006 -10.24883 -10.24331
 Alpha  occ. eigenvalues --  -10.24205 -10.23869 -10.23212 -10.21500  -1.11489
 Alpha  occ. eigenvalues --   -1.11389  -1.09368  -1.08691  -0.92781  -0.92641
 Alpha  occ. eigenvalues --   -0.92255  -0.91829  -0.91319  -0.90610  -0.88237
 Alpha  occ. eigenvalues --   -0.87454  -0.87111  -0.86114  -0.84882  -0.82930
 Alpha  occ. eigenvalues --   -0.82249  -0.81259  -0.80597  -0.78428  -0.77553
 Alpha  occ. eigenvalues --   -0.77425  -0.77243  -0.76541  -0.76439  -0.76325
 Alpha  occ. eigenvalues --   -0.76292  -0.75090  -0.73514  -0.71661  -0.70480
 Alpha  occ. eigenvalues --   -0.69298  -0.67397  -0.66108  -0.65273  -0.63995
 Alpha  occ. eigenvalues --   -0.63561  -0.62437  -0.61560  -0.61054  -0.59732
 Alpha  occ. eigenvalues --   -0.59178  -0.58954  -0.58369  -0.58322  -0.58099
 Alpha  occ. eigenvalues --   -0.56289  -0.55986  -0.55087  -0.54734  -0.54604
 Alpha  occ. eigenvalues --   -0.53998  -0.53574  -0.53088  -0.52859  -0.52320
 Alpha  occ. eigenvalues --   -0.51950  -0.51874  -0.50592  -0.50424  -0.50353
 Alpha  occ. eigenvalues --   -0.50083  -0.49707  -0.49051  -0.49018  -0.48719
 Alpha  occ. eigenvalues --   -0.48303  -0.48077  -0.47605  -0.47438  -0.47136
 Alpha  occ. eigenvalues --   -0.46606  -0.46188  -0.45976  -0.45542  -0.45349
 Alpha  occ. eigenvalues --   -0.45116  -0.44782  -0.44418  -0.43714  -0.43630
 Alpha  occ. eigenvalues --   -0.43563  -0.43352  -0.43087  -0.43000  -0.42713
 Alpha  occ. eigenvalues --   -0.42657  -0.42203  -0.41991  -0.41880  -0.41083
 Alpha  occ. eigenvalues --   -0.41034  -0.40742  -0.40737  -0.40315  -0.40193
 Alpha  occ. eigenvalues --   -0.39789  -0.39441  -0.39293  -0.39218  -0.38863
 Alpha  occ. eigenvalues --   -0.38781  -0.37703  -0.37616  -0.37472  -0.37419
 Alpha  occ. eigenvalues --   -0.37110  -0.36836  -0.35833  -0.34483  -0.34403
 Alpha  occ. eigenvalues --   -0.32709  -0.32102  -0.31367  -0.31308  -0.30970
 Alpha  occ. eigenvalues --   -0.29564  -0.28723  -0.24706  -0.19675
 Alpha virt. eigenvalues --   -0.06633  -0.00916   0.03229   0.06309   0.07043
 Alpha virt. eigenvalues --    0.09717   0.10240   0.10728   0.11086   0.11730
 Alpha virt. eigenvalues --    0.12236   0.12673   0.13247   0.13475   0.14016

 Mulliken charges:
               1
     1  O   -0.531496
     2  O   -0.549093
     3  O   -0.584872
     4  O   -0.529435
     5  C    0.182455
     6  C    0.282792
     7  C   -0.005893
     8  C   -0.253697
     9  C   -0.170066
    10  C    0.114270
    11  C   -0.330985
    12  C   -0.109710
    13  C   -0.328352
    14  C   -0.292576
    15  C   -0.074993
    16  C    0.085137
    17  C   -0.375910
    18  C   -0.100140
    19  C   -0.085326
    20  C    0.033802
    21  C    0.259452
    22  C   -0.199868
    23  C    0.136298
    24  C   -0.184862
    25  C   -0.117472
    26  C   -0.299379
    27  C   -0.312214
    28  C   -0.278441
    29  C   -0.109124
    30  C    0.156742
    31  C    0.090612
    32  C   -0.293831
    33  C   -0.364842
    34  C   -0.100304
    35  C    0.126342
    36  C   -0.381901
    37  C   -0.089222
    38  C   -0.081411
    39  C   -0.118954
    40  C   -0.103787
    41  C   -0.109163
    42  C   -0.116481
    43  C    0.110974
    44  C   -0.358078
    45  H    0.110035
    46  H    0.147581
    47  H    0.105530
    48  H    0.111281
    49  H    0.098716
    50  H    0.116717
    51  H    0.091731
    52  H    0.116743
    53  H    0.116232
    54  H    0.121539
    55  H    0.098364
    56  H    0.105353
    57  H    0.119671
    58  H    0.098996
    59  H    0.099618
    60  H    0.294655
    61  H    0.077368
    62  H    0.129929
    63  H    0.115060
    64  H    0.112706
    65  H    0.074559
    66  H    0.075379
    67  H    0.096700
    68  H    0.097521
    69  H    0.075188
    70  H    0.102791
    71  H    0.126971
    72  H    0.087326
    73  H    0.092286
    74  H    0.116080
    75  H    0.138373
    76  H    0.108231
    77  H    0.078418
    78  H    0.097534
    79  H    0.091532
    80  H    0.130165
    81  H    0.077207
    82  H    0.312170
    83  H    0.306509
    84  H    0.108358
    85  H    0.114724
    86  H    0.122433
    87  H    0.107410
    88  H    0.073176
    89  H    0.105082
    90  H    0.109591
    91  H    0.134919
    92  H    0.071614
    93  H    0.073762
    94  H    0.073656
    95  H    0.091114
    96  H    0.070627
    97  H    0.080939
    98  H    0.085553
    99  H    0.131379
   100  H    0.135898
 Sum of Mulliken charges =  -0.00000

 Dipole moment (field-independent basis, Debye):
    X=              2.2891    Y=             -0.7971    Z=              2.7070  Tot=              3.6336
 Quadrupole moment (field-independent basis, Debye-Ang):
   XX=           -264.8035   YY=           -259.0607   ZZ=           -278.8760
   XY=             -4.4504   XZ=             29.7103   YZ=             -2.2249

 Normal termination of Gaussian 16 at Tue Jul 30 01:20:26 2019.
