 Gaussian 16, Revision A.03,
 Gaussian 16:  ES64L-G16RevA.03 25-Dec-2016

 -------------------------------------
 # td=(NStates=1) CAM-B3LYP/6-31G(d,p)
 -------------------------------------

 --
 TD
 --
 Symbolic Z-matrix:
 Charge =  0 Multiplicity = 1

                         Standard orientation:
 ---------------------------------------------------------------------
 Center     Atomic      Atomic             Coordinates (Angstroms)
 Number     Number       Type             X           Y           Z
 ---------------------------------------------------------------------
      1          8           0      -11.705271    0.162465   -1.627128
      2          8           0      -12.994303   -2.311909    1.620973
      3          8           0       10.715152   -1.074321   -2.047650
      4          8           0       14.667503   -1.077416    0.205511
      5          6           0      -11.040530   -0.120510   -0.284663
      6          6           0      -11.742267   -1.181515   -1.138575
      7          6           0      -11.907557    0.487517    0.897678
      8          6           0      -13.157958   -1.764722   -0.771206
      9          6           0      -13.294279    0.060000    0.888349
     10          6           0      -13.627646   -1.445432    0.695516
     11          6           0      -11.017017   -2.111358   -1.995333
     12          6           0       -9.571096    0.086239   -0.328923
     13          6           0      -11.156997    0.190476    2.256433
     14          6           0      -11.776505    2.043239    0.668485
     15          6           0       -8.740392   -0.771114    0.251137
     16          6           0       -7.289065   -0.640532    0.214969
     17          6           0       -6.364321   -1.878974    0.591017
     18          6           0       -6.606960    0.622224   -0.000526
     19          6           0       -5.291430    0.836892   -0.064087
     20          6           0       11.922774    0.221130    1.397735
     21          6           0       11.674138   -0.594221   -1.202844
     22          6           0       12.612384   -1.258618    1.651783
     23          6           0       13.423416   -1.801937    0.466788
     24          6           0       12.387421   -1.884197   -0.797193
     25          6           0       11.127348    0.099149    0.047540
     26          6           0       10.959766    0.351289    2.567994
     27          6           0       12.923255    1.381660    1.286994
     28          6           0       12.656995    0.276535   -1.988904
     29          6           0       -4.655854    2.147759   -0.362723
     30          6           0        9.901077    0.494633   -0.013375
     31          6           0       -3.328204    2.473946   -0.378647
     32          6           0        8.667066    1.109784   -0.180983
     33          6           0       -3.013193    4.005358   -0.575275
     34          6           0       -2.318724    1.490381   -0.343127
     35          6           0        7.523801    0.218004    0.008968
     36          6           0        7.705913   -1.248249    0.076349
     37          6           0        6.253778    0.773306   -0.224735
     38          6           0       -1.039423    1.749778   -0.410962
     39          6           0        5.043280    0.132929   -0.203189
     40          6           0        0.042450    0.786195   -0.278911
     41          6           0        3.870829    0.762219   -0.334484
     42          6           0        1.451063    1.079641   -0.373432
     43          6           0        2.505968    0.178184   -0.325946
     44          6           0        2.295436   -1.290306   -0.060667
     45          1           0      -13.092908   -2.961765   -0.915725
     46          1           0      -13.733537   -1.295422   -1.653178
     47          1           0      -13.826298    0.373253    1.625226
     48          1           0      -13.811769    0.357603    0.094733
     49          1           0      -14.748847   -1.650446    0.742899
     50          1           0      -10.590999   -3.019093   -1.692464
     51          1           0      -11.586498   -2.307383   -3.047659
     52          1           0      -10.235642   -1.579560   -2.460824
     53          1           0       -8.980153    0.881707   -0.993930
     54          1           0      -10.156781    0.820583    2.073421
     55          1           0      -11.579670    0.783009    3.017459
     56          1           0      -11.014510   -0.803409    2.463574
     57          1           0      -12.295987    2.225209   -0.471348
     58          1           0      -12.440165    2.304542    1.396649
     59          1           0      -10.641320    2.480389    0.668419
     60          1           0      -12.240379   -2.557148    0.962102
     61          1           0       -9.165684   -1.614470    0.687532
     62          1           0       -6.087347   -2.236105   -0.434139
     63          1           0       -5.462778   -1.767519    1.085362
     64          1           0       -6.961002   -2.734398    0.787900
     65          1           0       -7.299827    1.364106   -0.003569
     66          1           0       -4.531246   -0.237350   -0.274816
     67          1           0       13.075280   -1.311837    2.592525
     68          1           0       11.605617   -1.922926    1.818260
     69          1           0       13.705006   -2.812848    0.798250
     70          1           0       12.937508   -2.163653   -1.707476
     71          1           0       11.651109   -2.683002   -0.564067
     72          1           0       11.379442    0.341116    3.562995
     73          1           0       10.299319    1.219245    2.295562
     74          1           0       10.423444   -0.695932    2.762551
     75          1           0       13.707071    1.316983    0.472641
     76          1           0       12.246513    2.317486    1.330865
     77          1           0       13.560069    1.291653    2.208862
     78          1           0       12.986375   -0.220693   -2.961754
     79          1           0       12.133412    1.189044   -2.390942
     80          1           0       13.663711    0.574762   -1.510211
     81          1           0       -5.324036    3.091762   -0.541951
     82          1           0       10.338147   -0.279975   -2.382963
     83          1           0       14.830107   -0.767835    1.216189
     84          1           0        8.484021    2.104503   -0.553575
     85          1           0       -2.236961    4.093163    0.202505
     86          1           0       -2.412446    4.015960   -1.574815
     87          1           0       -3.814448    4.697513   -0.625228
     88          1           0       -2.520808    0.283959   -0.139403
     89          1           0        6.777713   -1.831613    0.334960
     90          1           0        8.509371   -1.734754   -0.718363
     91          1           0        8.224596   -1.551900    1.040328
     92          1           0        6.207881    1.840968   -0.237104
     93          1           0       -0.725319    2.954406   -0.201247
     94          1           0        5.160861   -1.036345    0.004330
     95          1           0       -0.194922   -0.271181   -0.206556
     96          1           0        3.900667    1.879355   -0.583103
     97          1           0        1.756267    1.918556   -0.578973
     98          1           0        1.296955   -1.508471   -0.688177
     99          1           0        3.284681   -1.918189   -0.565187
    100          1           0        2.050066   -1.236862    1.244847
 ---------------------------------------------------------------------

 SCF Done:  E(RCAM-B3LYP) =  -1857.18291538     A.U. after   18 cycles

 Excitation energies and oscillator strengths:

 Excited State   1:      Singlet-A      1.6808 eV  737.64 nm  f=2.7484  <S**2>=0.000
     163 ->166         0.10654
     164 ->165         0.71581
     164 <-165        -0.16535
 This state for optimization and/or second-order correction.
 Total Energy, E(TD-HF/TD-DFT) =  -1857.12114636
 Copying the excited state density for this state as the 1-particle RhoCI density.

 The electronic state is 1-A.
 Alpha  occ. eigenvalues --  -19.23440 -19.22472 -19.22402 -19.22129 -10.32649
 Alpha  occ. eigenvalues --  -10.32615 -10.32464 -10.32027 -10.31736 -10.30125
 Alpha  occ. eigenvalues --  -10.29546 -10.28776 -10.28684 -10.28208 -10.28068
 Alpha  occ. eigenvalues --  -10.27829 -10.27685 -10.27671 -10.27668 -10.27614
 Alpha  occ. eigenvalues --  -10.27542 -10.27507 -10.27491 -10.27407 -10.27296
 Alpha  occ. eigenvalues --  -10.27200 -10.26797 -10.26770 -10.26696 -10.26690
 Alpha  occ. eigenvalues --  -10.26660 -10.26415 -10.26276 -10.26164 -10.26164
 Alpha  occ. eigenvalues --  -10.25907 -10.25901 -10.25389 -10.25384 -10.25215
 Alpha  occ. eigenvalues --  -10.25000 -10.24216 -10.24013 -10.22379  -1.14048
 Alpha  occ. eigenvalues --   -1.12770  -1.09907  -1.08141  -0.92825  -0.91998
 Alpha  occ. eigenvalues --   -0.91672  -0.91385  -0.90501  -0.89821  -0.86974
 Alpha  occ. eigenvalues --   -0.86236  -0.85899  -0.85712  -0.84382  -0.83133
 Alpha  occ. eigenvalues --   -0.81993  -0.80736  -0.80265  -0.78146  -0.76892
 Alpha  occ. eigenvalues --   -0.76856  -0.76461  -0.76415  -0.75687  -0.75026
 Alpha  occ. eigenvalues --   -0.74878  -0.74567  -0.72427  -0.70099  -0.69354
 Alpha  occ. eigenvalues --   -0.68055  -0.66384  -0.65079  -0.64729  -0.63774
 Alpha  occ. eigenvalues --   -0.63000  -0.61633  -0.59719  -0.59626  -0.59464
 Alpha  occ. eigenvalues --   -0.59260  -0.58303  -0.57398  -0.56812  -0.56252
 Alpha  occ. eigenvalues --   -0.55791  -0.55426  -0.55334  -0.54472  -0.54129
 Alpha  occ. eigenvalues --   -0.53322  -0.53030  -0.52805  -0.52262  -0.51714
 Alpha  occ. eigenvalues --   -0.51524  -0.51009  -0.50953  -0.50129  -0.50089
 Alpha  occ. eigenvalues --   -0.49645  -0.49334  -0.48995  -0.48691  -0.47964
 Alpha  occ. eigenvalues --   -0.47732  -0.47391  -0.47302  -0.47112  -0.46941
 Alpha  occ. eigenvalues --   -0.46521  -0.46154  -0.45928  -0.45640  -0.45047
 Alpha  occ. eigenvalues --   -0.44825  -0.44726  -0.44561  -0.44484  -0.44145
 Alpha  occ. eigenvalues --   -0.43879  -0.43175  -0.42787  -0.42391  -0.42234
 Alpha  occ. eigenvalues --   -0.42115  -0.41916  -0.41743  -0.41146  -0.40601
 Alpha  occ. eigenvalues --   -0.40406  -0.40149  -0.40058  -0.39955  -0.39655
 Alpha  occ. eigenvalues --   -0.39352  -0.39244  -0.38943  -0.38750  -0.38651
 Alpha  occ. eigenvalues --   -0.38343  -0.38234  -0.38032  -0.37172  -0.37152
 Alpha  occ. eigenvalues --   -0.36460  -0.35725  -0.35236  -0.34919  -0.33983
 Alpha  occ. eigenvalues --   -0.33463  -0.33017  -0.32838  -0.31839  -0.30644
 Alpha  occ. eigenvalues --   -0.30505  -0.27726  -0.23665  -0.17857
 Alpha virt. eigenvalues --   -0.07568  -0.00888   0.02989   0.06759   0.06882
 Alpha virt. eigenvalues --    0.07761   0.09046   0.09224   0.09518   0.10151
 Alpha virt. eigenvalues --    0.11047   0.12008   0.12301   0.12741   0.12893

 Mulliken charges:
               1
     1  O   -0.521021
     2  O   -0.532308
     3  O   -0.527320
     4  O   -0.550375
     5  C    0.185062
     6  C    0.260029
     7  C    0.001268
     8  C   -0.276130
     9  C   -0.156929
    10  C    0.143359
    11  C   -0.347748
    12  C   -0.125516
    13  C   -0.291256
    14  C   -0.290513
    15  C   -0.051518
    16  C    0.038280
    17  C   -0.375127
    18  C   -0.072281
    19  C   -0.082774
    20  C    0.018958
    21  C    0.251618
    22  C   -0.243170
    23  C    0.161904
    24  C   -0.187480
    25  C   -0.067252
    26  C   -0.298837
    27  C   -0.299921
    28  C   -0.333142
    29  C   -0.140891
    30  C    0.113243
    31  C    0.072244
    32  C   -0.229590
    33  C   -0.359663
    34  C   -0.068389
    35  C    0.112915
    36  C   -0.387549
    37  C   -0.109223
    38  C   -0.082595
    39  C   -0.057647
    40  C   -0.126855
    41  C   -0.132485
    42  C   -0.044528
    43  C    0.080535
    44  C   -0.335709
    45  H    0.092101
    46  H    0.133054
    47  H    0.100022
    48  H    0.112641
    49  H    0.089977
    50  H    0.115131
    51  H    0.089567
    52  H    0.131955
    53  H    0.111475
    54  H    0.085601
    55  H    0.104933
    56  H    0.117325
    57  H    0.099830
    58  H    0.110495
    59  H    0.096008
    60  H    0.311434
    61  H    0.079880
    62  H    0.119385
    63  H    0.135893
    64  H    0.109597
    65  H    0.078580
    66  H    0.063426
    67  H    0.096016
    68  H    0.090047
    69  H    0.090099
    70  H    0.110188
    71  H    0.111384
    72  H    0.106105
    73  H    0.113045
    74  H    0.087586
    75  H    0.127041
    76  H    0.103244
    77  H    0.084830
    78  H    0.109260
    79  H    0.084676
    80  H    0.135311
    81  H    0.075535
    82  H    0.300267
    83  H    0.311752
    84  H    0.116836
    85  H    0.130369
    86  H    0.121209
    87  H    0.121968
    88  H    0.078908
    89  H    0.103965
    90  H    0.135417
    91  H    0.109513
    92  H    0.071315
    93  H    0.062636
    94  H    0.072298
    95  H    0.077435
    96  H    0.080020
    97  H    0.040487
    98  H    0.110601
    99  H    0.101598
   100  H    0.107055
 Sum of Mulliken charges =  -0.00000

 Dipole moment (field-independent basis, Debye):
    X=              3.1154    Y=              0.0844    Z=              1.2126  Tot=              3.3441
 Quadrupole moment (field-independent basis, Debye-Ang):
   XX=           -273.6371   YY=           -260.4744   ZZ=           -277.2281
   XY=             12.5994   XZ=             32.8999   YZ=             -1.1920

 Normal termination of Gaussian 16 at Thu Aug  1 22:58:27 2019.
