 Gaussian 16, Revision A.03,
 Gaussian 16:  ES64L-G16RevA.03 25-Dec-2016

 -------------------------------------
 # td=(NStates=1) CAM-B3LYP/6-31G(d,p)
 -------------------------------------

 --
 TD
 --
 Symbolic Z-matrix:
 Charge =  0 Multiplicity = 1

                         Standard orientation:
 ---------------------------------------------------------------------
 Center     Atomic      Atomic             Coordinates (Angstroms)
 Number     Number       Type             X           Y           Z
 ---------------------------------------------------------------------
      1          8           0      -11.709251    0.193772   -1.507335
      2          8           0      -13.083902   -2.463941    1.475468
      3          8           0       10.529953   -1.074614   -2.062250
      4          8           0       14.490319   -1.152262   -0.053026
      5          6           0      -11.069222   -0.109147   -0.351346
      6          6           0      -11.635492   -1.209683   -1.189421
      7          6           0      -11.688452    0.341828    0.940332
      8          6           0      -13.104781   -1.651248   -1.067995
      9          6           0      -13.225783   -0.019129    0.878537
     10          6           0      -13.578533   -1.474452    0.408895
     11          6           0      -10.810598   -1.938725   -2.110139
     12          6           0       -9.577111    0.085457   -0.385009
     13          6           0      -10.987885   -0.264550    2.211841
     14          6           0      -11.770401    1.898302    1.018549
     15          6           0       -8.572682   -0.817642   -0.008123
     16          6           0       -7.075745   -0.579698    0.197701
     17          6           0       -6.374904   -1.896383    0.460414
     18          6           0       -6.559696    0.653970    0.019362
     19          6           0       -5.169995    0.919206   -0.024357
     20          6           0       11.893581    0.061481    1.334829
     21          6           0       11.637546   -0.642671   -1.207184
     22          6           0       12.574235   -1.203618    1.504782
     23          6           0       13.258381   -1.908282    0.302993
     24          6           0       12.399736   -1.917734   -0.890746
     25          6           0       11.096378    0.021940    0.033386
     26          6           0       10.926345    0.170594    2.522806
     27          6           0       12.852479    1.161495    1.356193
     28          6           0       12.426984    0.277235   -2.075153
     29          6           0       -4.681637    2.148312   -0.245590
     30          6           0        9.848478    0.528118   -0.122872
     31          6           0       -3.361559    2.559063   -0.396813
     32          6           0        8.670492    0.997371   -0.210002
     33          6           0       -3.066722    3.946381   -0.687388
     34          6           0       -2.289388    1.622151   -0.152444
     35          6           0        7.483724    0.110646   -0.028264
     36          6           0        7.639570   -1.326945    0.229486
     37          6           0        6.270249    0.813364   -0.089314
     38          6           0       -0.962864    1.892360   -0.461549
     39          6           0        4.923816    0.273645    0.126740
     40          6           0        0.142555    1.066440   -0.175351
     41          6           0        3.820375    1.060921   -0.099298
     42          6           0        1.463111    1.345065   -0.253200
     43          6           0        2.455369    0.445006   -0.081856
     44          6           0        2.382570   -0.930941    0.176513
     45          1           0      -13.114640   -2.756802   -1.348134
     46          1           0      -13.830125   -1.160264   -1.639817
     47          1           0      -13.607476   -0.074215    1.867661
     48          1           0      -13.727124    0.576912    0.166770
     49          1           0      -14.667276   -1.510860    0.246327
     50          1           0      -10.604917   -3.006831   -1.583033
     51          1           0      -11.398841   -2.439514   -3.000088
     52          1           0       -9.904920   -1.601041   -2.538294
     53          1           0       -9.432474    1.073517   -0.749351
     54          1           0      -10.186895    0.337600    2.544202
     55          1           0      -11.762654   -0.249668    3.118909
     56          1           0      -10.826701   -1.486813    1.812362
     57          1           0      -12.048677    2.321923    0.114583
     58          1           0      -12.547453    2.271989    1.689420
     59          1           0      -10.656781    2.363708    1.172793
     60          1           0      -12.113231   -2.607531    1.337542
     61          1           0       -9.125275   -1.773950    0.330244
     62          1           0       -5.886777   -2.277236   -0.474930
     63          1           0       -5.509063   -1.701429    1.006000
     64          1           0       -7.117822   -2.683325    0.907914
     65          1           0       -7.199750    1.483394    0.069223
     66          1           0       -4.280612    0.109392    0.224798
     67          1           0       13.266866   -1.167464    2.246893
     68          1           0       11.923244   -2.114227    1.923865
     69          1           0       13.545487   -2.855106    0.675379
     70          1           0       13.037948   -2.396411   -1.683277
     71          1           0       11.660114   -2.531473   -0.652536
     72          1           0       11.454192   -0.051633    3.420592
     73          1           0       10.404809    1.046076    2.652177
     74          1           0       10.096685   -0.516050    2.347820
     75          1           0       13.840237    0.937582    0.761770
     76          1           0       12.548536    2.137670    1.010263
     77          1           0       13.188169    1.250768    2.448527
     78          1           0       12.852918   -0.265143   -2.975554
     79          1           0       12.052934    1.200353   -2.325476
     80          1           0       13.283749    0.574778   -1.458165
     81          1           0       -5.412930    2.905082   -0.348969
     82          1           0       10.391788   -0.214093   -2.589583
     83          1           0       14.852190   -0.959483    1.038606
     84          1           0        8.494054    2.055115   -0.571224
     85          1           0       -2.588818    4.450495    0.058171
     86          1           0       -2.219745    4.008610   -1.541579
     87          1           0       -4.005616    4.477239   -0.903316
     88          1           0       -2.429623    0.523759    0.079939
     89          1           0        6.765080   -1.965050   -0.021283
     90          1           0        8.436304   -1.633610   -0.362305
     91          1           0        7.813023   -1.481283    1.322209
     92          1           0        6.384904    1.823691   -0.412478
     93          1           0       -0.821080    2.850319   -0.692579
     94          1           0        4.879072   -0.727414    0.262159
     95          1           0       -0.368682   -0.077369   -0.003787
     96          1           0        4.024044    2.003338   -0.138386
     97          1           0        1.610676    2.425883   -0.573304
     98          1           0        1.360672   -1.344557    0.201905
     99          1           0        2.883824   -1.385754   -0.849045
    100          1           0        2.912388   -1.274242    1.094951
 ---------------------------------------------------------------------

 SCF Done:  E(RCAM-B3LYP) =  -1857.32331738     A.U. after   15 cycles

 Excitation energies and oscillator strengths:

 Excited State   1:      Singlet-A      2.1887 eV  566.48 nm  f=2.7507  <S**2>=0.000
     163 ->166         0.11764
     164 ->165         0.69939
     164 <-165        -0.10109
 This state for optimization and/or second-order correction.
 Total Energy, E(TD-HF/TD-DFT) =  -1857.24288523
 Copying the excited state density for this state as the 1-particle RhoCI density.

 The electronic state is 1-A.
 Alpha  occ. eigenvalues --  -19.22827 -19.21892 -19.21209 -19.20942 -10.31908
 Alpha  occ. eigenvalues --  -10.31676 -10.31578 -10.31092 -10.30517 -10.28075
 Alpha  occ. eigenvalues --  -10.27975 -10.27702 -10.27647 -10.27580 -10.27501
 Alpha  occ. eigenvalues --  -10.27346 -10.27334 -10.27088 -10.27082 -10.26837
 Alpha  occ. eigenvalues --  -10.26832 -10.26739 -10.26406 -10.26392 -10.26283
 Alpha  occ. eigenvalues --  -10.26195 -10.26191 -10.26191 -10.25986 -10.25814
 Alpha  occ. eigenvalues --  -10.25756 -10.25669 -10.25501 -10.25431 -10.25261
 Alpha  occ. eigenvalues --  -10.25227 -10.25032 -10.24903 -10.24808 -10.24664
 Alpha  occ. eigenvalues --  -10.24345 -10.24160 -10.23813 -10.23662  -1.17828
 Alpha  occ. eigenvalues --   -1.08394  -1.06012  -1.05534  -0.94575  -0.92867
 Alpha  occ. eigenvalues --   -0.92228  -0.90716  -0.90468  -0.89811  -0.87584
 Alpha  occ. eigenvalues --   -0.87372  -0.87021  -0.85579  -0.84624  -0.83531
 Alpha  occ. eigenvalues --   -0.82679  -0.81243  -0.80758  -0.79596  -0.77955
 Alpha  occ. eigenvalues --   -0.77340  -0.77195  -0.77143  -0.75993  -0.75933
 Alpha  occ. eigenvalues --   -0.75562  -0.73724  -0.72720  -0.70203  -0.69603
 Alpha  occ. eigenvalues --   -0.68507  -0.66664  -0.65990  -0.65332  -0.64439
 Alpha  occ. eigenvalues --   -0.63270  -0.62176  -0.61197  -0.60362  -0.59725
 Alpha  occ. eigenvalues --   -0.58333  -0.58084  -0.57186  -0.56793  -0.56024
 Alpha  occ. eigenvalues --   -0.55935  -0.55699  -0.54963  -0.54661  -0.54131
 Alpha  occ. eigenvalues --   -0.53840  -0.53526  -0.52738  -0.52633  -0.52361
 Alpha  occ. eigenvalues --   -0.52239  -0.51605  -0.51366  -0.50238  -0.49797
 Alpha  occ. eigenvalues --   -0.49427  -0.49276  -0.49076  -0.48729  -0.48561
 Alpha  occ. eigenvalues --   -0.48537  -0.48128  -0.47349  -0.46996  -0.46772
 Alpha  occ. eigenvalues --   -0.46404  -0.46285  -0.45940  -0.45639  -0.45568
 Alpha  occ. eigenvalues --   -0.45037  -0.45024  -0.44577  -0.44543  -0.44068
 Alpha  occ. eigenvalues --   -0.43962  -0.43584  -0.43514  -0.42955  -0.42800
 Alpha  occ. eigenvalues --   -0.42506  -0.42318  -0.41948  -0.41624  -0.41326
 Alpha  occ. eigenvalues --   -0.40986  -0.40622  -0.40369  -0.40134  -0.40081
 Alpha  occ. eigenvalues --   -0.39956  -0.39792  -0.39771  -0.39479  -0.38736
 Alpha  occ. eigenvalues --   -0.38224  -0.38190  -0.38129  -0.37492  -0.37454
 Alpha  occ. eigenvalues --   -0.36847  -0.35534  -0.34780  -0.33849  -0.33621
 Alpha  occ. eigenvalues --   -0.33260  -0.32002  -0.31862  -0.31420  -0.31145
 Alpha  occ. eigenvalues --   -0.29020  -0.27516  -0.24421  -0.19249
 Alpha virt. eigenvalues --   -0.05585   0.00282   0.03367   0.05521   0.07206
 Alpha virt. eigenvalues --    0.07545   0.07704   0.10882   0.11412   0.12086
 Alpha virt. eigenvalues --    0.12476   0.12640   0.13334   0.13856   0.13878

 Mulliken charges:
               1
     1  O   -0.495669
     2  O   -0.567657
     3  O   -0.565039
     4  O   -0.548668
     5  C    0.234654
     6  C    0.226333
     7  C    0.026291
     8  C   -0.204915
     9  C   -0.182387
    10  C    0.118044
    11  C   -0.344032
    12  C   -0.107742
    13  C   -0.258400
    14  C   -0.322622
    15  C   -0.096764
    16  C    0.082308
    17  C   -0.363434
    18  C   -0.116381
    19  C   -0.051610
    20  C    0.066381
    21  C    0.237636
    22  C   -0.216977
    23  C    0.148265
    24  C   -0.173818
    25  C   -0.093057
    26  C   -0.304520
    27  C   -0.314492
    28  C   -0.338274
    29  C   -0.116883
    30  C    0.208736
    31  C    0.103906
    32  C   -0.327532
    33  C   -0.386361
    34  C   -0.108906
    35  C    0.096455
    36  C   -0.381433
    37  C   -0.116468
    38  C   -0.078179
    39  C   -0.080694
    40  C   -0.083109
    41  C   -0.079194
    42  C   -0.117850
    43  C    0.130639
    44  C   -0.379649
    45  H    0.094604
    46  H    0.131145
    47  H    0.114173
    48  H    0.107916
    49  H    0.100820
    50  H    0.075700
    51  H    0.100199
    52  H    0.142091
    53  H    0.096183
    54  H    0.125230
    55  H    0.100306
    56  H    0.030678
    57  H    0.129812
    58  H    0.112373
    59  H    0.070235
    60  H    0.306873
    61  H    0.066698
    62  H    0.124974
    63  H    0.124411
    64  H    0.111330
    65  H    0.095610
    66  H    0.070431
    67  H    0.085834
    68  H    0.082676
    69  H    0.093974
    70  H    0.113683
    71  H    0.121348
    72  H    0.095412
    73  H    0.113351
    74  H    0.107392
    75  H    0.108678
    76  H    0.113702
    77  H    0.083157
    78  H    0.111855
    79  H    0.102561
    80  H    0.129008
    81  H    0.067950
    82  H    0.311093
    83  H    0.287454
    84  H    0.108932
    85  H    0.146576
    86  H    0.104748
    87  H    0.109521
    88  H    0.068719
    89  H    0.110150
    90  H    0.151448
    91  H    0.119574
    92  H    0.067486
    93  H    0.055074
    94  H    0.073645
    95  H    0.049979
    96  H    0.067936
    97  H    0.091182
    98  H    0.114867
    99  H    0.111441
   100  H    0.130873
 Sum of Mulliken charges =  -0.00000

 Dipole moment (field-independent basis, Debye):
    X=              3.2079    Y=              0.7862    Z=              1.2880  Tot=              3.5451
 Quadrupole moment (field-independent basis, Debye-Ang):
   XX=           -279.8825   YY=           -258.4208   ZZ=           -274.9835
   XY=             -3.4655   XZ=             33.7698   YZ=             -2.1329

 Normal termination of Gaussian 16 at Mon Jul 29 20:39:26 2019.
