 Gaussian 16, Revision A.03,
 Gaussian 16:  ES64L-G16RevA.03 25-Dec-2016

 -------------------------------------
 # td=(NStates=1) CAM-B3LYP/6-31G(d,p)
 -------------------------------------

 --
 TD
 --
 Symbolic Z-matrix:
 Charge =  0 Multiplicity = 1

                         Standard orientation:
 ---------------------------------------------------------------------
 Center     Atomic      Atomic             Coordinates (Angstroms)
 Number     Number       Type             X           Y           Z
 ---------------------------------------------------------------------
      1          8           0      -11.665975    0.265685   -1.548061
      2          8           0      -13.057411   -2.546572    1.380032
      3          8           0       10.600596   -1.047274   -2.130957
      4          8           0       14.388629   -1.007249   -0.040611
      5          6           0      -11.079463   -0.071760   -0.328432
      6          6           0      -11.573208   -1.150846   -1.313376
      7          6           0      -11.903965    0.356187    0.985036
      8          6           0      -12.852973   -1.824151   -0.996789
      9          6           0      -13.359375   -0.132166    0.858722
     10          6           0      -13.525538   -1.628282    0.363228
     11          6           0      -10.571099   -1.920734   -2.131656
     12          6           0       -9.544243    0.148685   -0.338640
     13          6           0      -11.292358   -0.102804    2.203548
     14          6           0      -11.844885    1.878411    0.989898
     15          6           0       -8.671484   -0.787791    0.059006
     16          6           0       -7.163692   -0.653221    0.187711
     17          6           0       -6.280362   -1.829487    0.447056
     18          6           0       -6.596646    0.650341   -0.004563
     19          6           0       -5.220270    0.834835   -0.126524
     20          6           0       11.911129   -0.081000    1.357968
     21          6           0       11.768376   -0.581430   -1.180390
     22          6           0       12.558051   -1.399099    1.541334
     23          6           0       13.312292   -1.953243    0.358047
     24          6           0       12.375473   -1.945784   -0.845731
     25          6           0       11.083662    0.018350    0.018088
     26          6           0       10.954378    0.166658    2.544692
     27          6           0       12.813481    1.095725    1.377517
     28          6           0       12.645975    0.383216   -2.097803
     29          6           0       -4.764844    2.146181   -0.309945
     30          6           0        9.964490    0.645524   -0.001775
     31          6           0       -3.380351    2.465907   -0.354619
     32          6           0        8.706876    1.037147   -0.079337
     33          6           0       -3.128789    3.980098   -0.612878
     34          6           0       -2.315612    1.553908   -0.268958
     35          6           0        7.419781    0.228444    0.038306
     36          6           0        7.703452   -1.248816    0.144058
     37          6           0        6.254281    0.836601    0.002152
     38          6           0       -0.983248    1.978489   -0.437391
     39          6           0        4.975609    0.243997   -0.112502
     40          6           0        0.072835    1.059625   -0.203340
     41          6           0        3.888615    1.023937   -0.104822
     42          6           0        1.443299    1.286135   -0.312372
     43          6           0        2.485058    0.457987   -0.105870
     44          6           0        2.308463   -0.963725    0.175977
     45          1           0      -12.631900   -2.863818   -0.995560
     46          1           0      -13.611194   -1.538360   -1.721980
     47          1           0      -13.944854    0.097102    1.903690
     48          1           0      -13.832138    0.437232    0.154693
     49          1           0      -14.651773   -1.663902    0.367878
     50          1           0      -10.340293   -2.855189   -1.481771
     51          1           0      -10.983926   -2.071763   -3.269823
     52          1           0       -9.629253   -1.414275   -2.403411
     53          1           0       -9.209204    1.156281   -0.584934
     54          1           0      -10.182267    0.082761    2.225612
     55          1           0      -11.898941    0.367744    3.058781
     56          1           0      -11.461526   -1.378756    2.368692
     57          1           0      -12.189962    2.462430    0.141540
     58          1           0      -12.175356    2.160761    2.075062
     59          1           0      -10.886801    2.157062    1.029500
     60          1           0      -12.100866   -2.583334    1.452309
     61          1           0       -8.932594   -1.694545    0.582405
     62          1           0       -5.458701   -2.021526   -0.352000
     63          1           0       -5.615059   -1.506759    1.408003
     64          1           0       -6.859541   -2.747915    0.707925
     65          1           0       -7.245203    1.554862   -0.278215
     66          1           0       -4.548135    0.086505    0.088700
     67          1           0       13.070614   -1.575983    2.472939
     68          1           0       11.846759   -2.344517    1.751897
     69          1           0       13.656068   -2.879289    0.563996
     70          1           0       12.782071   -2.470426   -1.708274
     71          1           0       11.624211   -2.574153   -0.789656
     72          1           0       11.382241    0.191771    3.519429
     73          1           0       10.479159    1.137154    2.237423
     74          1           0       10.110465   -0.522479    2.753625
     75          1           0       13.534781    1.116033    0.562914
     76          1           0       12.015726    1.928539    1.540147
     77          1           0       13.396527    0.883058    2.345405
     78          1           0       12.667831   -0.256385   -3.037871
     79          1           0       12.066704    1.207756   -2.244786
     80          1           0       13.538576    0.486771   -1.646582
     81          1           0       -5.540051    2.862970   -0.569009
     82          1           0       10.060419   -0.362335   -2.270126
     83          1           0       14.941768   -0.596766    0.688758
     84          1           0        8.601072    2.181880   -0.356122
     85          1           0       -2.706407    4.317368    0.374642
     86          1           0       -2.132628    4.313669   -1.190497
     87          1           0       -4.061406    4.400822   -0.857601
     88          1           0       -2.585008    0.528866   -0.213073
     89          1           0        6.761541   -1.776409    0.163541
     90          1           0        8.421409   -1.634443   -0.682654
     91          1           0        8.206366   -1.610386    0.985896
     92          1           0        6.312754    1.886234   -0.084809
     93          1           0       -0.509490    2.942374   -0.416476
     94          1           0        4.793479   -0.780020   -0.411134
     95          1           0       -0.383415    0.052774   -0.054681
     96          1           0        3.954475    2.037030   -0.079699
     97          1           0        1.836330    2.435886   -0.312564
     98          1           0        1.099059   -1.284075    0.354324
     99          1           0        2.571275   -1.719499   -0.426988
    100          1           0        2.890471   -1.275415    0.969569
 ---------------------------------------------------------------------

 SCF Done:  E(RCAM-B3LYP) =  -1857.34119907     A.U. after   15 cycles

 Excitation energies and oscillator strengths:

 Excited State   1:      Singlet-A      2.2468 eV  551.82 nm  f=2.5061  <S**2>=0.000
     163 ->166         0.12485
     164 ->165         0.69799
 This state for optimization and/or second-order correction.
 Total Energy, E(TD-HF/TD-DFT) =  -1857.25862962
 Copying the excited state density for this state as the 1-particle RhoCI density.

 The electronic state is 1-A.
 Alpha  occ. eigenvalues --  -19.22454 -19.21681 -19.20856 -19.18774 -10.32559
 Alpha  occ. eigenvalues --  -10.32189 -10.31999 -10.31538 -10.31006 -10.28482
 Alpha  occ. eigenvalues --  -10.28430 -10.27998 -10.27988 -10.27756 -10.27622
 Alpha  occ. eigenvalues --  -10.27547 -10.27278 -10.27262 -10.27142 -10.27078
 Alpha  occ. eigenvalues --  -10.26896 -10.26883 -10.26842 -10.26821 -10.26686
 Alpha  occ. eigenvalues --  -10.26644 -10.26559 -10.26545 -10.26405 -10.26381
 Alpha  occ. eigenvalues --  -10.26328 -10.26058 -10.25978 -10.25783 -10.25712
 Alpha  occ. eigenvalues --  -10.25482 -10.25233 -10.25151 -10.25121 -10.24582
 Alpha  occ. eigenvalues --  -10.24536 -10.23987 -10.23978 -10.23298  -1.15848
 Alpha  occ. eigenvalues --   -1.08539  -1.07611  -1.06774  -0.94184  -0.92480
 Alpha  occ. eigenvalues --   -0.92004  -0.91397  -0.90617  -0.89696  -0.87514
 Alpha  occ. eigenvalues --   -0.87342  -0.87207  -0.86334  -0.84888  -0.83644
 Alpha  occ. eigenvalues --   -0.82043  -0.81268  -0.80854  -0.78944  -0.77371
 Alpha  occ. eigenvalues --   -0.76919  -0.76696  -0.76526  -0.75783  -0.75717
 Alpha  occ. eigenvalues --   -0.75519  -0.74036  -0.72869  -0.71000  -0.69948
 Alpha  occ. eigenvalues --   -0.68548  -0.66951  -0.65168  -0.64739  -0.64532
 Alpha  occ. eigenvalues --   -0.63873  -0.63203  -0.61820  -0.61471  -0.60046
 Alpha  occ. eigenvalues --   -0.59467  -0.57914  -0.57815  -0.57760  -0.56566
 Alpha  occ. eigenvalues --   -0.55976  -0.55299  -0.55027  -0.54830  -0.54604
 Alpha  occ. eigenvalues --   -0.54403  -0.53154  -0.52846  -0.52422  -0.51899
 Alpha  occ. eigenvalues --   -0.51318  -0.51049  -0.50525  -0.50385  -0.49901
 Alpha  occ. eigenvalues --   -0.49675  -0.49356  -0.49350  -0.49165  -0.48320
 Alpha  occ. eigenvalues --   -0.48277  -0.47379  -0.47145  -0.46866  -0.46639
 Alpha  occ. eigenvalues --   -0.46499  -0.46004  -0.45832  -0.45558  -0.45475
 Alpha  occ. eigenvalues --   -0.45070  -0.44940  -0.44436  -0.44024  -0.43855
 Alpha  occ. eigenvalues --   -0.43500  -0.43223  -0.43048  -0.42955  -0.42777
 Alpha  occ. eigenvalues --   -0.42584  -0.42269  -0.41721  -0.41570  -0.41306
 Alpha  occ. eigenvalues --   -0.41073  -0.40833  -0.40660  -0.40321  -0.39893
 Alpha  occ. eigenvalues --   -0.39642  -0.39503  -0.39390  -0.39101  -0.38778
 Alpha  occ. eigenvalues --   -0.38612  -0.38339  -0.38219  -0.37982  -0.37508
 Alpha  occ. eigenvalues --   -0.36667  -0.36185  -0.34678  -0.33791  -0.33242
 Alpha  occ. eigenvalues --   -0.33089  -0.32382  -0.32081  -0.31603  -0.30108
 Alpha  occ. eigenvalues --   -0.30030  -0.27850  -0.24969  -0.19949
 Alpha virt. eigenvalues --   -0.05761  -0.00440   0.03308   0.06304   0.06657
 Alpha virt. eigenvalues --    0.09506   0.09617   0.09999   0.11603   0.11830
 Alpha virt. eigenvalues --    0.12376   0.12892   0.13580   0.13639   0.13910

 Mulliken charges:
               1
     1  O   -0.502237
     2  O   -0.551424
     3  O   -0.574773
     4  O   -0.579911
     5  C    0.197143
     6  C    0.238980
     7  C    0.031573
     8  C   -0.205723
     9  C   -0.179113
    10  C    0.148281
    11  C   -0.322908
    12  C   -0.118129
    13  C   -0.278023
    14  C   -0.305783
    15  C   -0.062964
    16  C    0.052169
    17  C   -0.374141
    18  C   -0.108213
    19  C   -0.038611
    20  C   -0.003733
    21  C    0.182333
    22  C   -0.197931
    23  C    0.163164
    24  C   -0.165816
    25  C   -0.024067
    26  C   -0.305928
    27  C   -0.267199
    28  C   -0.286190
    29  C   -0.139257
    30  C    0.123482
    31  C    0.088365
    32  C   -0.294649
    33  C   -0.368252
    34  C   -0.118976
    35  C    0.144989
    36  C   -0.388945
    37  C   -0.119111
    38  C   -0.069354
    39  C   -0.084405
    40  C   -0.098810
    41  C   -0.098708
    42  C   -0.136215
    43  C    0.135348
    44  C   -0.386593
    45  H    0.114459
    46  H    0.119773
    47  H    0.073961
    48  H    0.109366
    49  H    0.108160
    50  H    0.097554
    51  H    0.091734
    52  H    0.136897
    53  H    0.099956
    54  H    0.111956
    55  H    0.102426
    56  H    0.037144
    57  H    0.121508
    58  H    0.082188
    59  H    0.109245
    60  H    0.299794
    61  H    0.074409
    62  H    0.125388
    63  H    0.111800
    64  H    0.110764
    65  H    0.080224
    66  H    0.081937
    67  H    0.096592
    68  H    0.078567
    69  H    0.090927
    70  H    0.109668
    71  H    0.128564
    72  H    0.100590
    73  H    0.104397
    74  H    0.102162
    75  H    0.115775
    76  H    0.099947
    77  H    0.075463
    78  H    0.119411
    79  H    0.101472
    80  H    0.137846
    81  H    0.088839
    82  H    0.288030
    83  H    0.308395
    84  H    0.087030
    85  H    0.126083
    86  H    0.109448
    87  H    0.113855
    88  H    0.085089
    89  H    0.098564
    90  H    0.131305
    91  H    0.129543
    92  H    0.084786
    93  H    0.085997
    94  H    0.098203
    95  H    0.074639
    96  H    0.076101
    97  H    0.061713
    98  H    0.079475
    99  H    0.133477
   100  H    0.127667
 Sum of Mulliken charges =  -0.00000

 Dipole moment (field-independent basis, Debye):
    X=              3.0085    Y=             -0.2680    Z=              2.3681  Tot=              3.8381
 Quadrupole moment (field-independent basis, Debye-Ang):
   XX=           -280.8223   YY=           -259.3898   ZZ=           -280.0205
   XY=             -7.1327   XZ=             35.4336   YZ=             -2.7135

 Normal termination of Gaussian 16 at Thu Aug  1 07:42:34 2019.
