 Gaussian 16, Revision A.03,
 Gaussian 16:  ES64L-G16RevA.03 25-Dec-2016

 -------------------------------------
 # td=(NStates=1) CAM-B3LYP/6-31G(d,p)
 -------------------------------------

 --
 TD
 --
 Symbolic Z-matrix:
 Charge =  0 Multiplicity = 1

                         Standard orientation:
 ---------------------------------------------------------------------
 Center     Atomic      Atomic             Coordinates (Angstroms)
 Number     Number       Type             X           Y           Z
 ---------------------------------------------------------------------
      1          8           0      -11.790179    0.333263   -1.401331
      2          8           0      -13.015125   -2.598318    1.369670
      3          8           0       10.618592   -1.056737   -2.074269
      4          8           0       14.518968   -1.219328    0.088191
      5          6           0      -11.034536   -0.113091   -0.247063
      6          6           0      -11.661400   -1.073324   -1.233670
      7          6           0      -11.772877    0.308642    1.088808
      8          6           0      -13.153488   -1.747558   -0.950311
      9          6           0      -13.245889   -0.046391    1.009080
     10          6           0      -13.561133   -1.528287    0.549348
     11          6           0      -10.880634   -1.808771   -2.194923
     12          6           0       -9.581823    0.192072   -0.232215
     13          6           0      -11.042705   -0.199951    2.318405
     14          6           0      -11.660001    1.850552    1.127884
     15          6           0       -8.714056   -0.844602    0.055141
     16          6           0       -7.168844   -0.754476    0.023614
     17          6           0       -6.366402   -1.983487    0.076103
     18          6           0       -6.576313    0.470831    0.092537
     19          6           0       -5.265932    0.894202   -0.059219
     20          6           0       11.923821   -0.036213    1.382476
     21          6           0       11.649153   -0.611959   -1.231993
     22          6           0       12.562353   -1.367661    1.585480
     23          6           0       13.299652   -1.957183    0.425612
     24          6           0       12.445350   -1.917431   -0.772378
     25          6           0       11.110511    0.081201    0.009689
     26          6           0       11.025488    0.269470    2.541618
     27          6           0       12.999525    1.167849    1.297894
     28          6           0       12.572828    0.351202   -1.978087
     29          6           0       -4.754968    2.187477   -0.335136
     30          6           0        9.951053    0.587382    0.052056
     31          6           0       -3.437279    2.607805   -0.380885
     32          6           0        8.757150    1.053436   -0.044993
     33          6           0       -3.140848    4.105574   -0.526415
     34          6           0       -2.316109    1.579974   -0.386038
     35          6           0        7.502831    0.243493   -0.028951
     36          6           0        7.610300   -1.246994    0.263388
     37          6           0        6.292700    0.927150   -0.171647
     38          6           0       -0.943034    1.942744   -0.396055
     39          6           0        4.976572    0.401621   -0.057209
     40          6           0        0.019255    0.889155   -0.452529
     41          6           0        3.774294    1.024770   -0.292876
     42          6           0        1.406607    1.240299   -0.470652
     43          6           0        2.495083    0.385137   -0.289376
     44          6           0        2.280546   -1.081519   -0.089130
     45          1           0      -13.090852   -2.778098   -1.289011
     46          1           0      -13.866449   -1.174083   -1.715244
     47          1           0      -13.719761    0.282783    1.900395
     48          1           0      -13.764921    0.725242    0.336373
     49          1           0      -14.576353   -1.640100    0.656381
     50          1           0      -10.637630   -2.798772   -1.742179
     51          1           0      -11.491174   -2.067039   -3.033012
     52          1           0       -9.956385   -1.467509   -2.494018
     53          1           0       -9.233754    1.218636   -0.493903
     54          1           0      -10.136905    0.154407    2.264349
     55          1           0      -11.508840    0.103549    3.292790
     56          1           0      -11.030164   -1.334793    2.448021
     57          1           0      -12.077108    2.480112    0.365714
     58          1           0      -12.169036    2.206604    2.018992
     59          1           0      -10.595015    2.158498    1.243393
     60          1           0      -12.235982   -3.206721    0.947830
     61          1           0       -9.000573   -1.757868    0.272444
     62          1           0       -5.894889   -2.325294   -1.018613
     63          1           0       -5.462630   -1.686832    0.727851
     64          1           0       -6.819075   -2.723189    0.573669
     65          1           0       -7.206745    1.392381    0.263282
     66          1           0       -4.541033    0.179877    0.059610
     67          1           0       13.100538   -1.419347    2.455204
     68          1           0       11.699641   -2.070639    1.902407
     69          1           0       13.624805   -3.011943    0.596127
     70          1           0       13.082495   -2.280768   -1.583250
     71          1           0       11.746884   -2.626121   -0.670174
     72          1           0       11.530106   -0.111776    3.626006
     73          1           0       10.886653    1.345955    2.471857
     74          1           0       10.086741   -0.321500    2.845228
     75          1           0       13.659868    0.760952    0.428715
     76          1           0       12.633239    2.034388    1.189908
     77          1           0       13.579059    1.078942    2.168999
     78          1           0       12.926242   -0.207740   -2.940598
     79          1           0       11.804527    1.246472   -2.220282
     80          1           0       13.274517    0.724508   -1.366184
     81          1           0       -5.500229    3.045127   -0.317320
     82          1           0        9.983375   -0.276281   -2.123194
     83          1           0       14.831730   -1.269812    0.978016
     84          1           0        8.765802    1.998051   -0.589417
     85          1           0       -2.603151    4.220571    0.641227
     86          1           0       -2.284068    4.328797   -1.175915
     87          1           0       -4.049841    4.405599   -0.571750
     88          1           0       -2.333862    0.486862   -0.368655
     89          1           0        6.838798   -1.840539   -0.094646
     90          1           0        8.423589   -1.628887   -0.313983
     91          1           0        7.704156   -1.433404    1.396204
     92          1           0        6.499386    2.082660   -0.050228
     93          1           0       -0.682695    3.089905   -0.697061
     94          1           0        4.994222   -0.763013    0.116793
     95          1           0       -0.350272   -0.030311   -0.340635
     96          1           0        3.841499    2.103552   -0.578046
     97          1           0        1.505199    2.478338   -0.665234
     98          1           0        1.300330   -1.251886   -0.240997
     99          1           0        2.903667   -1.676995   -0.744497
    100          1           0        2.673470   -1.481371    0.927906
 ---------------------------------------------------------------------

 SCF Done:  E(RCAM-B3LYP) =  -1857.30300139     A.U. after   15 cycles

 Excitation energies and oscillator strengths:

 Excited State   1:      Singlet-A      1.9191 eV  646.06 nm  f=2.6251  <S**2>=0.000
     163 ->166        -0.11369
     164 ->165         0.70583
     164 <-165        -0.12696
 This state for optimization and/or second-order correction.
 Total Energy, E(TD-HF/TD-DFT) =  -1857.23247692
 Copying the excited state density for this state as the 1-particle RhoCI density.

 The electronic state is 1-A.
 Alpha  occ. eigenvalues --  -19.22040 -19.21668 -19.21603 -19.21407 -10.32082
 Alpha  occ. eigenvalues --  -10.32061 -10.31439 -10.31127 -10.31057 -10.28967
 Alpha  occ. eigenvalues --  -10.28559 -10.28330 -10.28105 -10.28024 -10.28018
 Alpha  occ. eigenvalues --  -10.27684 -10.27652 -10.27299 -10.27266 -10.27212
 Alpha  occ. eigenvalues --  -10.27203 -10.26968 -10.26938 -10.26878 -10.26843
 Alpha  occ. eigenvalues --  -10.26774 -10.26744 -10.26537 -10.26522 -10.26427
 Alpha  occ. eigenvalues --  -10.26220 -10.26075 -10.25977 -10.25911 -10.25761
 Alpha  occ. eigenvalues --  -10.25646 -10.25027 -10.24848 -10.24739 -10.24410
 Alpha  occ. eigenvalues --  -10.23729 -10.23654 -10.23280 -10.22897  -1.14170
 Alpha  occ. eigenvalues --   -1.10949  -1.10063  -1.06157  -0.93499  -0.91980
 Alpha  occ. eigenvalues --   -0.91512  -0.90606  -0.90238  -0.89682  -0.87388
 Alpha  occ. eigenvalues --   -0.86380  -0.85984  -0.85543  -0.85216  -0.83413
 Alpha  occ. eigenvalues --   -0.82711  -0.81185  -0.81089  -0.78519  -0.77526
 Alpha  occ. eigenvalues --   -0.77219  -0.76846  -0.76571  -0.76029  -0.75793
 Alpha  occ. eigenvalues --   -0.75179  -0.73909  -0.72538  -0.69961  -0.69589
 Alpha  occ. eigenvalues --   -0.68730  -0.66576  -0.65688  -0.64743  -0.64253
 Alpha  occ. eigenvalues --   -0.63327  -0.62396  -0.61306  -0.59848  -0.58680
 Alpha  occ. eigenvalues --   -0.58655  -0.58615  -0.57859  -0.57450  -0.56551
 Alpha  occ. eigenvalues --   -0.55942  -0.55670  -0.55081  -0.54370  -0.54099
 Alpha  occ. eigenvalues --   -0.53487  -0.53028  -0.52881  -0.52353  -0.51965
 Alpha  occ. eigenvalues --   -0.51738  -0.51164  -0.50854  -0.50204  -0.50094
 Alpha  occ. eigenvalues --   -0.49776  -0.49294  -0.48786  -0.48720  -0.48300
 Alpha  occ. eigenvalues --   -0.48209  -0.47959  -0.47605  -0.47403  -0.47195
 Alpha  occ. eigenvalues --   -0.47076  -0.46910  -0.46800  -0.46629  -0.46096
 Alpha  occ. eigenvalues --   -0.45222  -0.45091  -0.44526  -0.44092  -0.44024
 Alpha  occ. eigenvalues --   -0.43937  -0.43791  -0.43367  -0.42920  -0.42563
 Alpha  occ. eigenvalues --   -0.41885  -0.41791  -0.41282  -0.41263  -0.41092
 Alpha  occ. eigenvalues --   -0.40990  -0.40866  -0.40534  -0.40128  -0.39708
 Alpha  occ. eigenvalues --   -0.39569  -0.39405  -0.39335  -0.38867  -0.38737
 Alpha  occ. eigenvalues --   -0.38629  -0.37627  -0.37613  -0.37540  -0.37091
 Alpha  occ. eigenvalues --   -0.36573  -0.35924  -0.35106  -0.34319  -0.33423
 Alpha  occ. eigenvalues --   -0.33123  -0.32409  -0.31759  -0.31062  -0.30550
 Alpha  occ. eigenvalues --   -0.30049  -0.28124  -0.24376  -0.18858
 Alpha virt. eigenvalues --   -0.06730  -0.00648   0.02906   0.06447   0.07815
 Alpha virt. eigenvalues --    0.08326   0.09492   0.10434   0.11044   0.11173
 Alpha virt. eigenvalues --    0.12666   0.12901   0.12984   0.13695   0.13821

 Mulliken charges:
               1
     1  O   -0.505778
     2  O   -0.583689
     3  O   -0.565262
     4  O   -0.528251
     5  C    0.209609
     6  C    0.252523
     7  C    0.033668
     8  C   -0.232753
     9  C   -0.205006
    10  C    0.207271
    11  C   -0.340848
    12  C   -0.119985
    13  C   -0.294506
    14  C   -0.325724
    15  C   -0.056673
    16  C    0.071358
    17  C   -0.365709
    18  C   -0.105655
    19  C   -0.061726
    20  C    0.015121
    21  C    0.246193
    22  C   -0.208400
    23  C    0.113454
    24  C   -0.183869
    25  C   -0.105990
    26  C   -0.290129
    27  C   -0.310732
    28  C   -0.258662
    29  C   -0.121544
    30  C    0.203831
    31  C    0.041009
    32  C   -0.311491
    33  C   -0.314231
    34  C   -0.116291
    35  C    0.081333
    36  C   -0.369007
    37  C   -0.103939
    38  C   -0.077284
    39  C   -0.110741
    40  C   -0.093308
    41  C   -0.096927
    42  C   -0.122310
    43  C    0.103271
    44  C   -0.359453
    45  H    0.095591
    46  H    0.108563
    47  H    0.098825
    48  H    0.102910
    49  H    0.102536
    50  H    0.088370
    51  H    0.117118
    52  H    0.131433
    53  H    0.118739
    54  H    0.114399
    55  H    0.092145
    56  H    0.095227
    57  H    0.120763
    58  H    0.098125
    59  H    0.090069
    60  H    0.311070
    61  H    0.068988
    62  H    0.103478
    63  H    0.114580
    64  H    0.123646
    65  H    0.070819
    66  H    0.071312
    67  H    0.097546
    68  H    0.099765
    69  H    0.089919
    70  H    0.107383
    71  H    0.117364
    72  H    0.054613
    73  H    0.112714
    74  H    0.105416
    75  H    0.128328
    76  H    0.109253
    77  H    0.093593
    78  H    0.106797
    79  H    0.056374
    80  H    0.127115
    81  H    0.069168
    82  H    0.310668
    83  H    0.302712
    84  H    0.113947
    85  H    0.099298
    86  H    0.138460
    87  H    0.114276
    88  H    0.088073
    89  H    0.119411
    90  H    0.130563
    91  H    0.116855
    92  H    0.077769
    93  H    0.071542
    94  H    0.068507
    95  H    0.086026
    96  H    0.086444
    97  H    0.073894
    98  H    0.114665
    99  H    0.126597
   100  H    0.113474
 Sum of Mulliken charges =  -0.00000

 Dipole moment (field-independent basis, Debye):
    X=              1.1731    Y=             -1.6760    Z=              1.7511  Tot=              2.6928
 Quadrupole moment (field-independent basis, Debye-Ang):
   XX=           -294.3332   YY=           -252.7762   ZZ=           -279.1452
   XY=              2.3938   XZ=             38.3301   YZ=             -2.0058

 Normal termination of Gaussian 16 at Fri Aug  2 10:37:36 2019.
