 Gaussian 16, Revision A.03,
 Gaussian 16:  ES64L-G16RevA.03 25-Dec-2016

 -------------------------------------
 # td=(NStates=1) CAM-B3LYP/6-31G(d,p)
 -------------------------------------

 --
 TD
 --
 Symbolic Z-matrix:
 Charge =  0 Multiplicity = 1

                         Standard orientation:
 ---------------------------------------------------------------------
 Center     Atomic      Atomic             Coordinates (Angstroms)
 Number     Number       Type             X           Y           Z
 ---------------------------------------------------------------------
      1          8           0      -11.721353    0.480681   -1.401470
      2          8           0      -12.900331   -2.972925    0.885893
      3          8           0       10.627024   -0.791710   -2.169051
      4          8           0       14.351553   -1.090052   -0.143147
      5          6           0      -11.113861   -0.113395   -0.305510
      6          6           0      -11.595663   -0.953469   -1.333727
      7          6           0      -11.715031    0.126170    1.117492
      8          6           0      -12.976984   -1.604338   -1.115727
      9          6           0      -13.289148   -0.410653    1.033962
     10          6           0      -13.427129   -1.648621    0.358382
     11          6           0      -10.742773   -1.555015   -2.495163
     12          6           0       -9.547501    0.152325   -0.369163
     13          6           0      -10.847885   -0.631765    2.180967
     14          6           0      -11.690171    1.603728    1.355695
     15          6           0       -8.597996   -0.724464    0.039602
     16          6           0       -7.141533   -0.488507    0.118439
     17          6           0       -6.349761   -1.649990    0.366270
     18          6           0       -6.634541    0.848926   -0.085768
     19          6           0       -5.291713    1.096786    0.057159
     20          6           0       11.817009   -0.237056    1.388374
     21          6           0       11.670462   -0.442314   -1.305882
     22          6           0       12.477854   -1.565477    1.372039
     23          6           0       13.181961   -1.888432    0.054896
     24          6           0       12.405283   -1.801169   -1.142345
     25          6           0       11.069306   -0.078974    0.137425
     26          6           0       10.902448   -0.110112    2.679721
     27          6           0       12.795188    0.921611    1.565027
     28          6           0       12.674983    0.567741   -1.805244
     29          6           0       -4.749078    2.377589   -0.191543
     30          6           0        9.904345    0.495048    0.011679
     31          6           0       -3.364179    2.737634   -0.124032
     32          6           0        8.614472    0.965480   -0.120339
     33          6           0       -3.069896    4.151751   -0.498606
     34          6           0       -2.316034    1.761828   -0.039763
     35          6           0        7.463777    0.106677   -0.138611
     36          6           0        7.667394   -1.408258    0.119416
     37          6           0        6.245945    0.767583   -0.191908
     38          6           0       -0.946304    1.977235   -0.045364
     39          6           0        4.936892    0.242884   -0.049014
     40          6           0        0.042940    1.061456   -0.006415
     41          6           0        3.773686    0.933899   -0.207932
     42          6           0        1.422841    1.248067   -0.142496
     43          6           0        2.447749    0.457095   -0.054379
     44          6           0        2.145420   -1.065994    0.031908
     45          1           0      -12.834188   -2.580776   -1.647543
     46          1           0      -13.711359   -1.253254   -1.814573
     47          1           0      -13.486360   -0.516330    2.241939
     48          1           0      -13.903363    0.253312    0.533227
     49          1           0      -14.550313   -2.023592    0.563924
     50          1           0      -10.595560   -2.553273   -2.319871
     51          1           0      -11.582152   -1.552640   -3.211614
     52          1           0       -9.938820   -0.879598   -3.001041
     53          1           0       -9.222822    1.094543   -0.718466
     54          1           0       -9.888358   -0.304901    2.482394
     55          1           0      -11.460014   -0.818874    3.177508
     56          1           0      -10.745653   -1.797559    1.582181
     57          1           0      -12.127127    2.319009    0.672293
     58          1           0      -12.161295    1.841249    2.257238
     59          1           0      -10.669813    2.036999    1.454391
     60          1           0      -11.848896   -2.598701    1.078992
     61          1           0       -8.658633   -1.868354    0.167312
     62          1           0       -5.679354   -1.965878   -0.480853
     63          1           0       -5.686950   -1.362046    1.170654
     64          1           0       -7.028618   -2.474439    0.770067
     65          1           0       -7.293402    1.753367   -0.376058
     66          1           0       -4.502301    0.403887    0.474355
     67          1           0       13.246773   -1.757141    2.218579
     68          1           0       11.768662   -2.416650    1.707581
     69          1           0       13.753706   -2.903481    0.140347
     70          1           0       13.067047   -2.065334   -2.025575
     71          1           0       11.623583   -2.558884   -0.799469
     72          1           0       11.449553   -0.065692    3.626372
     73          1           0       10.513053    0.858014    2.726396
     74          1           0       10.306345   -0.877771    2.720619
     75          1           0       13.529148    1.134608    0.822671
     76          1           0       12.326102    1.899766    1.462649
     77          1           0       13.221345    1.035497    2.524150
     78          1           0       12.900312    0.150203   -2.878963
     79          1           0       12.262906    1.671401   -2.207389
     80          1           0       13.654385    0.709556   -1.325715
     81          1           0       -5.522639    3.272057   -0.310111
     82          1           0       10.135647    0.155400   -2.478343
     83          1           0       14.720376   -0.764364    0.919099
     84          1           0        8.528228    2.037679   -0.386123
     85          1           0       -2.469814    4.496915    0.350147
     86          1           0       -2.431219    4.421373   -1.488976
     87          1           0       -4.042023    4.672840   -0.656525
     88          1           0       -2.597272    0.647421    0.198541
     89          1           0        6.792588   -1.993393    0.180444
     90          1           0        8.310723   -1.709833   -0.852212
     91          1           0        8.185368   -1.563275    1.051844
     92          1           0        6.150751    1.842727   -0.323725
     93          1           0       -0.606253    3.109033   -0.266748
     94          1           0        4.953404   -0.986554    0.149159
     95          1           0       -0.170547    0.032970   -0.010679
     96          1           0        3.879272    2.064289   -0.389354
     97          1           0        1.597555    2.320554   -0.359515
     98          1           0        1.051912   -1.387147   -0.081978
     99          1           0        2.704422   -1.384167   -0.766074
    100          1           0        2.410175   -1.599775    1.057471
 ---------------------------------------------------------------------

 SCF Done:  E(RCAM-B3LYP) =  -1857.26763538     A.U. after   15 cycles

 Excitation energies and oscillator strengths:

 Excited State   1:      Singlet-A      2.0900 eV  593.24 nm  f=2.8006  <S**2>=0.000
     163 ->166         0.13248
     164 ->165         0.69615
 This state for optimization and/or second-order correction.
 Total Energy, E(TD-HF/TD-DFT) =  -1857.19083068
 Copying the excited state density for this state as the 1-particle RhoCI density.

 The electronic state is 1-A.
 Alpha  occ. eigenvalues --  -19.22918 -19.22021 -19.21809 -19.21307 -10.32867
 Alpha  occ. eigenvalues --  -10.32124 -10.31966 -10.31504 -10.30443 -10.29581
 Alpha  occ. eigenvalues --  -10.29402 -10.28461 -10.28097 -10.27918 -10.27857
 Alpha  occ. eigenvalues --  -10.27465 -10.27341 -10.27295 -10.27292 -10.27195
 Alpha  occ. eigenvalues --  -10.27146 -10.27055 -10.26991 -10.26949 -10.26847
 Alpha  occ. eigenvalues --  -10.26797 -10.26724 -10.26608 -10.26485 -10.26464
 Alpha  occ. eigenvalues --  -10.26396 -10.26365 -10.26302 -10.26053 -10.25995
 Alpha  occ. eigenvalues --  -10.25988 -10.25881 -10.25721 -10.25357 -10.25092
 Alpha  occ. eigenvalues --  -10.24563 -10.24339 -10.24093 -10.23560  -1.17042
 Alpha  occ. eigenvalues --   -1.09361  -1.07094  -1.04328  -0.93827  -0.92320
 Alpha  occ. eigenvalues --   -0.91928  -0.90874  -0.90483  -0.89891  -0.87142
 Alpha  occ. eigenvalues --   -0.86669  -0.86540  -0.85214  -0.84290  -0.83254
 Alpha  occ. eigenvalues --   -0.82514  -0.81662  -0.80297  -0.78073  -0.77734
 Alpha  occ. eigenvalues --   -0.77192  -0.77111  -0.76809  -0.76438  -0.75896
 Alpha  occ. eigenvalues --   -0.75608  -0.73873  -0.73044  -0.69693  -0.69085
 Alpha  occ. eigenvalues --   -0.67338  -0.66446  -0.66327  -0.65442  -0.64351
 Alpha  occ. eigenvalues --   -0.62751  -0.60746  -0.60100  -0.59339  -0.58885
 Alpha  occ. eigenvalues --   -0.58474  -0.58043  -0.57418  -0.57045  -0.56100
 Alpha  occ. eigenvalues --   -0.55282  -0.54847  -0.54589  -0.54482  -0.54310
 Alpha  occ. eigenvalues --   -0.54145  -0.52866  -0.52719  -0.52561  -0.52414
 Alpha  occ. eigenvalues --   -0.51525  -0.51261  -0.50628  -0.50483  -0.49767
 Alpha  occ. eigenvalues --   -0.49578  -0.49243  -0.49115  -0.48728  -0.48273
 Alpha  occ. eigenvalues --   -0.48080  -0.47980  -0.47708  -0.47164  -0.46444
 Alpha  occ. eigenvalues --   -0.46340  -0.45731  -0.45552  -0.45323  -0.45183
 Alpha  occ. eigenvalues --   -0.44674  -0.44597  -0.44325  -0.44131  -0.43863
 Alpha  occ. eigenvalues --   -0.43703  -0.43631  -0.43434  -0.42640  -0.42402
 Alpha  occ. eigenvalues --   -0.42272  -0.42146  -0.41738  -0.41278  -0.41050
 Alpha  occ. eigenvalues --   -0.40691  -0.40575  -0.40444  -0.40129  -0.40029
 Alpha  occ. eigenvalues --   -0.39758  -0.39554  -0.39243  -0.39206  -0.38626
 Alpha  occ. eigenvalues --   -0.38351  -0.37966  -0.37229  -0.37098  -0.37019
 Alpha  occ. eigenvalues --   -0.36424  -0.36304  -0.35423  -0.34113  -0.33453
 Alpha  occ. eigenvalues --   -0.33192  -0.32044  -0.31535  -0.31139  -0.30864
 Alpha  occ. eigenvalues --   -0.29816  -0.27712  -0.23560  -0.19230
 Alpha virt. eigenvalues --   -0.05954  -0.00960   0.03131   0.06274   0.06497
 Alpha virt. eigenvalues --    0.07563   0.08263   0.10453   0.10524   0.11478
 Alpha virt. eigenvalues --    0.12001   0.12570   0.12777   0.13172   0.13323

 Mulliken charges:
               1
     1  O   -0.500111
     2  O   -0.559154
     3  O   -0.560005
     4  O   -0.569640
     5  C    0.232827
     6  C    0.198933
     7  C    0.006612
     8  C   -0.191815
     9  C   -0.172153
    10  C    0.112709
    11  C   -0.326904
    12  C   -0.132199
    13  C   -0.272142
    14  C   -0.326016
    15  C   -0.065847
    16  C    0.072394
    17  C   -0.386416
    18  C   -0.109492
    19  C   -0.055163
    20  C    0.033367
    21  C    0.279085
    22  C   -0.222102
    23  C    0.183637
    24  C   -0.168079
    25  C   -0.069934
    26  C   -0.299515
    27  C   -0.338057
    28  C   -0.317109
    29  C   -0.148234
    30  C    0.113585
    31  C    0.083514
    32  C   -0.259592
    33  C   -0.362557
    34  C   -0.109791
    35  C    0.097980
    36  C   -0.358716
    37  C   -0.101236
    38  C   -0.080499
    39  C   -0.080710
    40  C   -0.063311
    41  C   -0.140275
    42  C   -0.130062
    43  C    0.137839
    44  C   -0.368168
    45  H    0.107340
    46  H    0.120133
    47  H    0.092490
    48  H    0.136304
    49  H    0.095255
    50  H    0.126976
    51  H    0.112354
    52  H    0.128206
    53  H    0.101235
    54  H    0.144580
    55  H    0.103894
    56  H    0.024810
    57  H    0.125229
    58  H    0.106641
    59  H    0.101028
    60  H    0.283638
    61  H    0.069162
    62  H    0.135853
    63  H    0.132100
    64  H    0.106084
    65  H    0.092218
    66  H    0.090410
    67  H    0.081335
    68  H    0.097726
    69  H    0.072189
    70  H    0.116059
    71  H    0.109580
    72  H    0.093750
    73  H    0.119131
    74  H    0.108314
    75  H    0.112365
    76  H    0.106301
    77  H    0.103293
    78  H    0.098558
    79  H    0.059356
    80  H    0.160125
    81  H    0.073879
    82  H    0.306688
    83  H    0.294724
    84  H    0.107368
    85  H    0.128316
    86  H    0.108502
    87  H    0.107648
    88  H    0.068931
    89  H    0.113337
    90  H    0.131028
    91  H    0.127146
    92  H    0.073545
    93  H    0.068640
    94  H    0.063932
    95  H    0.060358
    96  H    0.083293
    97  H    0.058613
    98  H    0.105442
    99  H    0.135252
   100  H    0.101860
 Sum of Mulliken charges =  -0.00000

 Dipole moment (field-independent basis, Debye):
    X=              2.0530    Y=              1.3309    Z=              2.2714  Tot=              3.3385
 Quadrupole moment (field-independent basis, Debye-Ang):
   XX=           -273.0533   YY=           -268.0279   ZZ=           -270.1335
   XY=             -7.4977   XZ=             23.3083   YZ=             -2.1359

 Normal termination of Gaussian 16 at Thu Aug  1 12:28:29 2019.
