 Gaussian 16, Revision A.03,
 Gaussian 16:  ES64L-G16RevA.03 25-Dec-2016

 -------------------------------------
 # td=(NStates=1) CAM-B3LYP/6-31G(d,p)
 -------------------------------------

 --
 TD
 --
 Symbolic Z-matrix:
 Charge =  0 Multiplicity = 1

                         Standard orientation:
 ---------------------------------------------------------------------
 Center     Atomic      Atomic             Coordinates (Angstroms)
 Number     Number       Type             X           Y           Z
 ---------------------------------------------------------------------
      1          8           0      -11.801333    0.150900   -1.658748
      2          8           0      -12.974039   -2.323214    1.622825
      3          8           0       10.442605   -0.873728   -2.157065
      4          8           0       14.457271   -0.904440   -0.459579
      5          6           0      -11.019500   -0.166964   -0.421009
      6          6           0      -11.624417   -1.291703   -1.150528
      7          6           0      -11.761732    0.465318    0.701045
      8          6           0      -12.935420   -1.864912   -0.839224
      9          6           0      -13.270728    0.025441    0.752606
     10          6           0      -13.529806   -1.497883    0.567349
     11          6           0      -10.823970   -2.155990   -2.045042
     12          6           0       -9.549612    0.088468   -0.422397
     13          6           0      -11.209646    0.184931    2.154321
     14          6           0      -11.789711    2.028350    0.569101
     15          6           0       -8.653705   -0.679259    0.165332
     16          6           0       -7.244260   -0.496760    0.176281
     17          6           0       -6.460624   -1.701821    0.532743
     18          6           0       -6.577084    0.636897   -0.274875
     19          6           0       -5.170691    0.933200   -0.313355
     20          6           0       11.943056   -0.031757    1.290333
     21          6           0       11.511170   -0.467720   -1.346589
     22          6           0       12.728851   -1.360036    1.392839
     23          6           0       13.354106   -1.671209    0.001110
     24          6           0       12.282476   -1.766563   -1.173459
     25          6           0       11.083998    0.062229    0.080476
     26          6           0       11.110905    0.011505    2.616293
     27          6           0       12.899429    1.056606    1.466350
     28          6           0       12.410696    0.684949   -2.001209
     29          6           0       -4.683133    2.164102   -0.417461
     30          6           0        9.874089    0.592412    0.071879
     31          6           0       -3.286849    2.560342   -0.415245
     32          6           0        8.669270    0.946392    0.041623
     33          6           0       -3.048720    3.982572   -0.662952
     34          6           0       -2.354903    1.541319   -0.233385
     35          6           0        7.501956    0.152105    0.169485
     36          6           0        7.743536   -1.271811    0.364504
     37          6           0        6.298110    0.719429    0.066525
     38          6           0       -0.905957    1.697924   -0.231966
     39          6           0        5.013059    0.104707    0.156643
     40          6           0        0.143684    0.803097    0.043253
     41          6           0        3.731753    0.719914    0.146877
     42          6           0        1.472387    1.080295   -0.062853
     43          6           0        2.459409    0.124605    0.162000
     44          6           0        2.166175   -1.264638    0.389736
     45          1           0      -12.663649   -3.058476   -0.828574
     46          1           0      -13.683126   -1.683407   -1.514174
     47          1           0      -13.675862    0.322238    1.720803
     48          1           0      -13.838519    0.645500    0.157389
     49          1           0      -14.648919   -1.784267    0.410407
     50          1           0      -10.525922   -3.043383   -1.396052
     51          1           0      -11.322203   -2.621922   -3.066515
     52          1           0       -9.911035   -1.598623   -2.423858
     53          1           0       -9.274014    0.812257   -1.040062
     54          1           0      -10.213832    0.623046    2.408905
     55          1           0      -11.797149    0.760288    2.932954
     56          1           0      -11.160046   -0.829977    2.537873
     57          1           0      -12.192860    2.288948   -0.589236
     58          1           0      -12.178746    2.631874    1.364399
     59          1           0      -10.865383    2.385038    0.620665
     60          1           0      -11.985512   -2.387229    1.492751
     61          1           0       -8.849006   -1.727618    0.684865
     62          1           0       -5.750335   -2.086415   -0.234760
     63          1           0       -5.606666   -1.584510    1.443291
     64          1           0       -7.009932   -2.555320    0.834216
     65          1           0       -6.964013    1.810308   -0.414366
     66          1           0       -4.312906    0.127371   -0.374983
     67          1           0       13.542423   -1.250715    2.075218
     68          1           0       11.963126   -2.241163    1.403039
     69          1           0       13.721993   -2.720826    0.113239
     70          1           0       12.891103   -2.018858   -2.111623
     71          1           0       11.453703   -2.534833   -1.130036
     72          1           0       11.683915   -0.227557    3.510095
     73          1           0       10.579246    0.980517    2.656430
     74          1           0       10.323644   -0.795356    2.681265
     75          1           0       13.685660    1.029836    0.714138
     76          1           0       12.319252    2.130750    1.369492
     77          1           0       13.555531    1.087297    2.320079
     78          1           0       13.019871   -0.028769   -2.733947
     79          1           0       11.757087    1.489304   -2.166805
     80          1           0       13.263444    0.746163   -1.302758
     81          1           0       -5.506575    2.884813   -0.585655
     82          1           0       10.028792   -0.142918   -2.805272
     83          1           0       15.260125   -1.122003    0.079161
     84          1           0        8.450303    2.038033   -0.314772
     85          1           0       -2.646768    4.468396    0.243252
     86          1           0       -2.161121    4.153155   -1.401428
     87          1           0       -3.982745    4.528389   -0.924769
     88          1           0       -2.447538    0.605637    0.165250
     89          1           0        6.765307   -1.809007    0.158432
     90          1           0        8.355149   -1.696603   -0.304224
     91          1           0        8.225246   -1.377155    1.394101
     92          1           0        6.202160    1.794986   -0.098894
     93          1           0       -0.408455    2.704771   -0.466248
     94          1           0        5.168476   -0.984584    0.456365
     95          1           0       -0.251489   -0.306981    0.250512
     96          1           0        3.732637    1.791074    0.223544
     97          1           0        1.635480    2.088284   -0.368295
     98          1           0        1.121593   -1.482835    1.002920
     99          1           0        2.036941   -1.696353   -0.952938
    100          1           0        3.110194   -1.995243    0.942811
 ---------------------------------------------------------------------

 SCF Done:  E(RCAM-B3LYP) =  -1857.28134220     A.U. after   15 cycles

 Excitation energies and oscillator strengths:

 Excited State   1:      Singlet-A      2.1852 eV  567.38 nm  f=2.9393  <S**2>=0.000
     163 ->166         0.13802
     164 ->165         0.69217
 This state for optimization and/or second-order correction.
 Total Energy, E(TD-HF/TD-DFT) =  -1857.20103752
 Copying the excited state density for this state as the 1-particle RhoCI density.

 The electronic state is 1-A.
 Alpha  occ. eigenvalues --  -19.23229 -19.22279 -19.21421 -19.20955 -10.32026
 Alpha  occ. eigenvalues --  -10.31975 -10.31778 -10.31735 -10.31514 -10.31448
 Alpha  occ. eigenvalues --  -10.28347 -10.28111 -10.27920 -10.27873 -10.27654
 Alpha  occ. eigenvalues --  -10.27539 -10.27406 -10.27359 -10.26994 -10.26888
 Alpha  occ. eigenvalues --  -10.26836 -10.26782 -10.26765 -10.26668 -10.26571
 Alpha  occ. eigenvalues --  -10.26500 -10.26462 -10.26386 -10.26297 -10.26273
 Alpha  occ. eigenvalues --  -10.26055 -10.25740 -10.25708 -10.25514 -10.25498
 Alpha  occ. eigenvalues --  -10.25488 -10.25105 -10.24857 -10.24720 -10.24659
 Alpha  occ. eigenvalues --  -10.24534 -10.24272 -10.24251 -10.23813  -1.10665
 Alpha  occ. eigenvalues --   -1.10661  -1.09005  -1.07733  -0.93587  -0.92763
 Alpha  occ. eigenvalues --   -0.92442  -0.91805  -0.91228  -0.89464  -0.87234
 Alpha  occ. eigenvalues --   -0.87005  -0.86028  -0.85496  -0.84912  -0.83383
 Alpha  occ. eigenvalues --   -0.82283  -0.80564  -0.80333  -0.78835  -0.77009
 Alpha  occ. eigenvalues --   -0.76018  -0.75929  -0.75682  -0.75629  -0.75259
 Alpha  occ. eigenvalues --   -0.75202  -0.74925  -0.72799  -0.70587  -0.69632
 Alpha  occ. eigenvalues --   -0.68681  -0.66910  -0.65759  -0.65215  -0.65001
 Alpha  occ. eigenvalues --   -0.62650  -0.61235  -0.60962  -0.59828  -0.59370
 Alpha  occ. eigenvalues --   -0.58937  -0.58497  -0.58118  -0.57536  -0.56508
 Alpha  occ. eigenvalues --   -0.56074  -0.55004  -0.54764  -0.54458  -0.54180
 Alpha  occ. eigenvalues --   -0.52975  -0.52899  -0.52725  -0.52399  -0.52222
 Alpha  occ. eigenvalues --   -0.51518  -0.50735  -0.50257  -0.50098  -0.49867
 Alpha  occ. eigenvalues --   -0.49327  -0.48588  -0.48577  -0.47866  -0.47689
 Alpha  occ. eigenvalues --   -0.47649  -0.47489  -0.47248  -0.46933  -0.46403
 Alpha  occ. eigenvalues --   -0.45769  -0.45677  -0.45580  -0.45123  -0.44908
 Alpha  occ. eigenvalues --   -0.44740  -0.44111  -0.44041  -0.43935  -0.43539
 Alpha  occ. eigenvalues --   -0.43390  -0.43091  -0.42822  -0.42609  -0.42124
 Alpha  occ. eigenvalues --   -0.42055  -0.41986  -0.41521  -0.41289  -0.40965
 Alpha  occ. eigenvalues --   -0.40865  -0.40646  -0.40388  -0.39915  -0.39620
 Alpha  occ. eigenvalues --   -0.39060  -0.38853  -0.38331  -0.38208  -0.38032
 Alpha  occ. eigenvalues --   -0.37709  -0.37529  -0.37252  -0.36973  -0.36884
 Alpha  occ. eigenvalues --   -0.36093  -0.36026  -0.34989  -0.34831  -0.34167
 Alpha  occ. eigenvalues --   -0.32991  -0.32030  -0.31696  -0.31368  -0.30906
 Alpha  occ. eigenvalues --   -0.28826  -0.27858  -0.24562  -0.19576
 Alpha virt. eigenvalues --   -0.05890  -0.00963   0.03291   0.06345   0.06748
 Alpha virt. eigenvalues --    0.09257   0.09601   0.09791   0.10810   0.10930
 Alpha virt. eigenvalues --    0.11402   0.11697   0.12309   0.13014   0.13129

 Mulliken charges:
               1
     1  O   -0.534620
     2  O   -0.549466
     3  O   -0.576368
     4  O   -0.549611
     5  C    0.210125
     6  C    0.241966
     7  C    0.026933
     8  C   -0.199641
     9  C   -0.167331
    10  C    0.142366
    11  C   -0.325244
    12  C   -0.111603
    13  C   -0.325918
    14  C   -0.316688
    15  C   -0.049508
    16  C    0.106611
    17  C   -0.382753
    18  C   -0.145648
    19  C   -0.028386
    20  C    0.015358
    21  C    0.262393
    22  C   -0.168269
    23  C    0.124456
    24  C   -0.201809
    25  C   -0.087723
    26  C   -0.293941
    27  C   -0.296770
    28  C   -0.312421
    29  C   -0.136066
    30  C    0.232882
    31  C    0.135671
    32  C   -0.338311
    33  C   -0.386499
    34  C   -0.118294
    35  C    0.157492
    36  C   -0.373124
    37  C   -0.106958
    38  C   -0.126426
    39  C   -0.112464
    40  C   -0.077728
    41  C   -0.135374
    42  C   -0.112491
    43  C    0.167993
    44  C   -0.333532
    45  H    0.072748
    46  H    0.132431
    47  H    0.098679
    48  H    0.110421
    49  H    0.091673
    50  H    0.099194
    51  H    0.105751
    52  H    0.120982
    53  H    0.112352
    54  H    0.096883
    55  H    0.100389
    56  H    0.094640
    57  H    0.104432
    58  H    0.106867
    59  H    0.109455
    60  H    0.305319
    61  H    0.065328
    62  H    0.130407
    63  H    0.088599
    64  H    0.114093
    65  H    0.068355
    66  H    0.078081
    67  H    0.091270
    68  H    0.101650
    69  H    0.073457
    70  H    0.101975
    71  H    0.120554
    72  H    0.097039
    73  H    0.105429
    74  H    0.085100
    75  H    0.113252
    76  H    0.077062
    77  H    0.098817
    78  H    0.098205
    79  H    0.104163
    80  H    0.147666
    81  H    0.075303
    82  H    0.316685
    83  H    0.316863
    84  H    0.086313
    85  H    0.134515
    86  H    0.119841
    87  H    0.119291
    88  H    0.091165
    89  H    0.093221
    90  H    0.148117
    91  H    0.117226
    92  H    0.068554
    93  H    0.052907
    94  H    0.070989
    95  H    0.059303
    96  H    0.088635
    97  H    0.090664
    98  H    0.116870
    99  H    0.074290
   100  H    0.093270
 Sum of Mulliken charges =  -0.00000

 Dipole moment (field-independent basis, Debye):
    X=              6.1086    Y=             -0.6804    Z=              0.7977  Tot=              6.1979
 Quadrupole moment (field-independent basis, Debye-Ang):
   XX=           -259.6340   YY=           -258.2600   ZZ=           -278.6595
   XY=            -11.7956   XZ=             18.4037   YZ=             -0.8251

 Normal termination of Gaussian 16 at Thu Aug  1 16:32:13 2019.
