 Gaussian 16, Revision A.03,
 Gaussian 16:  ES64L-G16RevA.03 25-Dec-2016

 -------------------------------------
 # td=(NStates=1) CAM-B3LYP/6-31G(d,p)
 -------------------------------------

 --
 TD
 --
 Symbolic Z-matrix:
 Charge =  0 Multiplicity = 1

                         Standard orientation:
 ---------------------------------------------------------------------
 Center     Atomic      Atomic             Coordinates (Angstroms)
 Number     Number       Type             X           Y           Z
 ---------------------------------------------------------------------
      1          8           0      -11.872116    0.359348   -1.467534
      2          8           0      -12.944885   -2.639167    1.212648
      3          8           0       10.673661   -0.556089   -2.202594
      4          8           0       14.435367   -1.098215   -0.287377
      5          6           0      -11.050280   -0.213242   -0.402170
      6          6           0      -11.716268   -1.072036   -1.362236
      7          6           0      -11.731562    0.153748    0.943929
      8          6           0      -13.034888   -1.718530   -1.009131
      9          6           0      -13.181447   -0.288647    0.998559
     10          6           0      -13.495531   -1.617038    0.424796
     11          6           0      -10.912741   -1.796657   -2.472095
     12          6           0       -9.609035    0.082888   -0.398729
     13          6           0      -11.021348   -0.337202    2.285505
     14          6           0      -11.658997    1.787273    1.074486
     15          6           0       -8.637162   -0.729198    0.093823
     16          6           0       -7.153791   -0.544271    0.145455
     17          6           0       -6.289442   -1.605787    0.422463
     18          6           0       -6.640944    0.772941   -0.086897
     19          6           0       -5.199669    1.040875   -0.042703
     20          6           0       11.937941   -0.280355    1.360370
     21          6           0       11.719130   -0.328333   -1.201363
     22          6           0       12.734488   -1.554791    1.314564
     23          6           0       13.358868   -1.859518   -0.020508
     24          6           0       12.376111   -1.667012   -1.168114
     25          6           0       11.022452   -0.051863    0.133426
     26          6           0       11.076880   -0.417484    2.640902
     27          6           0       13.016172    0.930750    1.618864
     28          6           0       12.526798    0.911195   -1.698211
     29          6           0       -4.784691    2.344098   -0.203965
     30          6           0        9.837578    0.416028    0.129555
     31          6           0       -3.416082    2.625712   -0.236297
     32          6           0        8.583546    0.855636   -0.083340
     33          6           0       -3.120008    4.111583   -0.346144
     34          6           0       -2.371334    1.746026   -0.269299
     35          6           0        7.454345    0.059656   -0.108474
     36          6           0        7.600258   -1.484887   -0.055898
     37          6           0        6.279353    0.781027   -0.038455
     38          6           0       -0.984716    1.906124   -0.220544
     39          6           0        5.011887    0.205730    0.023852
     40          6           0        0.032662    0.975414   -0.041985
     41          6           0        3.781254    1.002722    0.031160
     42          6           0        1.399593    1.288658   -0.126168
     43          6           0        2.508658    0.494782   -0.051497
     44          6           0        2.253455   -1.029963   -0.055925
     45          1           0      -12.829469   -2.839283   -1.197053
     46          1           0      -13.716678   -1.370249   -1.590434
     47          1           0      -13.672792   -0.228554    2.088537
     48          1           0      -13.742459    0.386942    0.472912
     49          1           0      -14.677546   -1.920379    0.625005
     50          1           0      -10.870569   -2.809364   -1.882786
     51          1           0      -11.319968   -1.882881   -3.601100
     52          1           0       -9.816820   -1.236605   -2.676875
     53          1           0       -9.269474    1.065223   -0.782882
     54          1           0       -9.945428    0.159765    2.520958
     55          1           0      -11.555583   -0.342436    3.197122
     56          1           0      -10.817630   -1.401682    2.234751
     57          1           0      -12.188953    2.202069    0.161816
     58          1           0      -12.294767    2.043768    2.115727
     59          1           0      -10.640764    1.957565    1.281957
     60          1           0      -12.009804   -2.613616    1.015202
     61          1           0       -8.866716   -1.807277    0.492825
     62          1           0       -5.811041   -1.975071   -0.620237
     63          1           0       -5.431737   -1.551492    1.314780
     64          1           0       -6.805481   -2.643623    0.728205
     65          1           0       -7.347944    1.566444   -0.223490
     66          1           0       -4.609067    0.146170   -0.276929
     67          1           0       13.502343   -1.572829    2.221039
     68          1           0       12.193966   -2.500793    1.442088
     69          1           0       13.638803   -3.036393   -0.061290
     70          1           0       12.989774   -1.776012   -2.110425
     71          1           0       11.593048   -2.438172   -1.169119
     72          1           0       11.608826   -0.467287    3.547528
     73          1           0       10.120555    0.365484    2.762530
     74          1           0       10.426214   -1.220767    2.583878
     75          1           0       13.755565    1.078919    0.609605
     76          1           0       12.340033    1.842644    1.954813
     77          1           0       13.576680    0.619291    2.418431
     78          1           0       12.984444    0.795237   -2.769256
     79          1           0       11.695452    1.719047   -1.826486
     80          1           0       13.318309    1.104709   -1.017064
     81          1           0       -5.437026    3.172792    0.066234
     82          1           0       10.027743    0.126394   -2.106218
     83          1           0       14.968089   -1.068258    0.499154
     84          1           0        8.254147    1.945646   -0.184047
     85          1           0       -2.611306    4.492104    0.548049
     86          1           0       -2.397292    4.182393   -1.353314
     87          1           0       -3.973975    4.750890   -0.430232
     88          1           0       -2.696120    0.725865   -0.483266
     89          1           0        6.633681   -2.189033   -0.121116
     90          1           0        8.319134   -1.681073   -0.750904
     91          1           0        8.142531   -1.604280    1.048123
     92          1           0        6.160112    1.819087    0.128995
     93          1           0       -0.614791    3.006755   -0.336500
     94          1           0        4.897913   -0.886330   -0.002510
     95          1           0       -0.313254   -0.116807    0.025443
     96          1           0        3.951397    2.024227    0.055016
     97          1           0        1.468106    2.492511   -0.028724
     98          1           0        1.099070   -1.342661   -0.317050
     99          1           0        2.649481   -1.574248   -0.953879
    100          1           0        2.623891   -1.597819    1.021948
 ---------------------------------------------------------------------

 SCF Done:  E(RCAM-B3LYP) =  -1857.30522013     A.U. after   15 cycles

 Excitation energies and oscillator strengths:

 Excited State   1:      Singlet-A      2.0185 eV  614.24 nm  f=3.1654  <S**2>=0.000
     163 ->166        -0.14708
     164 ->165         0.69047
 This state for optimization and/or second-order correction.
 Total Energy, E(TD-HF/TD-DFT) =  -1857.23104157
 Copying the excited state density for this state as the 1-particle RhoCI density.

 The electronic state is 1-A.
 Alpha  occ. eigenvalues --  -19.22291 -19.22260 -19.20656 -19.19417 -10.32831
 Alpha  occ. eigenvalues --  -10.32704 -10.31507 -10.31320 -10.31084 -10.29287
 Alpha  occ. eigenvalues --  -10.29179 -10.29062 -10.28644 -10.28551 -10.28468
 Alpha  occ. eigenvalues --  -10.28334 -10.27943 -10.27818 -10.27709 -10.27589
 Alpha  occ. eigenvalues --  -10.27327 -10.27315 -10.27295 -10.27275 -10.27238
 Alpha  occ. eigenvalues --  -10.27238 -10.27168 -10.27148 -10.27051 -10.26979
 Alpha  occ. eigenvalues --  -10.26832 -10.26745 -10.26525 -10.26340 -10.26244
 Alpha  occ. eigenvalues --  -10.26136 -10.25855 -10.25666 -10.25398 -10.25320
 Alpha  occ. eigenvalues --  -10.25128 -10.25017 -10.24805 -10.24367  -1.14986
 Alpha  occ. eigenvalues --   -1.13671  -1.10559  -1.08330  -0.93422  -0.92717
 Alpha  occ. eigenvalues --   -0.92308  -0.91398  -0.90845  -0.89861  -0.87471
 Alpha  occ. eigenvalues --   -0.87042  -0.85881  -0.85811  -0.84969  -0.83499
 Alpha  occ. eigenvalues --   -0.82271  -0.80355  -0.79912  -0.78225  -0.77105
 Alpha  occ. eigenvalues --   -0.76443  -0.76241  -0.75821  -0.75458  -0.75307
 Alpha  occ. eigenvalues --   -0.75128  -0.74243  -0.72912  -0.70684  -0.70020
 Alpha  occ. eigenvalues --   -0.68666  -0.67174  -0.65713  -0.65326  -0.64248
 Alpha  occ. eigenvalues --   -0.63715  -0.62381  -0.61481  -0.60025  -0.59828
 Alpha  occ. eigenvalues --   -0.59286  -0.58691  -0.57672  -0.57051  -0.56880
 Alpha  occ. eigenvalues --   -0.55821  -0.55420  -0.54916  -0.54551  -0.54532
 Alpha  occ. eigenvalues --   -0.54380  -0.53908  -0.53405  -0.52395  -0.52134
 Alpha  occ. eigenvalues --   -0.50832  -0.50692  -0.50198  -0.49919  -0.49688
 Alpha  occ. eigenvalues --   -0.49155  -0.48821  -0.48713  -0.48546  -0.48156
 Alpha  occ. eigenvalues --   -0.47988  -0.47857  -0.47599  -0.47368  -0.47073
 Alpha  occ. eigenvalues --   -0.46389  -0.45883  -0.45400  -0.44921  -0.44809
 Alpha  occ. eigenvalues --   -0.44674  -0.44372  -0.44087  -0.43926  -0.43444
 Alpha  occ. eigenvalues --   -0.43372  -0.43258  -0.43098  -0.42854  -0.42619
 Alpha  occ. eigenvalues --   -0.42300  -0.41922  -0.41626  -0.41452  -0.40817
 Alpha  occ. eigenvalues --   -0.40494  -0.40444  -0.40184  -0.39960  -0.39678
 Alpha  occ. eigenvalues --   -0.39591  -0.39155  -0.39093  -0.38982  -0.38818
 Alpha  occ. eigenvalues --   -0.38542  -0.38021  -0.37472  -0.37329  -0.37300
 Alpha  occ. eigenvalues --   -0.36536  -0.36439  -0.35283  -0.35137  -0.34397
 Alpha  occ. eigenvalues --   -0.32556  -0.32530  -0.32082  -0.31683  -0.31164
 Alpha  occ. eigenvalues --   -0.30892  -0.28159  -0.24175  -0.19422
 Alpha virt. eigenvalues --   -0.06707  -0.02042   0.02741   0.06296   0.06320
 Alpha virt. eigenvalues --    0.09602   0.09776   0.10173   0.11474   0.11768
 Alpha virt. eigenvalues --    0.11890   0.12143   0.12417   0.12764   0.13232

 Mulliken charges:
               1
     1  O   -0.511858
     2  O   -0.533590
     3  O   -0.574208
     4  O   -0.512423
     5  C    0.207006
     6  C    0.223869
     7  C    0.007411
     8  C   -0.186121
     9  C   -0.159756
    10  C    0.135264
    11  C   -0.309400
    12  C   -0.130359
    13  C   -0.309690
    14  C   -0.296250
    15  C   -0.066235
    16  C    0.121649
    17  C   -0.408137
    18  C   -0.115309
    19  C   -0.074557
    20  C    0.024316
    21  C    0.227130
    22  C   -0.186853
    23  C    0.146647
    24  C   -0.175933
    25  C   -0.076629
    26  C   -0.313234
    27  C   -0.292661
    28  C   -0.265748
    29  C   -0.119178
    30  C    0.134780
    31  C    0.105070
    32  C   -0.283840
    33  C   -0.369719
    34  C   -0.115346
    35  C    0.131695
    36  C   -0.346820
    37  C   -0.107564
    38  C   -0.093106
    39  C   -0.095014
    40  C   -0.069102
    41  C   -0.129503
    42  C   -0.135463
    43  C    0.145045
    44  C   -0.359698
    45  H    0.093008
    46  H    0.128999
    47  H    0.087546
    48  H    0.110891
    49  H    0.075860
    50  H    0.095709
    51  H    0.116011
    52  H    0.107046
    53  H    0.111540
    54  H    0.084277
    55  H    0.122111
    56  H    0.081314
    57  H    0.126986
    58  H    0.075955
    59  H    0.113915
    60  H    0.291789
    61  H    0.064645
    62  H    0.118817
    63  H    0.118110
    64  H    0.099022
    65  H    0.083562
    66  H    0.108426
    67  H    0.070647
    68  H    0.104014
    69  H    0.040409
    70  H    0.118380
    71  H    0.117637
    72  H    0.103773
    73  H    0.074747
    74  H    0.118127
    75  H    0.095413
    76  H    0.103117
    77  H    0.106925
    78  H    0.104592
    79  H    0.081645
    80  H    0.113209
    81  H    0.101097
    82  H    0.293931
    83  H    0.304662
    84  H    0.114633
    85  H    0.124628
    86  H    0.101353
    87  H    0.109524
    88  H    0.067864
    89  H    0.109084
    90  H    0.149174
    91  H    0.102351
    92  H    0.083729
    93  H    0.070986
    94  H    0.078844
    95  H    0.078654
    96  H    0.077987
    97  H    0.070803
    98  H    0.088293
    99  H    0.122357
   100  H    0.095291
 Sum of Mulliken charges =  -0.00000

 Dipole moment (field-independent basis, Debye):
    X=              2.3701    Y=             -0.4449    Z=              2.0214  Tot=              3.1466
 Quadrupole moment (field-independent basis, Debye-Ang):
   XX=           -286.4461   YY=           -263.2710   ZZ=           -279.4547
   XY=             -3.9331   XZ=             40.0660   YZ=              1.0093

 Normal termination of Gaussian 16 at Mon Jul 29 12:06:55 2019.
