 Gaussian 16, Revision A.03,
 Gaussian 16:  ES64L-G16RevA.03 25-Dec-2016

 -------------------------------------
 # td=(NStates=1) CAM-B3LYP/6-31G(d,p)
 -------------------------------------

 --
 TD
 --
 Symbolic Z-matrix:
 Charge =  0 Multiplicity = 1

                         Standard orientation:
 ---------------------------------------------------------------------
 Center     Atomic      Atomic             Coordinates (Angstroms)
 Number     Number       Type             X           Y           Z
 ---------------------------------------------------------------------
      1          8           0      -11.787971    0.230593   -1.497327
      2          8           0      -13.002918   -2.482782    1.440429
      3          8           0       10.605387   -1.070946   -2.145084
      4          8           0       14.359400   -1.109263   -0.168603
      5          6           0      -11.023133   -0.162416   -0.321918
      6          6           0      -11.603387   -1.176805   -1.129244
      7          6           0      -11.776555    0.307193    1.037129
      8          6           0      -12.946670   -1.874355   -0.824544
      9          6           0      -13.223385   -0.099094    0.971993
     10          6           0      -13.517070   -1.523335    0.545133
     11          6           0      -10.897053   -1.926658   -2.280097
     12          6           0       -9.529426    0.178910   -0.396815
     13          6           0      -11.112641   -0.244731    2.178769
     14          6           0      -11.770583    1.810061    1.021810
     15          6           0       -8.576047   -0.709130    0.096191
     16          6           0       -7.169642   -0.514921    0.060520
     17          6           0       -6.207274   -1.700039    0.301833
     18          6           0       -6.642696    0.759661   -0.284747
     19          6           0       -5.199355    1.031359   -0.344354
     20          6           0       11.891922    0.092833    1.330914
     21          6           0       11.643317   -0.651859   -1.238172
     22          6           0       12.618187   -1.328974    1.554249
     23          6           0       13.283072   -1.911618    0.368141
     24          6           0       12.336554   -1.984581   -0.934787
     25          6           0       11.063004   -0.023816    0.023892
     26          6           0       10.976043    0.255975    2.514364
     27          6           0       12.734098    1.225218    1.283944
     28          6           0       12.476360    0.333139   -1.976852
     29          6           0       -4.723094    2.352036   -0.478830
     30          6           0        9.835256    0.606648   -0.066039
     31          6           0       -3.330384    2.648999   -0.557648
     32          6           0        8.625093    1.012416   -0.099248
     33          6           0       -2.929724    4.070100   -0.665821
     34          6           0       -2.258093    1.678409   -0.252403
     35          6           0        7.432463    0.207407   -0.076780
     36          6           0        7.680875   -1.315993    0.050825
     37          6           0        6.223408    0.805721    0.023441
     38          6           0       -0.895292    1.945234   -0.267504
     39          6           0        4.990698    0.184878    0.109828
     40          6           0        0.054943    0.814255   -0.045493
     41          6           0        3.837792    0.914165    0.014047
     42          6           0        1.444075    1.136204   -0.042314
     43          6           0        2.576352    0.291907    0.148493
     44          6           0        2.319696   -1.135942    0.536024
     45          1           0      -12.992194   -2.964897   -0.911579
     46          1           0      -13.593818   -1.667445   -1.806926
     47          1           0      -13.714038    0.014471    2.011294
     48          1           0      -13.865107    0.556319    0.161938
     49          1           0      -14.494685   -1.728447    0.553816
     50          1           0      -10.777050   -3.128006   -2.102056
     51          1           0      -11.593804   -1.853506   -3.212767
     52          1           0       -9.756160   -1.481810   -2.643290
     53          1           0       -9.436660    1.138521   -0.857461
     54          1           0      -10.078814   -0.076500    2.147245
     55          1           0      -11.483091    0.273673    3.191814
     56          1           0      -11.011720   -1.322630    2.445171
     57          1           0      -12.240991    2.173439   -0.081157
     58          1           0      -12.357010    2.109893    1.771303
     59          1           0      -10.670239    2.214132    1.150019
     60          1           0      -12.180046   -2.767442    1.046658
     61          1           0       -8.629086   -1.752567    0.292022
     62          1           0       -5.739400   -2.164271   -0.649687
     63          1           0       -5.589623   -1.662395    1.068972
     64          1           0       -6.835688   -2.543186    0.563182
     65          1           0       -7.404748    1.502768   -0.467828
     66          1           0       -4.542435    0.163460   -0.226286
     67          1           0       13.543716   -1.209232    2.267838
     68          1           0       11.764886   -2.138482    1.891139
     69          1           0       13.791734   -2.889777    0.374456
     70          1           0       12.921072   -2.255273   -1.759462
     71          1           0       11.513152   -2.751815   -0.803110
     72          1           0       11.497690    0.189717    3.319818
     73          1           0       10.336970    1.052633    2.475596
     74          1           0       10.246260   -0.440958    2.314083
     75          1           0       13.385642    1.305347    0.334438
     76          1           0       12.284832    2.041466    1.189036
     77          1           0       13.416564    1.193376    2.009232
     78          1           0       12.563824   -0.108998   -3.048963
     79          1           0       11.843378    1.143084   -2.127977
     80          1           0       13.337033    0.595184   -1.428910
     81          1           0       -5.404053    3.155546   -0.459247
     82          1           0       10.105155   -0.317952   -2.346985
     83          1           0       14.945176   -0.906226    0.593451
     84          1           0        8.412254    2.125541   -0.151884
     85          1           0       -2.390643    4.485737    0.338951
     86          1           0       -2.332328    4.354761   -1.602346
     87          1           0       -3.996126    4.607570   -0.973339
     88          1           0       -2.725503    0.694300   -0.362414
     89          1           0        6.545401   -1.915592    0.017610
     90          1           0        8.415331   -1.473462   -0.809383
     91          1           0        8.153464   -1.280211    1.017970
     92          1           0        6.267183    1.773495   -0.352285
     93          1           0       -0.453324    2.853846   -0.232069
     94          1           0        5.103800   -0.888865    0.477240
     95          1           0       -0.378090   -0.094870    0.202729
     96          1           0        3.860248    1.958418   -0.002424
     97          1           0        1.805082    2.072109   -0.175695
     98          1           0        1.288493   -1.467957    0.672920
     99          1           0        2.872377   -1.825856   -0.118809
    100          1           0        2.784358   -1.481764    1.451502
 ---------------------------------------------------------------------

 SCF Done:  E(RCAM-B3LYP) =  -1857.27378603     A.U. after   16 cycles

 Excitation energies and oscillator strengths:

 Excited State   1:      Singlet-A      1.8069 eV  686.18 nm  f=2.7855  <S**2>=0.000
     163 ->166        -0.11695
     164 ->165         0.70550
     164 <-165        -0.13156
 This state for optimization and/or second-order correction.
 Total Energy, E(TD-HF/TD-DFT) =  -1857.20738484
 Copying the excited state density for this state as the 1-particle RhoCI density.

 The electronic state is 1-A.
 Alpha  occ. eigenvalues --  -19.21806 -19.21627 -19.20613 -19.20444 -10.32496
 Alpha  occ. eigenvalues --  -10.31999 -10.31157 -10.31142 -10.29056 -10.28815
 Alpha  occ. eigenvalues --  -10.28780 -10.28148 -10.28075 -10.27808 -10.27604
 Alpha  occ. eigenvalues --  -10.27564 -10.27510 -10.27491 -10.27436 -10.27396
 Alpha  occ. eigenvalues --  -10.27283 -10.27278 -10.27228 -10.27138 -10.27051
 Alpha  occ. eigenvalues --  -10.26862 -10.26853 -10.26803 -10.26786 -10.26753
 Alpha  occ. eigenvalues --  -10.26548 -10.26442 -10.26111 -10.25739 -10.25732
 Alpha  occ. eigenvalues --  -10.25729 -10.25518 -10.25085 -10.24716 -10.24508
 Alpha  occ. eigenvalues --  -10.23887 -10.23040 -10.22262 -10.21789  -1.14035
 Alpha  occ. eigenvalues --   -1.10402  -1.10255  -1.09421  -0.94274  -0.92670
 Alpha  occ. eigenvalues --   -0.91780  -0.91239  -0.90874  -0.89967  -0.87317
 Alpha  occ. eigenvalues --   -0.86875  -0.85812  -0.85377  -0.83782  -0.83152
 Alpha  occ. eigenvalues --   -0.81797  -0.80916  -0.80194  -0.79440  -0.78474
 Alpha  occ. eigenvalues --   -0.77170  -0.76681  -0.76506  -0.76424  -0.76031
 Alpha  occ. eigenvalues --   -0.74691  -0.74271  -0.73079  -0.70905  -0.69712
 Alpha  occ. eigenvalues --   -0.68317  -0.67053  -0.66330  -0.65533  -0.64959
 Alpha  occ. eigenvalues --   -0.63888  -0.61946  -0.61611  -0.60160  -0.59340
 Alpha  occ. eigenvalues --   -0.58836  -0.58418  -0.57794  -0.57561  -0.56774
 Alpha  occ. eigenvalues --   -0.56184  -0.55489  -0.55185  -0.54872  -0.54366
 Alpha  occ. eigenvalues --   -0.53658  -0.53301  -0.52995  -0.52800  -0.52240
 Alpha  occ. eigenvalues --   -0.51664  -0.51380  -0.51325  -0.50255  -0.50183
 Alpha  occ. eigenvalues --   -0.49925  -0.49746  -0.49258  -0.48870  -0.48700
 Alpha  occ. eigenvalues --   -0.48247  -0.47863  -0.47567  -0.47364  -0.47217
 Alpha  occ. eigenvalues --   -0.47156  -0.46861  -0.46549  -0.45857  -0.45425
 Alpha  occ. eigenvalues --   -0.44988  -0.44815  -0.44554  -0.44315  -0.43869
 Alpha  occ. eigenvalues --   -0.43664  -0.42900  -0.42858  -0.42114  -0.42046
 Alpha  occ. eigenvalues --   -0.41905  -0.41803  -0.41242  -0.41009  -0.40749
 Alpha  occ. eigenvalues --   -0.40689  -0.40642  -0.39860  -0.39759  -0.39676
 Alpha  occ. eigenvalues --   -0.39491  -0.39277  -0.39256  -0.39001  -0.38750
 Alpha  occ. eigenvalues --   -0.38399  -0.38232  -0.37741  -0.37597  -0.37126
 Alpha  occ. eigenvalues --   -0.36602  -0.36344  -0.35590  -0.35224  -0.34612
 Alpha  occ. eigenvalues --   -0.33215  -0.32623  -0.32025  -0.31659  -0.31008
 Alpha  occ. eigenvalues --   -0.28883  -0.27354  -0.24321  -0.18490
 Alpha virt. eigenvalues --   -0.07088  -0.01184   0.02196   0.04768   0.06837
 Alpha virt. eigenvalues --    0.09355   0.10047   0.10428   0.11381   0.12143
 Alpha virt. eigenvalues --    0.12745   0.13239   0.13560   0.13937   0.14095

 Mulliken charges:
               1
     1  O   -0.511808
     2  O   -0.542291
     3  O   -0.553383
     4  O   -0.552187
     5  C    0.195054
     6  C    0.237038
     7  C    0.046397
     8  C   -0.250817
     9  C   -0.174917
    10  C    0.178375
    11  C   -0.311718
    12  C   -0.124873
    13  C   -0.307242
    14  C   -0.289316
    15  C   -0.057094
    16  C    0.039809
    17  C   -0.378882
    18  C   -0.096689
    19  C   -0.090762
    20  C    0.012282
    21  C    0.234294
    22  C   -0.185780
    23  C    0.131039
    24  C   -0.175852
    25  C   -0.059913
    26  C   -0.282116
    27  C   -0.267564
    28  C   -0.290455
    29  C   -0.096197
    30  C    0.107693
    31  C    0.070156
    32  C   -0.294103
    33  C   -0.365944
    34  C   -0.104821
    35  C    0.085766
    36  C   -0.346583
    37  C   -0.101169
    38  C   -0.074519
    39  C   -0.087221
    40  C   -0.084815
    41  C   -0.128013
    42  C   -0.124626
    43  C    0.130214
    44  C   -0.388339
    45  H    0.110422
    46  H    0.105830
    47  H    0.093299
    48  H    0.085583
    49  H    0.096198
    50  H    0.078146
    51  H    0.115953
    52  H    0.097613
    53  H    0.125953
    54  H    0.111299
    55  H    0.078020
    56  H    0.105415
    57  H    0.102606
    58  H    0.113484
    59  H    0.081201
    60  H    0.300106
    61  H    0.081310
    62  H    0.118758
    63  H    0.140508
    64  H    0.098257
    65  H    0.082109
    66  H    0.099246
    67  H    0.067946
    68  H    0.100641
    69  H    0.093714
    70  H    0.118950
    71  H    0.104950
    72  H    0.103295
    73  H    0.109479
    74  H    0.104987
    75  H    0.084865
    76  H    0.114706
    77  H    0.096520
    78  H    0.100740
    79  H    0.088485
    80  H    0.139770
    81  H    0.095478
    82  H    0.294601
    83  H    0.295431
    84  H    0.100288
    85  H    0.114550
    86  H    0.120044
    87  H    0.075598
    88  H    0.076697
    89  H    0.076015
    90  H    0.141036
    91  H    0.135055
    92  H    0.073408
    93  H    0.090907
    94  H    0.083401
    95  H    0.091295
    96  H    0.097055
    97  H    0.067277
    98  H    0.114819
    99  H    0.116260
   100  H    0.122314
 Sum of Mulliken charges =  -0.00000

 Dipole moment (field-independent basis, Debye):
    X=              3.8948    Y=             -0.3073    Z=              2.1276  Tot=              4.4487
 Quadrupole moment (field-independent basis, Debye-Ang):
   XX=           -278.4157   YY=           -259.4396   ZZ=           -279.4591
   XY=             15.7019   XZ=             37.9350   YZ=             -1.4550

 Normal termination of Gaussian 16 at Mon Jul 29 08:19:35 2019.
