 Gaussian 16, Revision A.03,
 Gaussian 16:  ES64L-G16RevA.03 25-Dec-2016

 -------------------------------------
 # td=(NStates=1) CAM-B3LYP/6-31G(d,p)
 -------------------------------------

 --
 TD
 --
 Symbolic Z-matrix:
 Charge =  0 Multiplicity = 1

                         Standard orientation:
 ---------------------------------------------------------------------
 Center     Atomic      Atomic             Coordinates (Angstroms)
 Number     Number       Type             X           Y           Z
 ---------------------------------------------------------------------
      1          8           0      -11.733348    0.254416   -1.535551
      2          8           0      -13.041286   -2.411427    1.471566
      3          8           0       10.558114   -1.150800   -2.043653
      4          8           0       14.493814   -1.006481   -0.293318
      5          6           0      -10.977773   -0.086659   -0.342005
      6          6           0      -11.618292   -1.102343   -1.205426
      7          6           0      -11.740053    0.413360    0.903941
      8          6           0      -12.929226   -1.763365   -0.820371
      9          6           0      -13.276529   -0.034318    0.921241
     10          6           0      -13.575727   -1.488193    0.502713
     11          6           0      -10.728183   -2.082557   -2.116258
     12          6           0       -9.498261    0.095148   -0.440746
     13          6           0      -11.040528    0.026760    2.123962
     14          6           0      -11.614962    1.956916    0.762213
     15          6           0       -8.638266   -0.657809    0.207166
     16          6           0       -7.200984   -0.623681    0.303157
     17          6           0       -6.336248   -1.789034    0.513196
     18          6           0       -6.713284    0.544808   -0.089583
     19          6           0       -5.280511    0.847667   -0.125246
     20          6           0       11.968602    0.064207    1.369825
     21          6           0       11.627327   -0.694731   -1.274873
     22          6           0       12.792732   -1.201701    1.560491
     23          6           0       13.424741   -1.807304    0.222950
     24          6           0       12.436768   -1.953001   -0.862408
     25          6           0       11.071577   -0.048505    0.106849
     26          6           0       11.044649    0.455592    2.620875
     27          6           0       12.947573    1.254151    1.226871
     28          6           0       12.386956    0.354908   -2.043501
     29          6           0       -4.726966    2.090968   -0.478919
     30          6           0        9.876189    0.533413    0.113987
     31          6           0       -3.304013    2.429636   -0.348210
     32          6           0        8.564994    0.854999   -0.020194
     33          6           0       -3.046693    3.896845   -0.785586
     34          6           0       -2.312669    1.580813   -0.196331
     35          6           0        7.371767    0.068920    0.118601
     36          6           0        7.490973   -1.312703    0.438070
     37          6           0        6.227863    0.792016   -0.074098
     38          6           0       -1.008342    1.863543   -0.374404
     39          6           0        4.886192    0.214842   -0.027864
     40          6           0        0.059001    0.884845   -0.300517
     41          6           0        3.838521    0.943490   -0.241069
     42          6           0        1.471544    1.222496   -0.182528
     43          6           0        2.486202    0.391174   -0.026004
     44          6           0        2.274055   -1.099060    0.071700
     45          1           0      -12.804972   -2.828538   -1.093112
     46          1           0      -13.621314   -1.563910   -1.798709
     47          1           0      -13.799045   -0.122674    1.966392
     48          1           0      -13.830725    0.764923    0.206047
     49          1           0      -14.610584   -1.678672    0.462433
     50          1           0      -10.572114   -2.868976   -1.585726
     51          1           0      -11.410865   -2.412651   -2.941079
     52          1           0       -9.825022   -1.508456   -2.370978
     53          1           0       -9.196682    1.013262   -0.823813
     54          1           0       -9.923513    0.166503    2.228650
     55          1           0      -11.629744    0.442627    3.065912
     56          1           0      -11.137530   -0.991584    2.366906
     57          1           0      -12.230955    2.155482   -0.005778
     58          1           0      -11.910670    2.273609    1.747663
     59          1           0      -10.464709    2.189336    0.590878
     60          1           0      -12.119021   -2.199770    1.512183
     61          1           0       -9.179410   -1.551811    0.712009
     62          1           0       -5.867662   -2.116326   -0.296585
     63          1           0       -5.620684   -1.720847    1.527730
     64          1           0       -6.893042   -2.699192    1.027979
     65          1           0       -7.404674    1.433778   -0.211101
     66          1           0       -4.611462    0.028987    0.019813
     67          1           0       13.437547   -1.103831    2.408496
     68          1           0       12.081734   -1.958740    1.852081
     69          1           0       13.890513   -2.820003    0.496252
     70          1           0       13.076060   -2.186308   -1.624869
     71          1           0       11.743830   -2.860917   -0.514172
     72          1           0       11.774473    0.712861    3.465380
     73          1           0       10.450452    1.429535    2.137216
     74          1           0       10.322315   -0.426647    2.663107
     75          1           0       13.823605    0.956124    0.375314
     76          1           0       12.307271    2.147062    0.879731
     77          1           0       13.762968    1.452155    2.043807
     78          1           0       12.716991   -0.134310   -2.882345
     79          1           0       11.595014    1.121301   -2.436718
     80          1           0       13.160368    0.778764   -1.542536
     81          1           0       -5.528558    2.954519   -0.478079
     82          1           0        9.852727   -0.441205   -2.071203
     83          1           0       14.908320   -0.551091    0.742483
     84          1           0        8.300792    1.849700   -0.437123
     85          1           0       -2.267308    4.383166   -0.009884
     86          1           0       -2.721034    3.861030   -1.798912
     87          1           0       -3.949016    4.465102   -0.905140
     88          1           0       -2.548216    0.482548    0.137148
     89          1           0        6.583544   -1.916216    0.137836
     90          1           0        8.160005   -1.828053   -0.130926
     91          1           0        7.436297   -1.562383    1.486558
     92          1           0        6.315421    1.758155   -0.350929
     93          1           0       -0.713363    2.841351   -0.542790
     94          1           0        4.596876   -0.838163    0.379195
     95          1           0       -0.344837   -0.276834   -0.245044
     96          1           0        3.921897    1.921772   -0.616452
     97          1           0        1.678520    2.211855   -0.286993
     98          1           0        1.164383   -1.507397   -0.439283
     99          1           0        3.242342   -1.475137   -0.470954
    100          1           0        2.129809   -1.349846    1.209693
 ---------------------------------------------------------------------

 SCF Done:  E(RCAM-B3LYP) =  -1857.28525984     A.U. after   15 cycles

 Excitation energies and oscillator strengths:

 Excited State   1:      Singlet-A      2.5298 eV  490.09 nm  f=2.7776  <S**2>=0.000
     163 ->166         0.13699
     164 ->165         0.68911
 This state for optimization and/or second-order correction.
 Total Energy, E(TD-HF/TD-DFT) =  -1857.19229143
 Copying the excited state density for this state as the 1-particle RhoCI density.

 The electronic state is 1-A.
 Alpha  occ. eigenvalues --  -19.23641 -19.21929 -19.21180 -19.20911 -10.32570
 Alpha  occ. eigenvalues --  -10.31719 -10.31575 -10.31360 -10.30591 -10.28824
 Alpha  occ. eigenvalues --  -10.28702 -10.28414 -10.28167 -10.27708 -10.27703
 Alpha  occ. eigenvalues --  -10.27684 -10.27642 -10.27564 -10.27519 -10.27432
 Alpha  occ. eigenvalues --  -10.27422 -10.27404 -10.27274 -10.27127 -10.27117
 Alpha  occ. eigenvalues --  -10.27082 -10.26930 -10.26862 -10.26278 -10.26274
 Alpha  occ. eigenvalues --  -10.26210 -10.25907 -10.25882 -10.25855 -10.25808
 Alpha  occ. eigenvalues --  -10.25703 -10.25571 -10.25423 -10.25290 -10.25164
 Alpha  occ. eigenvalues --  -10.24443 -10.24411 -10.24151 -10.23036  -1.15401
 Alpha  occ. eigenvalues --   -1.10050  -1.09733  -1.07762  -0.93556  -0.93273
 Alpha  occ. eigenvalues --   -0.92335  -0.91923  -0.91165  -0.90994  -0.87131
 Alpha  occ. eigenvalues --   -0.86406  -0.85999  -0.85777  -0.84563  -0.83679
 Alpha  occ. eigenvalues --   -0.81715  -0.81171  -0.80931  -0.78907  -0.77754
 Alpha  occ. eigenvalues --   -0.77122  -0.77037  -0.76592  -0.75485  -0.75425
 Alpha  occ. eigenvalues --   -0.74636  -0.73804  -0.73356  -0.70693  -0.69515
 Alpha  occ. eigenvalues --   -0.68564  -0.66925  -0.65329  -0.64303  -0.63928
 Alpha  occ. eigenvalues --   -0.63194  -0.62015  -0.61050  -0.60449  -0.60115
 Alpha  occ. eigenvalues --   -0.58787  -0.58341  -0.58117  -0.57054  -0.56732
 Alpha  occ. eigenvalues --   -0.56303  -0.56054  -0.55278  -0.55085  -0.54345
 Alpha  occ. eigenvalues --   -0.53357  -0.53083  -0.52730  -0.52227  -0.52024
 Alpha  occ. eigenvalues --   -0.51725  -0.51288  -0.51039  -0.50898  -0.50575
 Alpha  occ. eigenvalues --   -0.50467  -0.49480  -0.49182  -0.49164  -0.48982
 Alpha  occ. eigenvalues --   -0.48707  -0.48237  -0.48089  -0.47360  -0.46889
 Alpha  occ. eigenvalues --   -0.46409  -0.46304  -0.46201  -0.45577  -0.45358
 Alpha  occ. eigenvalues --   -0.44825  -0.44449  -0.44248  -0.44180  -0.43908
 Alpha  occ. eigenvalues --   -0.43692  -0.43579  -0.43514  -0.43075  -0.42754
 Alpha  occ. eigenvalues --   -0.42598  -0.42188  -0.41695  -0.41516  -0.41163
 Alpha  occ. eigenvalues --   -0.40860  -0.40474  -0.40278  -0.40173  -0.39630
 Alpha  occ. eigenvalues --   -0.39543  -0.39279  -0.38963  -0.38938  -0.38671
 Alpha  occ. eigenvalues --   -0.38343  -0.38209  -0.38100  -0.37406  -0.37171
 Alpha  occ. eigenvalues --   -0.36522  -0.36244  -0.35741  -0.34937  -0.34047
 Alpha  occ. eigenvalues --   -0.33043  -0.32285  -0.31798  -0.31402  -0.31070
 Alpha  occ. eigenvalues --   -0.30301  -0.28022  -0.25237  -0.21053
 Alpha virt. eigenvalues --   -0.05322  -0.00741   0.02399   0.05164   0.06327
 Alpha virt. eigenvalues --    0.06936   0.09593   0.10347   0.10563   0.12152
 Alpha virt. eigenvalues --    0.12525   0.12683   0.13244   0.13264   0.13614

 Mulliken charges:
               1
     1  O   -0.507891
     2  O   -0.546707
     3  O   -0.567347
     4  O   -0.540138
     5  C    0.178518
     6  C    0.243057
     7  C    0.009718
     8  C   -0.204760
     9  C   -0.195614
    10  C    0.139575
    11  C   -0.327292
    12  C   -0.101433
    13  C   -0.317807
    14  C   -0.276441
    15  C   -0.083200
    16  C    0.126978
    17  C   -0.382033
    18  C   -0.109222
    19  C   -0.080560
    20  C    0.007194
    21  C    0.260562
    22  C   -0.226554
    23  C    0.167787
    24  C   -0.177419
    25  C   -0.036822
    26  C   -0.281251
    27  C   -0.302527
    28  C   -0.272638
    29  C   -0.131637
    30  C    0.047605
    31  C    0.071029
    32  C   -0.285271
    33  C   -0.367348
    34  C   -0.079650
    35  C    0.189755
    36  C   -0.396955
    37  C   -0.133705
    38  C   -0.082607
    39  C   -0.105666
    40  C   -0.107148
    41  C   -0.071895
    42  C   -0.115551
    43  C    0.108669
    44  C   -0.356766
    45  H    0.101700
    46  H    0.086051
    47  H    0.104330
    48  H    0.096366
    49  H    0.112433
    50  H    0.124870
    51  H    0.103825
    52  H    0.119530
    53  H    0.094616
    54  H    0.115946
    55  H    0.090303
    56  H    0.084872
    57  H    0.130250
    58  H    0.101651
    59  H    0.080226
    60  H    0.305548
    61  H    0.060356
    62  H    0.151906
    63  H    0.101642
    64  H    0.099533
    65  H    0.087222
    66  H    0.088501
    67  H    0.090633
    68  H    0.101677
    69  H    0.079373
    70  H    0.122172
    71  H    0.103263
    72  H    0.098199
    73  H    0.099276
    74  H    0.105680
    75  H    0.078974
    76  H    0.104476
    77  H    0.083843
    78  H    0.118278
    79  H    0.073017
    80  H    0.130495
    81  H    0.081159
    82  H    0.309006
    83  H    0.296692
    84  H    0.097296
    85  H    0.103967
    86  H    0.136556
    87  H    0.111781
    88  H    0.075704
    89  H    0.100244
    90  H    0.140005
    91  H    0.133500
    92  H    0.078211
    93  H    0.084815
    94  H    0.091608
    95  H    0.064935
    96  H    0.083966
    97  H    0.073863
    98  H    0.092440
    99  H    0.113169
   100  H    0.121462
 Sum of Mulliken charges =  -0.00000

 Dipole moment (field-independent basis, Debye):
    X=              2.4929    Y=              0.1827    Z=              2.2548  Tot=              3.3663
 Quadrupole moment (field-independent basis, Debye-Ang):
   XX=           -305.8713   YY=           -264.8327   ZZ=           -279.1636
   XY=              1.3146   XZ=             26.9080   YZ=             -4.3552

 Normal termination of Gaussian 16 at Mon Jul 29 19:44:03 2019.
