 Gaussian 16, Revision A.03,
 Gaussian 16:  ES64L-G16RevA.03 25-Dec-2016

 -------------------------------------
 # td=(NStates=1) CAM-B3LYP/6-31G(d,p)
 -------------------------------------

 --
 TD
 --
 Symbolic Z-matrix:
 Charge =  0 Multiplicity = 1

                         Standard orientation:
 ---------------------------------------------------------------------
 Center     Atomic      Atomic             Coordinates (Angstroms)
 Number     Number       Type             X           Y           Z
 ---------------------------------------------------------------------
      1          8           0      -11.694258    0.335033   -1.585660
      2          8           0      -13.072466   -2.642290    1.103222
      3          8           0       10.433362   -0.818270   -2.230216
      4          8           0       14.453551   -1.021081   -0.344483
      5          6           0      -11.049488   -0.125081   -0.335764
      6          6           0      -11.558601   -1.096419   -1.285282
      7          6           0      -11.860728    0.299645    0.897833
      8          6           0      -12.913972   -1.727006   -1.156848
      9          6           0      -13.324242   -0.206492    0.792949
     10          6           0      -13.535202   -1.645449    0.284213
     11          6           0      -10.512933   -1.811965   -2.140410
     12          6           0       -9.536519    0.209291   -0.260243
     13          6           0      -11.229431   -0.217000    2.199593
     14          6           0      -11.792286    1.857600    0.918687
     15          6           0       -8.633385   -0.680262    0.204618
     16          6           0       -7.189081   -0.538625    0.244046
     17          6           0       -6.423617   -1.768346    0.534429
     18          6           0       -6.680971    0.574449   -0.026212
     19          6           0       -5.274733    0.901364   -0.081423
     20          6           0       12.023027   -0.086180    1.304337
     21          6           0       11.558649   -0.498957   -1.387925
     22          6           0       12.713335   -1.469859    1.267491
     23          6           0       13.358241   -1.837774   -0.020914
     24          6           0       12.337547   -1.853084   -1.163058
     25          6           0       11.131955    0.120990    0.154589
     26          6           0       11.104944   -0.010497    2.609752
     27          6           0       13.039641    0.974051    1.422375
     28          6           0       12.413326    0.579096   -2.073244
     29          6           0       -4.757930    2.167772   -0.267103
     30          6           0        9.912803    0.527936    0.101330
     31          6           0       -3.396443    2.517642   -0.345241
     32          6           0        8.690513    1.002900   -0.035718
     33          6           0       -3.124009    4.085267   -0.702705
     34          6           0       -2.347304    1.549132   -0.175071
     35          6           0        7.441760    0.232017    0.109698
     36          6           0        7.669749   -1.235692    0.414581
     37          6           0        6.291095    0.787962   -0.027722
     38          6           0       -1.018318    1.893133   -0.238845
     39          6           0        5.003668    0.198854    0.165624
     40          6           0        0.025056    1.026248   -0.016869
     41          6           0        3.847421    0.836203    0.141072
     42          6           0        1.470800    1.229763    0.058306
     43          6           0        2.556181    0.254063    0.211897
     44          6           0        2.336102   -1.212575    0.374925
     45          1           0      -12.953110   -2.872318   -1.318178
     46          1           0      -13.677506   -1.239411   -1.707555
     47          1           0      -13.791925    0.170038    1.785570
     48          1           0      -13.698852    0.475613    0.052837
     49          1           0      -14.561172   -1.695809   -0.004743
     50          1           0      -10.440427   -2.942310   -1.988906
     51          1           0      -10.840473   -1.790251   -3.279610
     52          1           0       -9.565520   -1.296500   -2.179573
     53          1           0       -9.338087    1.288523   -0.173669
     54          1           0      -10.277509    0.115284    2.233965
     55          1           0      -11.853496   -0.012755    3.104226
     56          1           0      -11.166250   -1.310711    2.221024
     57          1           0      -12.332231    2.170178   -0.011902
     58          1           0      -12.371942    2.366290    1.728066
     59          1           0      -10.903964    2.350597    1.191963
     60          1           0      -12.185141   -2.669662    1.119193
     61          1           0       -9.053161   -1.595788    0.477697
     62          1           0       -5.755787   -2.162120   -0.239727
     63          1           0       -5.781179   -1.589239    1.318824
     64          1           0       -7.242356   -2.673048    0.721570
     65          1           0       -7.347065    1.489778   -0.129505
     66          1           0       -4.480940    0.247470    0.056873
     67          1           0       13.572023   -1.464846    2.118008
     68          1           0       12.149702   -2.323255    1.354742
     69          1           0       13.597173   -2.871704    0.178817
     70          1           0       12.803095   -2.097419   -1.906226
     71          1           0       11.537987   -2.413907   -0.886898
     72          1           0       11.803766   -0.258318    3.619243
     73          1           0       10.408693    0.923984    2.471627
     74          1           0       10.024872   -0.639910    2.747259
     75          1           0       13.674986    1.023554    0.482774
     76          1           0       12.582747    2.043226    1.220526
     77          1           0       13.604491    0.988232    2.365725
     78          1           0       12.849862    0.056860   -2.967306
     79          1           0       11.914009    1.382463   -2.467383
     80          1           0       13.138033    0.897208   -1.431178
     81          1           0       -5.430872    3.112970   -0.076610
     82          1           0        9.913413   -0.099324   -2.472268
     83          1           0       15.168454   -1.004422    0.341254
     84          1           0        8.465901    2.006494   -0.530591
     85          1           0       -2.855777    4.545563    0.241904
     86          1           0       -2.397984    4.163642   -1.486764
     87          1           0       -4.049928    4.708264   -1.343813
     88          1           0       -2.513588    0.506861    0.100596
     89          1           0        6.766096   -1.648316    0.358666
     90          1           0        8.392599   -1.716030   -0.350228
     91          1           0        8.090753   -1.384886    1.413709
     92          1           0        6.468171    1.757871   -0.587466
     93          1           0       -0.671345    2.896149   -0.509125
     94          1           0        4.909560   -1.010569    0.277818
     95          1           0       -0.421923    0.015843   -0.136725
     96          1           0        3.951413    1.981332   -0.028197
     97          1           0        1.706644    2.348808   -0.015879
     98          1           0        1.325603   -1.623858    0.548312
     99          1           0        2.659019   -1.680820   -0.449517
    100          1           0        2.919198   -1.597413    1.253369
 ---------------------------------------------------------------------

 SCF Done:  E(RCAM-B3LYP) =  -1857.30930233     A.U. after   15 cycles

 Excitation energies and oscillator strengths:

 Excited State   1:      Singlet-A      2.3151 eV  535.55 nm  f=2.8718  <S**2>=0.000
     163 ->166         0.12806
     164 ->165         0.69580
 This state for optimization and/or second-order correction.
 Total Energy, E(TD-HF/TD-DFT) =  -1857.22422460
 Copying the excited state density for this state as the 1-particle RhoCI density.

 The electronic state is 1-A.
 Alpha  occ. eigenvalues --  -19.22179 -19.21574 -19.21394 -19.21141 -10.33469
 Alpha  occ. eigenvalues --  -10.31896 -10.31677 -10.30683 -10.30674 -10.28871
 Alpha  occ. eigenvalues --  -10.28744 -10.28600 -10.28204 -10.28088 -10.27997
 Alpha  occ. eigenvalues --  -10.27306 -10.27098 -10.26996 -10.26847 -10.26845
 Alpha  occ. eigenvalues --  -10.26845 -10.26565 -10.26557 -10.26540 -10.26340
 Alpha  occ. eigenvalues --  -10.26300 -10.26176 -10.26169 -10.26040 -10.26007
 Alpha  occ. eigenvalues --  -10.25972 -10.25864 -10.25862 -10.25652 -10.25566
 Alpha  occ. eigenvalues --  -10.25543 -10.25412 -10.25146 -10.24842 -10.24312
 Alpha  occ. eigenvalues --  -10.23886 -10.23781 -10.23408 -10.23081  -1.13221
 Alpha  occ. eigenvalues --   -1.12582  -1.10397  -1.09952  -0.93580  -0.93394
 Alpha  occ. eigenvalues --   -0.92206  -0.91093  -0.90416  -0.89996  -0.87526
 Alpha  occ. eigenvalues --   -0.87259  -0.86373  -0.85666  -0.84607  -0.83350
 Alpha  occ. eigenvalues --   -0.81764  -0.81089  -0.80480  -0.78565  -0.77682
 Alpha  occ. eigenvalues --   -0.77030  -0.76927  -0.76617  -0.76568  -0.75610
 Alpha  occ. eigenvalues --   -0.74280  -0.73871  -0.73304  -0.71440  -0.70149
 Alpha  occ. eigenvalues --   -0.69414  -0.67248  -0.66234  -0.65692  -0.64546
 Alpha  occ. eigenvalues --   -0.63837  -0.62138  -0.61026  -0.60582  -0.59544
 Alpha  occ. eigenvalues --   -0.58933  -0.58878  -0.58168  -0.57770  -0.56497
 Alpha  occ. eigenvalues --   -0.55656  -0.55009  -0.54898  -0.54448  -0.54420
 Alpha  occ. eigenvalues --   -0.54136  -0.53771  -0.53257  -0.52002  -0.51940
 Alpha  occ. eigenvalues --   -0.51238  -0.50985  -0.50597  -0.50072  -0.49943
 Alpha  occ. eigenvalues --   -0.49759  -0.49636  -0.49543  -0.49266  -0.48981
 Alpha  occ. eigenvalues --   -0.48918  -0.48304  -0.47965  -0.47763  -0.47317
 Alpha  occ. eigenvalues --   -0.46947  -0.46597  -0.45496  -0.45313  -0.45089
 Alpha  occ. eigenvalues --   -0.44802  -0.44435  -0.44368  -0.43799  -0.43634
 Alpha  occ. eigenvalues --   -0.43534  -0.43431  -0.43108  -0.42538  -0.42424
 Alpha  occ. eigenvalues --   -0.42098  -0.41884  -0.41705  -0.41500  -0.41171
 Alpha  occ. eigenvalues --   -0.40927  -0.40871  -0.40487  -0.40272  -0.40102
 Alpha  occ. eigenvalues --   -0.39983  -0.39496  -0.39182  -0.39141  -0.38524
 Alpha  occ. eigenvalues --   -0.37990  -0.37734  -0.37197  -0.37042  -0.37038
 Alpha  occ. eigenvalues --   -0.36452  -0.35822  -0.35327  -0.35005  -0.34183
 Alpha  occ. eigenvalues --   -0.32977  -0.31917  -0.31770  -0.31517  -0.30596
 Alpha  occ. eigenvalues --   -0.30228  -0.28068  -0.25080  -0.19997
 Alpha virt. eigenvalues --   -0.05595   0.00005   0.03426   0.06125   0.06678
 Alpha virt. eigenvalues --    0.10258   0.10572   0.10894   0.12014   0.12488
 Alpha virt. eigenvalues --    0.12583   0.12716   0.13169   0.13268   0.13922

 Mulliken charges:
               1
     1  O   -0.517841
     2  O   -0.512203
     3  O   -0.562490
     4  O   -0.554121
     5  C    0.206214
     6  C    0.256277
     7  C    0.007250
     8  C   -0.236200
     9  C   -0.192860
    10  C    0.149258
    11  C   -0.343465
    12  C   -0.121050
    13  C   -0.294816
    14  C   -0.325502
    15  C   -0.083179
    16  C    0.152757
    17  C   -0.374470
    18  C   -0.121448
    19  C   -0.072565
    20  C    0.051804
    21  C    0.239427
    22  C   -0.168185
    23  C    0.142627
    24  C   -0.135140
    25  C   -0.162771
    26  C   -0.296188
    27  C   -0.312004
    28  C   -0.296668
    29  C   -0.115605
    30  C    0.250579
    31  C    0.045155
    32  C   -0.324183
    33  C   -0.355746
    34  C   -0.117513
    35  C    0.135163
    36  C   -0.362954
    37  C   -0.117918
    38  C   -0.059831
    39  C   -0.114811
    40  C   -0.105204
    41  C   -0.085471
    42  C   -0.145397
    43  C    0.105564
    44  C   -0.383643
    45  H    0.100112
    46  H    0.126690
    47  H    0.086119
    48  H    0.104787
    49  H    0.108298
    50  H    0.097278
    51  H    0.098293
    52  H    0.134703
    53  H    0.104932
    54  H    0.113538
    55  H    0.104783
    56  H    0.066295
    57  H    0.126199
    58  H    0.087969
    59  H    0.108999
    60  H    0.297107
    61  H    0.071238
    62  H    0.128390
    63  H    0.135635
    64  H    0.083291
    65  H    0.079235
    66  H    0.072422
    67  H    0.055755
    68  H    0.104882
    69  H    0.080892
    70  H    0.101405
    71  H    0.123053
    72  H    0.076670
    73  H    0.110674
    74  H    0.075622
    75  H    0.123760
    76  H    0.090488
    77  H    0.102897
    78  H    0.100651
    79  H    0.099549
    80  H    0.124014
    81  H    0.077751
    82  H    0.303763
    83  H    0.312416
    84  H    0.089899
    85  H    0.139708
    86  H    0.134320
    87  H    0.085419
    88  H    0.093806
    89  H    0.104412
    90  H    0.125282
    91  H    0.116689
    92  H    0.072861
    93  H    0.077414
    94  H    0.077008
    95  H    0.065785
    96  H    0.083611
    97  H    0.080619
    98  H    0.119600
    99  H    0.142580
   100  H    0.119801
 Sum of Mulliken charges =  -0.00000

 Dipole moment (field-independent basis, Debye):
    X=              4.5670    Y=             -0.7100    Z=              1.3168  Tot=              4.8058
 Quadrupole moment (field-independent basis, Debye-Ang):
   XX=           -264.9854   YY=           -258.9403   ZZ=           -278.6744
   XY=             -6.4016   XZ=              9.9424   YZ=             -2.7625

 Normal termination of Gaussian 16 at Fri Aug  2 07:59:55 2019.
