 Gaussian 16, Revision A.03,
 Gaussian 16:  ES64L-G16RevA.03 25-Dec-2016

 -------------------------------------
 # td=(NStates=1) CAM-B3LYP/6-31G(d,p)
 -------------------------------------

 --
 TD
 --
 Symbolic Z-matrix:
 Charge =  0 Multiplicity = 1

                         Standard orientation:
 ---------------------------------------------------------------------
 Center     Atomic      Atomic             Coordinates (Angstroms)
 Number     Number       Type             X           Y           Z
 ---------------------------------------------------------------------
      1          8           0      -11.655563    0.012448   -1.682656
      2          8           0      -12.894369   -2.251411    1.694383
      3          8           0       10.517189   -1.041410   -2.077469
      4          8           0       14.398202   -0.967925   -0.096571
      5          6           0      -11.044341   -0.180800   -0.372012
      6          6           0      -11.661216   -1.325564   -1.125997
      7          6           0      -11.780880    0.536734    0.835996
      8          6           0      -13.003839   -1.889519   -0.710805
      9          6           0      -13.189755    0.113158    0.877743
     10          6           0      -13.415831   -1.462349    0.695972
     11          6           0      -10.838714   -2.205949   -1.931568
     12          6           0       -9.595794    0.032536   -0.450250
     13          6           0      -11.107838    0.273724    2.128359
     14          6           0      -11.667726    2.091636    0.589879
     15          6           0       -8.596447   -0.811727    0.073675
     16          6           0       -7.225356   -0.624631    0.152906
     17          6           0       -6.460663   -1.791610    0.571208
     18          6           0       -6.587219    0.577697   -0.132327
     19          6           0       -5.240906    0.918223   -0.148071
     20          6           0       11.963820    0.071644    1.381118
     21          6           0       11.635548   -0.556134   -1.256457
     22          6           0       12.731804   -1.265797    1.475614
     23          6           0       13.303434   -1.744841    0.264394
     24          6           0       12.415132   -1.814774   -0.969703
     25          6           0       11.041455    0.130440    0.069003
     26          6           0       11.084875    0.231125    2.637315
     27          6           0       12.970997    1.321979    1.337312
     28          6           0       12.451748    0.458887   -2.089277
     29          6           0       -4.683874    2.049110   -0.487125
     30          6           0        9.850119    0.551574    0.038663
     31          6           0       -3.391595    2.462929   -0.461158
     32          6           0        8.664611    0.872096   -0.048864
     33          6           0       -3.062130    4.031979   -0.599221
     34          6           0       -2.394679    1.548051   -0.429593
     35          6           0        7.439825    0.038200   -0.017704
     36          6           0        7.635220   -1.415792    0.175162
     37          6           0        6.211216    0.690860   -0.210267
     38          6           0       -0.965647    1.833208   -0.396633
     39          6           0        4.939165    0.199684   -0.000660
     40          6           0       -0.039572    0.829524   -0.156971
     41          6           0        3.808264    0.835167   -0.147235
     42          6           0        1.350833    1.084643   -0.144624
     43          6           0        2.481935    0.270876    0.003659
     44          6           0        2.337526   -1.251311    0.125030
     45          1           0      -13.039634   -2.931383   -1.042990
     46          1           0      -13.553028   -1.131956   -1.405312
     47          1           0      -13.663279    0.751141    1.742182
     48          1           0      -13.824207    0.532671    0.024341
     49          1           0      -14.425091   -1.714596    0.770766
     50          1           0      -10.328784   -3.062900   -1.237646
     51          1           0      -11.365648   -2.766764   -2.895474
     52          1           0      -10.024191   -1.514191   -2.130323
     53          1           0       -9.382170    0.925347   -1.062346
     54          1           0       -9.970367    0.721269    2.329798
     55          1           0      -11.643161    0.839513    3.046700
     56          1           0      -10.924460   -0.798786    2.306310
     57          1           0      -12.009245    2.561825   -0.377316
     58          1           0      -11.956692    2.897862    1.583929
     59          1           0      -10.529099    2.273537    0.609691
     60          1           0      -11.873615   -2.572647    1.436952
     61          1           0       -9.023345   -1.758130    0.332288
     62          1           0       -5.929041   -2.222877   -0.183235
     63          1           0       -5.855111   -1.552547    1.359453
     64          1           0       -7.102054   -2.398326    0.881347
     65          1           0       -7.317308    1.376749   -0.564223
     66          1           0       -4.625188   -0.050764    0.224215
     67          1           0       13.461408   -1.045523    2.266772
     68          1           0       11.930068   -1.951144    1.939354
     69          1           0       13.629245   -2.858999    0.666551
     70          1           0       12.998772   -2.056417   -1.986828
     71          1           0       11.537854   -2.390525   -0.586743
     72          1           0       11.707535    0.384101    3.546699
     73          1           0       10.418687    1.060368    2.584279
     74          1           0       10.407569   -0.583852    2.758329
     75          1           0       13.753631    1.325812    0.804099
     76          1           0       12.545817    2.272127    1.230587
     77          1           0       13.508943    1.205034    2.352072
     78          1           0       12.786894    0.159358   -2.909137
     79          1           0       11.625890    1.374376   -2.542098
     80          1           0       13.235673    0.911289   -1.399997
     81          1           0       -5.592017    2.638525   -0.729575
     82          1           0        9.880236   -0.332233   -1.970354
     83          1           0       15.159177   -1.124273    0.702250
     84          1           0        8.370660    1.920527   -0.228192
     85          1           0       -2.578208    4.444199    0.353432
     86          1           0       -2.126622    4.277257   -1.344844
     87          1           0       -3.956703    4.515381   -0.876246
     88          1           0       -2.595574    0.580596   -0.040609
     89          1           0        6.721470   -2.132295    0.229192
     90          1           0        8.270706   -1.981965   -0.556147
     91          1           0        7.790288   -1.706669    1.328978
     92          1           0        6.300809    1.664690   -0.349587
     93          1           0       -0.832752    2.837576   -0.512486
     94          1           0        4.960728   -0.933685    0.149961
     95          1           0       -0.314609   -0.280799    0.087110
     96          1           0        3.738261    1.848984   -0.521458
     97          1           0        1.391352    2.066849   -0.291793
     98          1           0        1.225185   -1.441463    0.323350
     99          1           0        2.817498   -1.620914   -0.796674
    100          1           0        3.082135   -1.753281    0.990233
 ---------------------------------------------------------------------

 SCF Done:  E(RCAM-B3LYP) =  -1857.21680126     A.U. after   15 cycles

 Excitation energies and oscillator strengths:

 Excited State   1:      Singlet-A      2.3228 eV  533.77 nm  f=3.1395  <S**2>=0.000
     163 ->166         0.15286
     164 ->165         0.68879
 This state for optimization and/or second-order correction.
 Total Energy, E(TD-HF/TD-DFT) =  -1857.13144064
 Copying the excited state density for this state as the 1-particle RhoCI density.

 The electronic state is 1-A.
 Alpha  occ. eigenvalues --  -19.23409 -19.22360 -19.22109 -19.20193 -10.32208
 Alpha  occ. eigenvalues --  -10.32081 -10.31891 -10.31659 -10.30647 -10.28937
 Alpha  occ. eigenvalues --  -10.28663 -10.28315 -10.28122 -10.27912 -10.27844
 Alpha  occ. eigenvalues --  -10.27789 -10.27605 -10.27283 -10.27173 -10.27155
 Alpha  occ. eigenvalues --  -10.27010 -10.26953 -10.26893 -10.26850 -10.26583
 Alpha  occ. eigenvalues --  -10.26542 -10.26513 -10.26482 -10.26458 -10.26333
 Alpha  occ. eigenvalues --  -10.26333 -10.26024 -10.25986 -10.25946 -10.25834
 Alpha  occ. eigenvalues --  -10.25763 -10.25544 -10.25377 -10.25296 -10.25232
 Alpha  occ. eigenvalues --  -10.24572 -10.24266 -10.23424 -10.22159  -1.14523
 Alpha  occ. eigenvalues --   -1.10181  -1.09344  -1.08315  -0.93481  -0.92926
 Alpha  occ. eigenvalues --   -0.92189  -0.91845  -0.91029  -0.90591  -0.88556
 Alpha  occ. eigenvalues --   -0.87017  -0.86556  -0.85859  -0.85024  -0.84142
 Alpha  occ. eigenvalues --   -0.82773  -0.81145  -0.80845  -0.78541  -0.77609
 Alpha  occ. eigenvalues --   -0.77387  -0.76930  -0.76349  -0.76257  -0.75643
 Alpha  occ. eigenvalues --   -0.75224  -0.74039  -0.73335  -0.70804  -0.70192
 Alpha  occ. eigenvalues --   -0.68851  -0.67149  -0.65910  -0.64709  -0.64128
 Alpha  occ. eigenvalues --   -0.63104  -0.62233  -0.61101  -0.60993  -0.59591
 Alpha  occ. eigenvalues --   -0.59081  -0.58622  -0.57951  -0.57412  -0.57022
 Alpha  occ. eigenvalues --   -0.56489  -0.56372  -0.55261  -0.54909  -0.54513
 Alpha  occ. eigenvalues --   -0.53673  -0.53270  -0.53115  -0.52964  -0.52546
 Alpha  occ. eigenvalues --   -0.51570  -0.51439  -0.51162  -0.50039  -0.49814
 Alpha  occ. eigenvalues --   -0.49547  -0.48964  -0.48555  -0.48334  -0.48221
 Alpha  occ. eigenvalues --   -0.48090  -0.47701  -0.47456  -0.47369  -0.47105
 Alpha  occ. eigenvalues --   -0.46764  -0.46438  -0.46026  -0.45752  -0.45606
 Alpha  occ. eigenvalues --   -0.45283  -0.45133  -0.44736  -0.44639  -0.44519
 Alpha  occ. eigenvalues --   -0.43548  -0.43338  -0.42733  -0.42229  -0.42100
 Alpha  occ. eigenvalues --   -0.41671  -0.41442  -0.41396  -0.41295  -0.41236
 Alpha  occ. eigenvalues --   -0.40797  -0.40749  -0.40442  -0.40103  -0.39990
 Alpha  occ. eigenvalues --   -0.39688  -0.39313  -0.38933  -0.38805  -0.38695
 Alpha  occ. eigenvalues --   -0.38255  -0.38085  -0.37854  -0.37294  -0.37270
 Alpha  occ. eigenvalues --   -0.36858  -0.36324  -0.35538  -0.34895  -0.34240
 Alpha  occ. eigenvalues --   -0.32584  -0.32363  -0.32268  -0.31623  -0.30657
 Alpha  occ. eigenvalues --   -0.30235  -0.28085  -0.24329  -0.20396
 Alpha virt. eigenvalues --   -0.05826  -0.01489   0.02651   0.06695   0.07010
 Alpha virt. eigenvalues --    0.07088   0.07634   0.10837   0.11196   0.11519
 Alpha virt. eigenvalues --    0.12206   0.12601   0.12766   0.13020   0.13613

 Mulliken charges:
               1
     1  O   -0.510237
     2  O   -0.538995
     3  O   -0.567967
     4  O   -0.536635
     5  C    0.180262
     6  C    0.241422
     7  C    0.058888
     8  C   -0.241391
     9  C   -0.200109
    10  C    0.187439
    11  C   -0.321177
    12  C   -0.114318
    13  C   -0.280004
    14  C   -0.303154
    15  C   -0.104676
    16  C    0.088318
    17  C   -0.354764
    18  C   -0.127874
    19  C   -0.033024
    20  C    0.012158
    21  C    0.219333
    22  C   -0.175365
    23  C    0.172323
    24  C   -0.174283
    25  C   -0.155464
    26  C   -0.312274
    27  C   -0.293585
    28  C   -0.252349
    29  C   -0.122889
    30  C    0.318958
    31  C    0.094215
    32  C   -0.390896
    33  C   -0.367394
    34  C   -0.115530
    35  C    0.150905
    36  C   -0.401907
    37  C   -0.096309
    38  C   -0.076642
    39  C   -0.077942
    40  C   -0.094024
    41  C   -0.092764
    42  C   -0.102185
    43  C    0.093329
    44  C   -0.354360
    45  H    0.109338
    46  H    0.132511
    47  H    0.092673
    48  H    0.099010
    49  H    0.102749
    50  H    0.069756
    51  H    0.102758
    52  H    0.134846
    53  H    0.113911
    54  H    0.083268
    55  H    0.095135
    56  H    0.091638
    57  H    0.121186
    58  H    0.064442
    59  H    0.097563
    60  H    0.297581
    61  H    0.069273
    62  H    0.134202
    63  H    0.127889
    64  H    0.103868
    65  H    0.062659
    66  H    0.058019
    67  H    0.088524
    68  H    0.093922
    69  H    0.046510
    70  H    0.117971
    71  H    0.119818
    72  H    0.094274
    73  H    0.113842
    74  H    0.107116
    75  H    0.125668
    76  H    0.110658
    77  H    0.063399
    78  H    0.119397
    79  H    0.034028
    80  H    0.117767
    81  H    0.080069
    82  H    0.303170
    83  H    0.306457
    84  H    0.105341
    85  H    0.124250
    86  H    0.101235
    87  H    0.123266
    88  H    0.084560
    89  H    0.098632
    90  H    0.146619
    91  H    0.104465
    92  H    0.064968
    93  H    0.078552
    94  H    0.074200
    95  H    0.076155
    96  H    0.084949
    97  H    0.065738
    98  H    0.103228
    99  H    0.137309
   100  H    0.092603
 Sum of Mulliken charges =  -0.00000

 Dipole moment (field-independent basis, Debye):
    X=              2.9672    Y=             -0.6128    Z=              2.3862  Tot=              3.8567
 Quadrupole moment (field-independent basis, Debye-Ang):
   XX=           -268.6066   YY=           -257.1946   ZZ=           -282.5118
   XY=              4.0786   XZ=             36.6694   YZ=             -2.7466

 Normal termination of Gaussian 16 at Mon Jul 29 01:30:04 2019.
