 Gaussian 16, Revision A.03,
 Gaussian 16:  ES64L-G16RevA.03 25-Dec-2016

 -------------------------------------
 # td=(NStates=1) CAM-B3LYP/6-31G(d,p)
 -------------------------------------

 --
 TD
 --
 Symbolic Z-matrix:
 Charge =  0 Multiplicity = 1

                         Standard orientation:
 ---------------------------------------------------------------------
 Center     Atomic      Atomic             Coordinates (Angstroms)
 Number     Number       Type             X           Y           Z
 ---------------------------------------------------------------------
      1          8           0      -11.519900   -0.085042   -1.719569
      2          8           0      -13.252752   -2.125105    1.547694
      3          8           0       10.652401   -1.388120   -2.065761
      4          8           0       14.533493   -0.846537    0.018883
      5          6           0      -10.990613   -0.212868   -0.448322
      6          6           0      -11.509127   -1.414642   -1.126452
      7          6           0      -11.848470    0.416100    0.670740
      8          6           0      -12.866683   -1.951253   -0.923201
      9          6           0      -13.306357    0.018098    0.525626
     10          6           0      -13.606966   -1.477232    0.309642
     11          6           0      -10.602903   -2.444013   -1.920337
     12          6           0       -9.518386   -0.023862   -0.400583
     13          6           0      -11.212080    0.220753    2.080418
     14          6           0      -11.822886    2.038408    0.383744
     15          6           0       -8.681237   -0.651135    0.467459
     16          6           0       -7.237742   -0.474941    0.452467
     17          6           0       -6.402784   -1.554983    0.998563
     18          6           0       -6.615634    0.736835    0.249595
     19          6           0       -5.231347    1.064283    0.147269
     20          6           0       11.976033    0.165013    1.291370
     21          6           0       11.646279   -0.724929   -1.275149
     22          6           0       12.732773   -1.148192    1.600543
     23          6           0       13.447121   -1.631945    0.365709
     24          6           0       12.511149   -1.978842   -0.726462
     25          6           0       11.133396   -0.123518    0.005483
     26          6           0       11.023153    0.407357    2.524451
     27          6           0       12.796979    1.394188    1.106197
     28          6           0       12.439999    0.152606   -2.191817
     29          6           0       -4.703919    2.233106   -0.248207
     30          6           0        9.948750    0.515381   -0.109838
     31          6           0       -3.404824    2.526834   -0.442708
     32          6           0        8.650629    0.874855   -0.323046
     33          6           0       -3.104466    3.903977   -0.881650
     34          6           0       -2.313581    1.641681   -0.184414
     35          6           0        7.484172    0.119054   -0.099781
     36          6           0        7.535874   -1.306919    0.237427
     37          6           0        6.244360    0.704554   -0.237733
     38          6           0       -0.983475    1.831930   -0.369820
     39          6           0        4.993009    0.167860   -0.079879
     40          6           0        0.035079    0.869787   -0.076571
     41          6           0        3.752074    0.769590   -0.174379
     42          6           0        1.391490    1.199769   -0.239800
     43          6           0        2.462407    0.364863    0.004422
     44          6           0        2.288917   -1.078714    0.667560
     45          1           0      -12.907880   -3.086593   -0.960191
     46          1           0      -13.578653   -1.800259   -1.958870
     47          1           0      -13.849978    0.358442    1.465965
     48          1           0      -13.872646    0.380891   -0.419187
     49          1           0      -14.595233   -1.555729    0.277262
     50          1           0      -10.261328   -3.253846   -1.364939
     51          1           0      -11.198058   -2.732961   -2.707580
     52          1           0       -9.603014   -1.861198   -2.080090
     53          1           0       -9.279014    0.604842   -1.305761
     54          1           0      -10.205820    0.702400    1.944525
     55          1           0      -11.760892    0.736893    2.827178
     56          1           0      -11.013701   -0.932113    2.273378
     57          1           0      -12.074922    2.245651   -0.673422
     58          1           0      -12.800575    2.226417    1.117493
     59          1           0      -10.862266    2.437563    0.781629
     60          1           0      -12.167569   -2.189252    1.682869
     61          1           0       -9.149587   -1.640058    0.852678
     62          1           0       -5.763116   -1.900715    0.396163
     63          1           0       -5.639029   -1.444371    1.904347
     64          1           0       -7.005071   -2.444068    1.264997
     65          1           0       -7.320962    1.492325   -0.166389
     66          1           0       -4.585049    0.179950    0.399098
     67          1           0       13.668909   -1.035816    2.437889
     68          1           0       11.904013   -1.829551    1.983988
     69          1           0       13.744918   -2.539430    0.375559
     70          1           0       13.134289   -2.335574   -1.466222
     71          1           0       11.851426   -2.762913   -0.392738
     72          1           0       11.381455    0.485621    3.439938
     73          1           0       10.392561    1.162596    2.233836
     74          1           0       10.402564   -0.361060    2.367426
     75          1           0       13.533313    1.144057    0.397926
     76          1           0       12.241643    2.207125    0.726750
     77          1           0       13.328184    1.642812    1.943165
     78          1           0       12.760055   -0.386255   -3.000867
     79          1           0       11.539243    0.859983   -2.395742
     80          1           0       13.226076    0.780125   -1.681069
     81          1           0       -5.300918    3.002028   -0.380709
     82          1           0       10.002140   -0.748505   -2.099304
     83          1           0       15.221403   -0.923517    0.688289
     84          1           0        8.478237    1.983924   -0.746231
     85          1           0       -1.962650    4.384950   -0.449332
     86          1           0       -2.960597    3.645032   -2.136461
     87          1           0       -4.031259    4.481083   -0.843901
     88          1           0       -2.607139    0.613198    0.308849
     89          1           0        6.789871   -2.022409   -0.026952
     90          1           0        8.379496   -1.572400   -0.365355
     91          1           0        7.815685   -1.230709    1.458264
     92          1           0        5.874752    1.841358   -0.820963
     93          1           0       -0.710662    2.775311   -0.872399
     94          1           0        4.831891   -0.750569    0.280286
     95          1           0       -0.208360   -0.219748    0.202315
     96          1           0        4.030063    1.754127   -0.621553
     97          1           0        1.602625    2.251058   -0.706176
     98          1           0        1.194896   -1.086277    1.273747
     99          1           0        2.433670   -1.964163   -0.142493
    100          1           0        3.025671   -1.044635    1.577881
 ---------------------------------------------------------------------

 SCF Done:  E(RCAM-B3LYP) =  -1857.19571612     A.U. after   16 cycles

 Excitation energies and oscillator strengths:

 Excited State   1:      Singlet-A      1.8419 eV  673.14 nm  f=3.1515  <S**2>=0.000
     163 ->166         0.12054
     164 ->165         0.70308
     164 <-165        -0.12289
 This state for optimization and/or second-order correction.
 Total Energy, E(TD-HF/TD-DFT) =  -1857.12802877
 Copying the excited state density for this state as the 1-particle RhoCI density.

 The electronic state is 1-A.
 Alpha  occ. eigenvalues --  -19.22572 -19.21903 -19.21174 -19.20667 -10.32287
 Alpha  occ. eigenvalues --  -10.31937 -10.31495 -10.29500 -10.29450 -10.29448
 Alpha  occ. eigenvalues --  -10.28834 -10.28480 -10.28148 -10.28118 -10.28086
 Alpha  occ. eigenvalues --  -10.28031 -10.27995 -10.27966 -10.27844 -10.27774
 Alpha  occ. eigenvalues --  -10.27685 -10.27682 -10.27646 -10.27553 -10.27454
 Alpha  occ. eigenvalues --  -10.27322 -10.27161 -10.27135 -10.27120 -10.26604
 Alpha  occ. eigenvalues --  -10.26547 -10.26529 -10.26387 -10.26201 -10.25680
 Alpha  occ. eigenvalues --  -10.25571 -10.25429 -10.25140 -10.25001 -10.24501
 Alpha  occ. eigenvalues --  -10.24376 -10.23746 -10.21745 -10.21297  -1.16896
 Alpha  occ. eigenvalues --   -1.11585  -1.10930  -1.06517  -0.93609  -0.93459
 Alpha  occ. eigenvalues --   -0.92464  -0.91815  -0.90934  -0.89848  -0.87984
 Alpha  occ. eigenvalues --   -0.87127  -0.86973  -0.85875  -0.85166  -0.84114
 Alpha  occ. eigenvalues --   -0.82670  -0.81171  -0.81038  -0.78548  -0.78013
 Alpha  occ. eigenvalues --   -0.77194  -0.77035  -0.76193  -0.76189  -0.74827
 Alpha  occ. eigenvalues --   -0.74810  -0.74250  -0.72842  -0.71431  -0.70371
 Alpha  occ. eigenvalues --   -0.68904  -0.67721  -0.65402  -0.64878  -0.64709
 Alpha  occ. eigenvalues --   -0.64472  -0.62489  -0.60842  -0.60412  -0.60301
 Alpha  occ. eigenvalues --   -0.59454  -0.58745  -0.57998  -0.57691  -0.56501
 Alpha  occ. eigenvalues --   -0.56427  -0.55464  -0.55370  -0.55020  -0.54220
 Alpha  occ. eigenvalues --   -0.53651  -0.53116  -0.52933  -0.52474  -0.52030
 Alpha  occ. eigenvalues --   -0.51231  -0.50859  -0.49985  -0.49674  -0.49593
 Alpha  occ. eigenvalues --   -0.49374  -0.49132  -0.49051  -0.48935  -0.48706
 Alpha  occ. eigenvalues --   -0.48511  -0.48288  -0.48169  -0.47892  -0.47322
 Alpha  occ. eigenvalues --   -0.47142  -0.46831  -0.46389  -0.45810  -0.45728
 Alpha  occ. eigenvalues --   -0.45695  -0.45445  -0.45410  -0.44661  -0.44342
 Alpha  occ. eigenvalues --   -0.43748  -0.43405  -0.42987  -0.42761  -0.42557
 Alpha  occ. eigenvalues --   -0.42360  -0.41851  -0.41829  -0.41381  -0.41263
 Alpha  occ. eigenvalues --   -0.40821  -0.40584  -0.40143  -0.39978  -0.39875
 Alpha  occ. eigenvalues --   -0.39592  -0.39283  -0.38985  -0.38804  -0.38417
 Alpha  occ. eigenvalues --   -0.38311  -0.37613  -0.37499  -0.37105  -0.36627
 Alpha  occ. eigenvalues --   -0.36234  -0.35988  -0.35481  -0.35202  -0.33744
 Alpha  occ. eigenvalues --   -0.33285  -0.32746  -0.31900  -0.31594  -0.30181
 Alpha  occ. eigenvalues --   -0.29791  -0.28108  -0.24572  -0.18884
 Alpha virt. eigenvalues --   -0.07484  -0.01504   0.02157   0.04694   0.06398
 Alpha virt. eigenvalues --    0.07628   0.09458   0.10371   0.10895   0.11139
 Alpha virt. eigenvalues --    0.11431   0.12153   0.12576   0.12762   0.12849

 Mulliken charges:
               1
     1  O   -0.502933
     2  O   -0.567991
     3  O   -0.541545
     4  O   -0.549328
     5  C    0.241486
     6  C    0.199774
     7  C    0.001356
     8  C   -0.214029
     9  C   -0.188545
    10  C    0.173341
    11  C   -0.323321
    12  C   -0.111424
    13  C   -0.280075
    14  C   -0.300912
    15  C   -0.110420
    16  C    0.087973
    17  C   -0.381241
    18  C   -0.113632
    19  C   -0.058083
    20  C   -0.007326
    21  C    0.203841
    22  C   -0.163184
    23  C    0.184589
    24  C   -0.198414
    25  C   -0.035344
    26  C   -0.298247
    27  C   -0.296672
    28  C   -0.263067
    29  C   -0.089508
    30  C    0.051228
    31  C    0.119757
    32  C   -0.261486
    33  C   -0.358259
    34  C   -0.108105
    35  C    0.101013
    36  C   -0.345826
    37  C   -0.083615
    38  C   -0.086723
    39  C   -0.068839
    40  C   -0.097838
    41  C   -0.103917
    42  C   -0.104926
    43  C    0.096691
    44  C   -0.359461
    45  H    0.108460
    46  H    0.090894
    47  H    0.095701
    48  H    0.092381
    49  H    0.104039
    50  H    0.115751
    51  H    0.127208
    52  H    0.107387
    53  H    0.121979
    54  H    0.119249
    55  H    0.118373
    56  H    0.054113
    57  H    0.130709
    58  H    0.079300
    59  H    0.102883
    60  H    0.296772
    61  H    0.090004
    62  H    0.141708
    63  H    0.104073
    64  H    0.096342
    65  H    0.069690
    66  H    0.080380
    67  H    0.038301
    68  H    0.096464
    69  H    0.080006
    70  H    0.101767
    71  H    0.116771
    72  H    0.107930
    73  H    0.108935
    74  H    0.102073
    75  H    0.125493
    76  H    0.103707
    77  H    0.097731
    78  H    0.127636
    79  H    0.071592
    80  H    0.120367
    81  H    0.069289
    82  H    0.290226
    83  H    0.311246
    84  H    0.112185
    85  H    0.104493
    86  H    0.094416
    87  H    0.120024
    88  H    0.066391
    89  H    0.128969
    90  H    0.126631
    91  H    0.100767
    92  H    0.038728
    93  H    0.084795
    94  H    0.055949
    95  H    0.094254
    96  H    0.049784
    97  H    0.086563
    98  H    0.089013
    99  H    0.120639
   100  H    0.122656
 Sum of Mulliken charges =  -0.00000

 Dipole moment (field-independent basis, Debye):
    X=              1.6400    Y=             -1.0192    Z=              1.3334  Tot=              2.3465
 Quadrupole moment (field-independent basis, Debye-Ang):
   XX=           -271.5156   YY=           -262.3595   ZZ=           -279.6498
   XY=             -2.2467   XZ=             31.4839   YZ=             -3.6226

 Normal termination of Gaussian 16 at Tue Jul 30 08:58:43 2019.
