 Gaussian 16, Revision A.03,
 Gaussian 16:  ES64L-G16RevA.03 25-Dec-2016

 -------------------------------------
 # td=(NStates=1) CAM-B3LYP/6-31G(d,p)
 -------------------------------------

 --
 TD
 --
 Symbolic Z-matrix:
 Charge =  0 Multiplicity = 1

                         Standard orientation:
 ---------------------------------------------------------------------
 Center     Atomic      Atomic             Coordinates (Angstroms)
 Number     Number       Type             X           Y           Z
 ---------------------------------------------------------------------
      1          8           0      -11.717935    0.513598   -1.232652
      2          8           0      -12.953921   -2.800190    1.054151
      3          8           0       10.534160   -0.879689   -2.133106
      4          8           0       14.544487   -1.101877   -0.187828
      5          6           0      -10.979713   -0.160835   -0.127984
      6          6           0      -11.786921   -0.777458   -1.275625
      7          6           0      -11.640158    0.099917    1.262392
      8          6           0      -13.127216   -1.552318   -1.024347
      9          6           0      -13.198011   -0.223609    1.190223
     10          6           0      -13.502052   -1.609665    0.442914
     11          6           0      -11.065357   -1.473092   -2.530317
     12          6           0       -9.593475    0.186503   -0.307851
     13          6           0      -10.983419   -0.699202    2.413344
     14          6           0      -11.580743    1.593208    1.647766
     15          6           0       -8.594785   -0.746717   -0.161299
     16          6           0       -7.142412   -0.490466   -0.081556
     17          6           0       -6.287939   -1.770521   -0.052009
     18          6           0       -6.601003    0.789307   -0.236336
     19          6           0       -5.193399    1.001454   -0.231228
     20          6           0       11.921925    0.036749    1.353691
     21          6           0       11.636205   -0.515970   -1.194595
     22          6           0       12.595803   -1.356062    1.439071
     23          6           0       13.357224   -1.933086    0.127916
     24          6           0       12.324773   -1.875328   -0.995789
     25          6           0       11.087799    0.029196    0.154215
     26          6           0       11.092410    0.081168    2.575172
     27          6           0       12.993756    1.129905    1.403141
     28          6           0       12.601745    0.467332   -1.927140
     29          6           0       -4.740075    2.324646   -0.398184
     30          6           0        9.891342    0.468234    0.115856
     31          6           0       -3.386672    2.636575   -0.486404
     32          6           0        8.638104    0.907447   -0.078624
     33          6           0       -2.956510    4.074886   -0.512010
     34          6           0       -2.393821    1.687771   -0.389670
     35          6           0        7.421111    0.152669    0.123675
     36          6           0        7.623176   -1.296947    0.265935
     37          6           0        6.218698    0.755162    0.005170
     38          6           0       -0.964461    1.900775   -0.302035
     39          6           0        4.985223    0.105073   -0.009976
     40          6           0        0.019260    0.936773   -0.230704
     41          6           0        3.757694    0.839075   -0.033863
     42          6           0        1.393245    1.256681   -0.257966
     43          6           0        2.501882    0.377644   -0.051538
     44          6           0        2.173983   -1.051150    0.138898
     45          1           0      -13.361611   -2.732654   -1.570157
     46          1           0      -13.874739   -0.920087   -1.584277
     47          1           0      -13.622531   -0.350271    2.264837
     48          1           0      -13.850961    0.633776    0.692256
     49          1           0      -14.454713   -1.798783    0.440757
     50          1           0      -10.731064   -2.511580   -2.359132
     51          1           0      -11.982889   -1.763904   -3.350969
     52          1           0      -10.264934   -0.940650   -2.959052
     53          1           0       -9.642687    1.408252   -0.419038
     54          1           0       -9.999656   -0.283416    2.790501
     55          1           0      -11.670399   -0.574379    3.187306
     56          1           0      -10.831515   -1.762870    2.196324
     57          1           0      -12.267729    2.251033    0.854567
     58          1           0      -11.958113    1.628325    2.804833
     59          1           0      -10.618410    1.962280    1.787988
     60          1           0      -12.090273   -2.792795    0.721391
     61          1           0       -8.823667   -1.786935   -0.131172
     62          1           0       -6.335493   -2.213653   -1.384597
     63          1           0       -5.075153   -1.743656    0.319510
     64          1           0       -6.690246   -2.623652    0.517377
     65          1           0       -7.506195    1.600759   -0.319165
     66          1           0       -4.493118    0.264568   -0.252873
     67          1           0       13.361629   -1.436249    2.348199
     68          1           0       11.887739   -2.245751    1.532070
     69          1           0       13.768526   -2.914084    0.300402
     70          1           0       12.867707   -2.131606   -1.980406
     71          1           0       11.508549   -2.561007   -0.824607
     72          1           0       11.634712    0.099574    3.522919
     73          1           0       10.394371    0.918379    2.681072
     74          1           0       10.323905   -0.687963    2.637688
     75          1           0       13.750430    0.888568    0.647931
     76          1           0       12.447258    2.084598    1.155537
     77          1           0       13.508317    1.020537    2.443435
     78          1           0       13.056161    0.026300   -2.948607
     79          1           0       12.030823    1.281095   -2.280530
     80          1           0       13.399263    0.749640   -1.239481
     81          1           0       -5.440029    3.195579   -0.190298
     82          1           0       10.193472   -0.057944   -2.288367
     83          1           0       15.189574   -1.249230    0.513034
     84          1           0        8.469476    1.948098   -0.364555
     85          1           0       -2.477164    4.199060    0.506992
     86          1           0       -2.417455    4.479500   -1.412095
     87          1           0       -3.758569    4.799102   -0.390842
     88          1           0       -2.750500    0.675711   -0.179742
     89          1           0        6.631527   -1.755556    0.312575
     90          1           0        8.410239   -1.963830   -0.131905
     91          1           0        7.904359   -1.493038    1.416503
     92          1           0        6.442785    1.834016   -0.097584
     93          1           0       -0.808570    3.021959   -0.633563
     94          1           0        4.864613   -0.933958    0.201295
     95          1           0       -0.239577   -0.102842   -0.100079
     96          1           0        3.846699    1.800947   -0.470740
     97          1           0        1.587443    2.264733   -0.323483
     98          1           0        1.068563   -1.254067    0.290868
     99          1           0        2.427868   -1.793470   -0.641524
    100          1           0        2.704323   -1.345589    1.162181
 ---------------------------------------------------------------------

 SCF Done:  E(RCAM-B3LYP) =  -1857.32926692     A.U. after   15 cycles

 Excitation energies and oscillator strengths:

 Excited State   1:      Singlet-A      2.0031 eV  618.96 nm  f=3.1444  <S**2>=0.000
     163 ->166         0.14035
     164 ->165         0.69431
     164 <-165        -0.10051
 This state for optimization and/or second-order correction.
 Total Energy, E(TD-HF/TD-DFT) =  -1857.25565389
 Copying the excited state density for this state as the 1-particle RhoCI density.

 The electronic state is 1-A.
 Alpha  occ. eigenvalues --  -19.22988 -19.21653 -19.20931 -19.20460 -10.33632
 Alpha  occ. eigenvalues --  -10.32514 -10.31823 -10.31782 -10.30522 -10.29540
 Alpha  occ. eigenvalues --  -10.28824 -10.28223 -10.28165 -10.27838 -10.27837
 Alpha  occ. eigenvalues --  -10.27813 -10.27806 -10.27512 -10.27419 -10.27390
 Alpha  occ. eigenvalues --  -10.27155 -10.27085 -10.26965 -10.26924 -10.26848
 Alpha  occ. eigenvalues --  -10.26824 -10.26820 -10.26747 -10.26735 -10.26611
 Alpha  occ. eigenvalues --  -10.26469 -10.26386 -10.26099 -10.25912 -10.25812
 Alpha  occ. eigenvalues --  -10.25806 -10.25728 -10.25706 -10.25665 -10.25585
 Alpha  occ. eigenvalues --  -10.25184 -10.25014 -10.24968 -10.23944  -1.18937
 Alpha  occ. eigenvalues --   -1.09948  -1.09553  -1.08413  -0.94546  -0.92614
 Alpha  occ. eigenvalues --   -0.92223  -0.91196  -0.90900  -0.89648  -0.87155
 Alpha  occ. eigenvalues --   -0.86590  -0.85991  -0.85400  -0.84524  -0.82571
 Alpha  occ. eigenvalues --   -0.81520  -0.80143  -0.79469  -0.78070  -0.77279
 Alpha  occ. eigenvalues --   -0.76552  -0.76523  -0.75901  -0.75625  -0.74895
 Alpha  occ. eigenvalues --   -0.74368  -0.74235  -0.73158  -0.70752  -0.70275
 Alpha  occ. eigenvalues --   -0.69110  -0.67607  -0.65204  -0.65031  -0.63921
 Alpha  occ. eigenvalues --   -0.63440  -0.62162  -0.60426  -0.60160  -0.59790
 Alpha  occ. eigenvalues --   -0.58711  -0.57996  -0.57852  -0.57726  -0.56369
 Alpha  occ. eigenvalues --   -0.56003  -0.55375  -0.54943  -0.54824  -0.54582
 Alpha  occ. eigenvalues --   -0.53559  -0.53344  -0.53044  -0.51940  -0.51159
 Alpha  occ. eigenvalues --   -0.50632  -0.50172  -0.50052  -0.49965  -0.49703
 Alpha  occ. eigenvalues --   -0.49364  -0.49143  -0.48945  -0.48800  -0.48249
 Alpha  occ. eigenvalues --   -0.47963  -0.47806  -0.47309  -0.46649  -0.46178
 Alpha  occ. eigenvalues --   -0.46079  -0.45782  -0.45420  -0.45387  -0.45120
 Alpha  occ. eigenvalues --   -0.44665  -0.44524  -0.44105  -0.43993  -0.43936
 Alpha  occ. eigenvalues --   -0.43371  -0.43031  -0.42956  -0.42901  -0.42816
 Alpha  occ. eigenvalues --   -0.42326  -0.42014  -0.41571  -0.41262  -0.41044
 Alpha  occ. eigenvalues --   -0.40830  -0.40813  -0.40387  -0.40255  -0.40095
 Alpha  occ. eigenvalues --   -0.39916  -0.39791  -0.39393  -0.39163  -0.38844
 Alpha  occ. eigenvalues --   -0.38196  -0.38136  -0.38092  -0.37752  -0.37307
 Alpha  occ. eigenvalues --   -0.36999  -0.36399  -0.35162  -0.33999  -0.33499
 Alpha  occ. eigenvalues --   -0.33372  -0.32255  -0.32029  -0.31398  -0.31035
 Alpha  occ. eigenvalues --   -0.30870  -0.28405  -0.23867  -0.19060
 Alpha virt. eigenvalues --   -0.06486  -0.01431   0.03388   0.06351   0.06818
 Alpha virt. eigenvalues --    0.09077   0.10089   0.10311   0.10594   0.10861
 Alpha virt. eigenvalues --    0.11575   0.12156   0.12795   0.13218   0.13376

 Mulliken charges:
               1
     1  O   -0.474154
     2  O   -0.540034
     3  O   -0.548477
     4  O   -0.561449
     5  C    0.097716
     6  C    0.320652
     7  C    0.028133
     8  C   -0.241846
     9  C   -0.196296
    10  C    0.168739
    11  C   -0.334557
    12  C   -0.079762
    13  C   -0.300951
    14  C   -0.294165
    15  C   -0.096519
    16  C    0.085757
    17  C   -0.335720
    18  C   -0.098766
    19  C   -0.063332
    20  C    0.025084
    21  C    0.201233
    22  C   -0.190450
    23  C    0.136123
    24  C   -0.176680
    25  C   -0.070009
    26  C   -0.308891
    27  C   -0.296968
    28  C   -0.296673
    29  C   -0.125536
    30  C    0.173577
    31  C    0.105195
    32  C   -0.304349
    33  C   -0.399619
    34  C   -0.110794
    35  C    0.165959
    36  C   -0.389575
    37  C   -0.091609
    38  C   -0.102203
    39  C   -0.119491
    40  C   -0.076002
    41  C   -0.130867
    42  C   -0.117533
    43  C    0.142180
    44  C   -0.381072
    45  H    0.081569
    46  H    0.113114
    47  H    0.097651
    48  H    0.097848
    49  H    0.099840
    50  H    0.104847
    51  H    0.071485
    52  H    0.122265
    53  H    0.115955
    54  H    0.102545
    55  H    0.118167
    56  H    0.097014
    57  H    0.101956
    58  H    0.078707
    59  H    0.111963
    60  H    0.299298
    61  H    0.092368
    62  H    0.061591
    63  H    0.092203
    64  H    0.123525
    65  H    0.087395
    66  H    0.095096
    67  H    0.063706
    68  H    0.094054
    69  H    0.094592
    70  H    0.109177
    71  H    0.121642
    72  H    0.096596
    73  H    0.103090
    74  H    0.105672
    75  H    0.132312
    76  H    0.103572
    77  H    0.087990
    78  H    0.098721
    79  H    0.092864
    80  H    0.135350
    81  H    0.089954
    82  H    0.293944
    83  H    0.307340
    84  H    0.101531
    85  H    0.130609
    86  H    0.126886
    87  H    0.106393
    88  H    0.063938
    89  H    0.103600
    90  H    0.150416
    91  H    0.090881
    92  H    0.079489
    93  H    0.085915
    94  H    0.097716
    95  H    0.083881
    96  H    0.084230
    97  H    0.075063
    98  H    0.100909
    99  H    0.125080
   100  H    0.100486
 Sum of Mulliken charges =  -0.00000

 Dipole moment (field-independent basis, Debye):
    X=              2.6849    Y=              0.0389    Z=              2.0972  Tot=              3.4071
 Quadrupole moment (field-independent basis, Debye-Ang):
   XX=           -259.6025   YY=           -260.9448   ZZ=           -278.6087
   XY=            -12.8295   XZ=             26.1713   YZ=             -2.0978

 Normal termination of Gaussian 16 at Thu Aug  1 10:47:07 2019.
