 Gaussian 16, Revision A.03,
 Gaussian 16:  ES64L-G16RevA.03 25-Dec-2016

 -------------------------------------
 # td=(NStates=1) CAM-B3LYP/6-31G(d,p)
 -------------------------------------

 --
 TD
 --
 Symbolic Z-matrix:
 Charge =  0 Multiplicity = 1

                         Standard orientation:
 ---------------------------------------------------------------------
 Center     Atomic      Atomic             Coordinates (Angstroms)
 Number     Number       Type             X           Y           Z
 ---------------------------------------------------------------------
      1          8           0      -11.508822    0.126007   -1.600671
      2          8           0      -13.076166   -2.390454    1.427791
      3          8           0       10.640488   -1.156935   -2.018845
      4          8           0       14.345658   -1.193815    0.069627
      5          6           0      -11.026602   -0.165353   -0.391535
      6          6           0      -11.534893   -1.277928   -1.169601
      7          6           0      -11.758471    0.407160    0.915673
      8          6           0      -12.942369   -1.867704   -0.873850
      9          6           0      -13.201921   -0.047385    0.855724
     10          6           0      -13.508693   -1.500945    0.555828
     11          6           0      -10.707990   -2.130920   -2.131643
     12          6           0       -9.551972    0.088802   -0.264745
     13          6           0      -11.132634   -0.043114    2.217124
     14          6           0      -11.794521    1.947875    0.822361
     15          6           0       -8.660666   -0.777198    0.255060
     16          6           0       -7.072329   -0.511259    0.201575
     17          6           0       -6.249061   -1.794534    0.554519
     18          6           0       -6.648764    0.701356   -0.128162
     19          6           0       -5.230930    1.012688   -0.248564
     20          6           0       11.972121    0.217720    1.344355
     21          6           0       11.586815   -0.632492   -1.239144
     22          6           0       12.557465   -1.149809    1.638875
     23          6           0       13.231305   -1.884936    0.459707
     24          6           0       12.336244   -1.962014   -0.749605
     25          6           0       11.002729    0.116137    0.007187
     26          6           0       10.942431    0.662600    2.505965
     27          6           0       12.871742    1.332595    1.070036
     28          6           0       12.604046    0.240857   -2.016550
     29          6           0       -4.700878    2.282447   -0.405540
     30          6           0        9.857757    0.609293   -0.084330
     31          6           0       -3.347430    2.628993   -0.517263
     32          6           0        8.553429    0.927355   -0.272058
     33          6           0       -2.993753    4.021688   -0.678359
     34          6           0       -2.295681    1.641257   -0.435825
     35          6           0        7.457153    0.046546   -0.132228
     36          6           0        7.700662   -1.368115    0.325788
     37          6           0        6.162905    0.599648   -0.192724
     38          6           0       -0.936817    1.927301   -0.306547
     39          6           0        4.891783   -0.022442   -0.014170
     40          6           0        0.050773    0.966326   -0.069329
     41          6           0        3.834127    0.746005   -0.162536
     42          6           0        1.426873    1.244012   -0.151165
     43          6           0        2.441489    0.342521    0.066586
     44          6           0        2.212409   -1.207235    0.203009
     45          1           0      -12.860968   -2.897965   -0.955825
     46          1           0      -13.560498   -1.487392   -1.627998
     47          1           0      -13.822145    0.128178    2.028056
     48          1           0      -13.806780    0.488759    0.172040
     49          1           0      -14.535297   -1.744811    0.479484
     50          1           0      -10.493690   -3.115542   -1.835531
     51          1           0      -11.136528   -2.193023   -3.166338
     52          1           0       -9.807562   -1.492546   -2.324561
     53          1           0       -9.227448    1.347311   -0.470025
     54          1           0      -10.134876    0.478556    2.170429
     55          1           0      -11.808649    0.112791    3.086194
     56          1           0      -11.051122   -1.210715    2.228068
     57          1           0      -12.390732    2.436282   -0.028146
     58          1           0      -12.233522    2.444534    1.665754
     59          1           0      -10.946796    2.553245    1.031545
     60          1           0      -12.180162   -2.647833    1.346255
     61          1           0       -8.838703   -1.849574    0.559833
     62          1           0       -5.667825   -2.343125   -0.347414
     63          1           0       -5.436346   -1.491683    1.408433
     64          1           0       -6.934166   -2.516113    1.113980
     65          1           0       -7.373062    1.475386   -0.419812
     66          1           0       -4.753114    0.260745    0.144354
     67          1           0       13.392200   -1.014660    2.456813
     68          1           0       11.812630   -1.925790    2.096071
     69          1           0       13.538727   -2.923226    0.640343
     70          1           0       12.854532   -2.336868   -1.495422
     71          1           0       11.538592   -2.873124   -0.546540
     72          1           0       11.660323    0.541470    3.294763
     73          1           0       10.638484    1.628250    2.102650
     74          1           0       10.163021   -0.051387    2.538535
     75          1           0       13.767463    1.265971    0.373463
     76          1           0       12.119340    2.188651    0.814055
     77          1           0       13.227979    1.521779    2.193231
     78          1           0       12.906893   -0.433764   -2.826138
     79          1           0       12.111460    1.102116   -2.594168
     80          1           0       13.439210    0.395826   -1.406770
     81          1           0       -5.740560    2.971657   -0.556426
     82          1           0       10.184789   -0.487599   -2.380203
     83          1           0       14.985603   -1.088740    0.839467
     84          1           0        8.274911    1.976048   -0.634371
     85          1           0       -2.312705    4.478354   -0.022161
     86          1           0       -2.556474    4.192105   -1.781790
     87          1           0       -3.822319    4.716782   -0.699845
     88          1           0       -2.520936    0.608018   -0.708700
     89          1           0        6.902993   -2.118886    0.464576
     90          1           0        8.373924   -1.796242   -0.220843
     91          1           0        8.126049   -1.468611    1.235860
     92          1           0        6.210988    1.654547   -0.542153
     93          1           0       -0.642810    3.010719   -0.249171
     94          1           0        4.803144   -1.044908   -0.004647
     95          1           0       -0.265597   -0.035140    0.224116
     96          1           0        4.023345    1.718569   -0.367934
     97          1           0        1.764116    2.261876   -0.425492
     98          1           0        1.171814   -1.200773    0.267323
     99          1           0        2.580726   -1.788917   -0.643205
    100          1           0        2.691556   -1.664797    1.099341
 ---------------------------------------------------------------------

 SCF Done:  E(RCAM-B3LYP) =  -1857.32050244     A.U. after   15 cycles

 Excitation energies and oscillator strengths:

 Excited State   1:      Singlet-A      2.2012 eV  563.27 nm  f=2.8164  <S**2>=0.000
     163 ->166        -0.13097
     164 ->165         0.69487
 This state for optimization and/or second-order correction.
 Total Energy, E(TD-HF/TD-DFT) =  -1857.23961110
 Copying the excited state density for this state as the 1-particle RhoCI density.

 The electronic state is 1-A.
 Alpha  occ. eigenvalues --  -19.22586 -19.22128 -19.20990 -19.20850 -10.32258
 Alpha  occ. eigenvalues --  -10.32206 -10.31881 -10.30545 -10.29831 -10.29292
 Alpha  occ. eigenvalues --  -10.28483 -10.28311 -10.28052 -10.27950 -10.27941
 Alpha  occ. eigenvalues --  -10.27848 -10.27637 -10.27366 -10.27282 -10.27027
 Alpha  occ. eigenvalues --  -10.26968 -10.26546 -10.26485 -10.26436 -10.26166
 Alpha  occ. eigenvalues --  -10.26135 -10.25833 -10.25769 -10.25669 -10.25613
 Alpha  occ. eigenvalues --  -10.25584 -10.25520 -10.25336 -10.25321 -10.25217
 Alpha  occ. eigenvalues --  -10.25020 -10.24602 -10.24588 -10.24539 -10.24445
 Alpha  occ. eigenvalues --  -10.24393 -10.24279 -10.23926 -10.22407  -1.18179
 Alpha  occ. eigenvalues --   -1.14536  -1.13513  -1.11520  -0.92409  -0.91875
 Alpha  occ. eigenvalues --   -0.91386  -0.90847  -0.90013  -0.89337  -0.87212
 Alpha  occ. eigenvalues --   -0.86302  -0.85820  -0.85021  -0.84238  -0.83006
 Alpha  occ. eigenvalues --   -0.81587  -0.80595  -0.80406  -0.78337  -0.77770
 Alpha  occ. eigenvalues --   -0.76569  -0.76212  -0.76175  -0.76118  -0.75627
 Alpha  occ. eigenvalues --   -0.75517  -0.73380  -0.72768  -0.71240  -0.70531
 Alpha  occ. eigenvalues --   -0.69008  -0.66954  -0.66353  -0.64429  -0.63908
 Alpha  occ. eigenvalues --   -0.63118  -0.62437  -0.61408  -0.60817  -0.60273
 Alpha  occ. eigenvalues --   -0.59267  -0.58719  -0.57796  -0.57679  -0.56437
 Alpha  occ. eigenvalues --   -0.55668  -0.55569  -0.55291  -0.55092  -0.54427
 Alpha  occ. eigenvalues --   -0.54009  -0.53606  -0.52684  -0.51862  -0.51652
 Alpha  occ. eigenvalues --   -0.51527  -0.50863  -0.50462  -0.50239  -0.50069
 Alpha  occ. eigenvalues --   -0.49927  -0.49389  -0.48891  -0.48434  -0.47993
 Alpha  occ. eigenvalues --   -0.47923  -0.47725  -0.47335  -0.47217  -0.46795
 Alpha  occ. eigenvalues --   -0.46693  -0.46248  -0.45957  -0.45861  -0.45635
 Alpha  occ. eigenvalues --   -0.45036  -0.44514  -0.44380  -0.43861  -0.43609
 Alpha  occ. eigenvalues --   -0.43504  -0.43234  -0.42956  -0.42759  -0.42663
 Alpha  occ. eigenvalues --   -0.42503  -0.42106  -0.41776  -0.41639  -0.41005
 Alpha  occ. eigenvalues --   -0.40859  -0.40678  -0.40516  -0.40093  -0.39786
 Alpha  occ. eigenvalues --   -0.39571  -0.39522  -0.39214  -0.38771  -0.38441
 Alpha  occ. eigenvalues --   -0.38260  -0.38082  -0.37745  -0.37617  -0.37036
 Alpha  occ. eigenvalues --   -0.36055  -0.35311  -0.34998  -0.34495  -0.33589
 Alpha  occ. eigenvalues --   -0.32784  -0.32056  -0.31908  -0.31150  -0.30630
 Alpha  occ. eigenvalues --   -0.30272  -0.27651  -0.23659  -0.19373
 Alpha virt. eigenvalues --   -0.05538   0.00004   0.03316   0.06630   0.08643
 Alpha virt. eigenvalues --    0.09238   0.09658   0.10326   0.11098   0.12179
 Alpha virt. eigenvalues --    0.13109   0.13250   0.13359   0.13753   0.13945

 Mulliken charges:
               1
     1  O   -0.486828
     2  O   -0.512341
     3  O   -0.502919
     4  O   -0.539553
     5  C    0.277403
     6  C    0.167272
     7  C    0.021745
     8  C   -0.237458
     9  C   -0.163783
    10  C    0.170683
    11  C   -0.337296
    12  C   -0.117187
    13  C   -0.284323
    14  C   -0.330106
    15  C   -0.081186
    16  C    0.066900
    17  C   -0.364645
    18  C   -0.098814
    19  C   -0.047777
    20  C   -0.006208
    21  C    0.238776
    22  C   -0.187534
    23  C    0.163665
    24  C   -0.174127
    25  C   -0.113498
    26  C   -0.282258
    27  C   -0.270824
    28  C   -0.316278
    29  C   -0.125636
    30  C    0.136889
    31  C    0.100304
    32  C   -0.286197
    33  C   -0.385695
    34  C   -0.125222
    35  C    0.139169
    36  C   -0.380784
    37  C   -0.147756
    38  C   -0.085140
    39  C   -0.051150
    40  C   -0.103411
    41  C   -0.089074
    42  C   -0.103887
    43  C    0.063470
    44  C   -0.361799
    45  H    0.102861
    46  H    0.123623
    47  H    0.039520
    48  H    0.105983
    49  H    0.094982
    50  H    0.109373
    51  H    0.117398
    52  H    0.126407
    53  H    0.088566
    54  H    0.113579
    55  H    0.116781
    56  H    0.061676
    57  H    0.112870
    58  H    0.105746
    59  H    0.099094
    60  H    0.299640
    61  H    0.077815
    62  H    0.121265
    63  H    0.108797
    64  H    0.109714
    65  H    0.072432
    66  H    0.069831
    67  H    0.058283
    68  H    0.090430
    69  H    0.073607
    70  H    0.116037
    71  H    0.080206
    72  H    0.099557
    73  H    0.115770
    74  H    0.120319
    75  H    0.124421
    76  H    0.101800
    77  H    0.066901
    78  H    0.107988
    79  H    0.084426
    80  H    0.136825
    81  H    0.070112
    82  H    0.286462
    83  H    0.308028
    84  H    0.095173
    85  H    0.131728
    86  H    0.106484
    87  H    0.116180
    88  H    0.091486
    89  H    0.098646
    90  H    0.136134
    91  H    0.124325
    92  H    0.071028
    93  H    0.084974
    94  H    0.085194
    95  H    0.093885
    96  H    0.067924
    97  H    0.084390
    98  H    0.104927
    99  H    0.127433
   100  H    0.115385
 Sum of Mulliken charges =  -0.00000

 Dipole moment (field-independent basis, Debye):
    X=              2.3807    Y=             -1.1483    Z=              1.2655  Tot=              2.9305
 Quadrupole moment (field-independent basis, Debye-Ang):
   XX=           -254.0009   YY=           -254.5746   ZZ=           -277.0985
   XY=              2.9220   XZ=             21.2343   YZ=             -3.4903

 Normal termination of Gaussian 16 at Tue Jul 30 23:40:19 2019.
