 Gaussian 16, Revision A.03,
 Gaussian 16:  ES64L-G16RevA.03 25-Dec-2016

 -------------------------------------
 # td=(NStates=1) CAM-B3LYP/6-31G(d,p)
 -------------------------------------

 --
 TD
 --
 Symbolic Z-matrix:
 Charge =  0 Multiplicity = 1

                         Standard orientation:
 ---------------------------------------------------------------------
 Center     Atomic      Atomic             Coordinates (Angstroms)
 Number     Number       Type             X           Y           Z
 ---------------------------------------------------------------------
      1          8           0      -11.599966    0.068696   -1.580875
      2          8           0      -12.892951   -2.516950    1.442050
      3          8           0       10.611728   -0.858667   -2.168220
      4          8           0       14.459422   -1.216882   -0.127132
      5          6           0      -11.029502   -0.190835   -0.305436
      6          6           0      -11.577166   -1.230571   -1.235473
      7          6           0      -11.793194    0.403293    0.868192
      8          6           0      -12.881858   -1.955584   -0.881751
      9          6           0      -13.273896   -0.155980    0.868291
     10          6           0      -13.469886   -1.626826    0.408010
     11          6           0      -10.659295   -2.073313   -2.156963
     12          6           0       -9.580773    0.068366   -0.439430
     13          6           0      -11.009254   -0.070147    2.183306
     14          6           0      -11.799152    1.887161    0.707705
     15          6           0       -8.580033   -0.765453    0.115318
     16          6           0       -7.285997   -0.493507    0.328109
     17          6           0       -6.272349   -1.608075    0.571856
     18          6           0       -6.640347    0.771894    0.035431
     19          6           0       -5.222745    1.031107   -0.017264
     20          6           0       11.944573   -0.103569    1.397803
     21          6           0       11.667442   -0.565949   -1.209273
     22          6           0       12.532556   -1.432576    1.500474
     23          6           0       13.245910   -1.943978    0.226882
     24          6           0       12.375721   -1.980943   -0.970653
     25          6           0       11.087994   -0.069316    0.035476
     26          6           0       10.902412    0.188397    2.584934
     27          6           0       12.923972    1.110954    1.427710
     28          6           0       12.542659    0.449810   -1.917161
     29          6           0       -4.724748    2.233232   -0.236124
     30          6           0        9.888284    0.481850   -0.085087
     31          6           0       -3.364291    2.608713   -0.309873
     32          6           0        8.712703    0.962519   -0.213032
     33          6           0       -3.050501    4.007819   -0.658351
     34          6           0       -2.362473    1.736076   -0.140342
     35          6           0        7.437770    0.242213    0.066829
     36          6           0        7.471292   -1.198024    0.422399
     37          6           0        6.213155    0.809887   -0.122359
     38          6           0       -0.896105    1.969878   -0.156927
     39          6           0        4.858128    0.194986   -0.123238
     40          6           0        0.033020    0.948087   -0.172480
     41          6           0        3.782991    0.962811   -0.162703
     42          6           0        1.390759    1.328126   -0.273834
     43          6           0        2.498928    0.412099   -0.102655
     44          6           0        2.197046   -1.027178    0.086072
     45          1           0      -12.676431   -3.005015   -1.173595
     46          1           0      -13.729409   -1.706176   -1.619788
     47          1           0      -13.852583    0.229692    1.958663
     48          1           0      -13.734518    0.483870    0.064337
     49          1           0      -14.496963   -1.773113    0.423333
     50          1           0      -10.401447   -2.956871   -1.698651
     51          1           0      -11.426857   -2.424075   -2.953769
     52          1           0       -9.890901   -1.506961   -2.310758
     53          1           0       -9.327472    0.993317   -0.903844
     54          1           0      -10.131341    0.465376    2.248743
     55          1           0      -11.477607    0.459724    3.047325
     56          1           0      -11.012547   -1.217569    2.157376
     57          1           0      -12.098501    2.298840   -0.289313
     58          1           0      -12.483237    2.322581    1.386355
     59          1           0      -10.589490    2.289525    0.741226
     60          1           0      -12.009676   -2.908054    1.345844
     61          1           0       -9.041542   -1.838867    0.318563
     62          1           0       -5.814238   -2.167123   -0.227751
     63          1           0       -5.651280   -1.310222    1.502225
     64          1           0       -6.849332   -2.597305    0.799701
     65          1           0       -7.229987    1.600194   -0.269803
     66          1           0       -4.674949    0.183176   -0.021021
     67          1           0       13.252102   -1.671402    2.552770
     68          1           0       11.786474   -2.218372    1.643438
     69          1           0       13.538883   -3.106792    0.334182
     70          1           0       12.951812   -2.159631   -2.035729
     71          1           0       11.565561   -2.712130   -0.792814
     72          1           0       11.405317    0.460488    3.612662
     73          1           0       10.415220    1.233263    2.412683
     74          1           0       10.078550   -0.724271    2.851723
     75          1           0       13.541370    0.831084    0.380794
     76          1           0       12.555069    2.332560    1.352304
     77          1           0       13.599185    1.048097    2.243583
     78          1           0       12.517749    0.121497   -2.994231
     79          1           0       12.004450    1.547498   -1.842784
     80          1           0       13.679067    0.350087   -1.597902
     81          1           0       -5.417775    3.054922   -0.466253
     82          1           0       10.080796   -0.000393   -2.204198
     83          1           0       15.064609   -1.256728    0.525644
     84          1           0        8.560598    2.013042   -0.593327
     85          1           0       -2.671894    4.529887    0.240772
     86          1           0       -2.442713    3.911412   -1.639384
     87          1           0       -3.803025    4.648262   -0.876234
     88          1           0       -2.620495    0.860266    0.144147
     89          1           0        6.465814   -1.787236    0.039368
     90          1           0        8.155480   -1.646581   -0.376330
     91          1           0        7.895742   -1.482645    1.332696
     92          1           0        6.222834    1.737816   -0.692670
     93          1           0       -0.431313    2.956157   -0.260305
     94          1           0        4.792262   -0.829096   -0.014178
     95          1           0       -0.476978   -0.043528    0.384993
     96          1           0        3.930423    2.146751   -0.405739
     97          1           0        1.590194    2.471735   -0.357241
     98          1           0        1.055796   -1.335600   -0.012039
     99          1           0        2.983946   -1.615841   -0.606974
    100          1           0        2.746844   -1.293826    0.998275
 ---------------------------------------------------------------------

 SCF Done:  E(RCAM-B3LYP) =  -1857.23715602     A.U. after   15 cycles

 Excitation energies and oscillator strengths:

 Excited State   1:      Singlet-A      2.3423 eV  529.32 nm  f=2.8313  <S**2>=0.000
     163 ->166        -0.15655
     164 ->165         0.68705
 This state for optimization and/or second-order correction.
 Total Energy, E(TD-HF/TD-DFT) =  -1857.15107651
 Copying the excited state density for this state as the 1-particle RhoCI density.

 The electronic state is 1-A.
 Alpha  occ. eigenvalues --  -19.21796 -19.21700 -19.20272 -19.19703 -10.32984
 Alpha  occ. eigenvalues --  -10.31680 -10.31202 -10.31001 -10.30701 -10.30137
 Alpha  occ. eigenvalues --  -10.28718 -10.27898 -10.27820 -10.27768 -10.27609
 Alpha  occ. eigenvalues --  -10.27539 -10.27512 -10.27494 -10.27434 -10.27426
 Alpha  occ. eigenvalues --  -10.27406 -10.27403 -10.27324 -10.27153 -10.26967
 Alpha  occ. eigenvalues --  -10.26867 -10.26780 -10.26742 -10.26661 -10.26545
 Alpha  occ. eigenvalues --  -10.26297 -10.26283 -10.26066 -10.26049 -10.25864
 Alpha  occ. eigenvalues --  -10.25811 -10.25753 -10.25629 -10.25624 -10.25197
 Alpha  occ. eigenvalues --  -10.24896 -10.24617 -10.24124 -10.23829  -1.18205
 Alpha  occ. eigenvalues --   -1.11174  -1.08008  -1.06597  -0.93363  -0.92950
 Alpha  occ. eigenvalues --   -0.92198  -0.91013  -0.90432  -0.89874  -0.87835
 Alpha  occ. eigenvalues --   -0.87288  -0.86031  -0.85572  -0.85052  -0.82954
 Alpha  occ. eigenvalues --   -0.82539  -0.80902  -0.80663  -0.78516  -0.76579
 Alpha  occ. eigenvalues --   -0.75983  -0.75917  -0.75607  -0.75413  -0.75319
 Alpha  occ. eigenvalues --   -0.74702  -0.73583  -0.73225  -0.70897  -0.69593
 Alpha  occ. eigenvalues --   -0.68435  -0.66957  -0.65349  -0.64404  -0.64119
 Alpha  occ. eigenvalues --   -0.63206  -0.61809  -0.61372  -0.60532  -0.60027
 Alpha  occ. eigenvalues --   -0.58931  -0.58497  -0.57863  -0.56364  -0.56199
 Alpha  occ. eigenvalues --   -0.55987  -0.55349  -0.55177  -0.54866  -0.54650
 Alpha  occ. eigenvalues --   -0.53998  -0.53249  -0.52619  -0.51798  -0.51531
 Alpha  occ. eigenvalues --   -0.51274  -0.50610  -0.50336  -0.50044  -0.49811
 Alpha  occ. eigenvalues --   -0.49670  -0.49306  -0.48852  -0.48630  -0.48087
 Alpha  occ. eigenvalues --   -0.47550  -0.47422  -0.47291  -0.47028  -0.46905
 Alpha  occ. eigenvalues --   -0.46450  -0.46210  -0.46086  -0.45412  -0.45171
 Alpha  occ. eigenvalues --   -0.45089  -0.44068  -0.43664  -0.43612  -0.43357
 Alpha  occ. eigenvalues --   -0.43079  -0.42708  -0.42698  -0.42531  -0.42305
 Alpha  occ. eigenvalues --   -0.41915  -0.41793  -0.41340  -0.40862  -0.40637
 Alpha  occ. eigenvalues --   -0.40613  -0.40460  -0.40308  -0.39902  -0.39761
 Alpha  occ. eigenvalues --   -0.39730  -0.39485  -0.39449  -0.38241  -0.37994
 Alpha  occ. eigenvalues --   -0.37882  -0.37567  -0.37342  -0.36980  -0.36392
 Alpha  occ. eigenvalues --   -0.36162  -0.35605  -0.35256  -0.34639  -0.33482
 Alpha  occ. eigenvalues --   -0.32335  -0.32099  -0.31878  -0.31011  -0.30801
 Alpha  occ. eigenvalues --   -0.29679  -0.27727  -0.23943  -0.20298
 Alpha virt. eigenvalues --   -0.05525  -0.01294   0.03114   0.05450   0.06743
 Alpha virt. eigenvalues --    0.09062   0.09796   0.09808   0.11513   0.11930
 Alpha virt. eigenvalues --    0.12205   0.12708   0.13021   0.13054   0.13275

 Mulliken charges:
               1
     1  O   -0.484306
     2  O   -0.587791
     3  O   -0.572913
     4  O   -0.534662
     5  C    0.177618
     6  C    0.248129
     7  C    0.029616
     8  C   -0.224695
     9  C   -0.188755
    10  C    0.186995
    11  C   -0.309249
    12  C   -0.113795
    13  C   -0.278659
    14  C   -0.311246
    15  C   -0.097690
    16  C    0.096395
    17  C   -0.381949
    18  C   -0.117416
    19  C   -0.042841
    20  C    0.052820
    21  C    0.234020
    22  C   -0.182176
    23  C    0.142515
    24  C   -0.177149
    25  C   -0.055944
    26  C   -0.295354
    27  C   -0.293122
    28  C   -0.312824
    29  C   -0.119982
    30  C    0.198804
    31  C    0.102162
    32  C   -0.342336
    33  C   -0.373682
    34  C   -0.104660
    35  C    0.138132
    36  C   -0.381953
    37  C   -0.138190
    38  C   -0.100150
    39  C   -0.091458
    40  C   -0.071777
    41  C   -0.076814
    42  C   -0.150605
    43  C    0.119368
    44  C   -0.379562
    45  H    0.107875
    46  H    0.101326
    47  H    0.077595
    48  H    0.101045
    49  H    0.110848
    50  H    0.104820
    51  H    0.099243
    52  H    0.122495
    53  H    0.101937
    54  H    0.116395
    55  H    0.086698
    56  H    0.088439
    57  H    0.123627
    58  H    0.109511
    59  H    0.066174
    60  H    0.304987
    61  H    0.066139
    62  H    0.134043
    63  H    0.121172
    64  H    0.079302
    65  H    0.074673
    66  H    0.094942
    67  H    0.064675
    68  H    0.120681
    69  H    0.071366
    70  H    0.109151
    71  H    0.120446
    72  H    0.084490
    73  H    0.110556
    74  H    0.075155
    75  H    0.106511
    76  H    0.085165
    77  H    0.107851
    78  H    0.118817
    79  H    0.076081
    80  H    0.134316
    81  H    0.082090
    82  H    0.299757
    83  H    0.297273
    84  H    0.106950
    85  H    0.123054
    86  H    0.121038
    87  H    0.112411
    88  H    0.055886
    89  H    0.090684
    90  H    0.125858
    91  H    0.127170
    92  H    0.073333
    93  H    0.085690
    94  H    0.072981
    95  H    0.087368
    96  H    0.082671
    97  H    0.088751
    98  H    0.121065
    99  H    0.101925
   100  H    0.132627
 Sum of Mulliken charges =  -0.00000

 Dipole moment (field-independent basis, Debye):
    X=              2.9341    Y=             -0.3793    Z=              1.5319  Tot=              3.3316
 Quadrupole moment (field-independent basis, Debye-Ang):
   XX=           -265.6900   YY=           -254.3123   ZZ=           -282.9813
   XY=             -3.4211   XZ=             37.6193   YZ=             -1.9821

 Normal termination of Gaussian 16 at Mon Jul 29 01:03:48 2019.
