 Gaussian 16, Revision A.03,
 Gaussian 16:  ES64L-G16RevA.03 25-Dec-2016

 -------------------------------------
 # td=(NStates=1) CAM-B3LYP/6-31G(d,p)
 -------------------------------------

 --
 TD
 --
 Symbolic Z-matrix:
 Charge =  0 Multiplicity = 1

                         Standard orientation:
 ---------------------------------------------------------------------
 Center     Atomic      Atomic             Coordinates (Angstroms)
 Number     Number       Type             X           Y           Z
 ---------------------------------------------------------------------
      1          8           0      -11.633972   -0.066552   -1.693250
      2          8           0      -12.781487   -2.100400    1.731709
      3          8           0       10.494798   -1.371808   -1.967067
      4          8           0       14.516693   -0.929913   -0.033526
      5          6           0      -11.022899   -0.214426   -0.407843
      6          6           0      -11.696125   -1.425866   -1.083431
      7          6           0      -11.813744    0.502682    0.692987
      8          6           0      -13.054334   -1.875841   -0.672345
      9          6           0      -13.234859    0.118796    0.729292
     10          6           0      -13.427159   -1.428436    0.593850
     11          6           0      -10.733075   -2.337424   -1.811878
     12          6           0       -9.575671    0.022017   -0.391769
     13          6           0      -11.078008    0.349185    2.063507
     14          6           0      -11.624089    2.027705    0.335936
     15          6           0       -8.652138   -0.772912    0.281723
     16          6           0       -7.234007   -0.575540    0.339727
     17          6           0       -6.335681   -1.756081    0.507243
     18          6           0       -6.589903    0.562910   -0.186342
     19          6           0       -5.287079    0.904116   -0.204137
     20          6           0       11.926142    0.219206    1.220406
     21          6           0       11.539782   -0.799620   -1.265710
     22          6           0       12.646154   -1.020616    1.637120
     23          6           0       13.434172   -1.650115    0.444343
     24          6           0       12.382487   -1.980840   -0.726541
     25          6           0       11.171959   -0.014884   -0.102462
     26          6           0       10.956535    0.622506    2.446509
     27          6           0       12.793520    1.462571    1.004091
     28          6           0       12.356370    0.027242   -2.255330
     29          6           0       -4.751291    2.204997   -0.380244
     30          6           0        9.901437    0.467748   -0.091808
     31          6           0       -3.383391    2.493830   -0.368872
     32          6           0        8.617266    0.827951   -0.356659
     33          6           0       -2.972572    3.926246   -0.840324
     34          6           0       -2.362203    1.627083   -0.161049
     35          6           0        7.406041    0.079875   -0.036658
     36          6           0        7.712023   -1.172326    0.566875
     37          6           0        6.175210    0.641461   -0.262016
     38          6           0       -0.974355    1.838467   -0.270384
     39          6           0        4.863022    0.085524    0.092653
     40          6           0       -0.012954    0.897014   -0.131797
     41          6           0        3.694909    0.790194   -0.141115
     42          6           0        1.385293    1.198555   -0.141197
     43          6           0        2.414481    0.349363    0.099188
     44          6           0        2.325500   -1.095911    0.503562
     45          1           0      -12.783389   -3.093815   -0.672304
     46          1           0      -13.616743   -1.627869   -1.526450
     47          1           0      -13.609105    0.607098    1.777928
     48          1           0      -13.786135    0.424009   -0.215803
     49          1           0      -14.502629   -1.545093    0.853358
     50          1           0      -10.240702   -3.258432   -1.325811
     51          1           0      -11.233335   -2.805764   -2.835811
     52          1           0       -9.510712   -2.030855   -2.087201
     53          1           0       -9.271288    0.708034   -1.127553
     54          1           0      -10.133003    0.606373    1.965736
     55          1           0      -11.631620    1.106241    2.916091
     56          1           0      -11.229206   -0.783246    2.443537
     57          1           0      -11.625084    2.324322   -1.001054
     58          1           0      -12.487480    2.707640    0.727655
     59          1           0      -10.651734    2.419193    0.622852
     60          1           0      -11.863809   -2.400913    1.524343
     61          1           0       -9.036488   -1.426407    0.934732
     62          1           0       -5.926438   -2.434364   -0.276625
     63          1           0       -5.211598   -1.796836    1.221584
     64          1           0       -6.848896   -2.619981    1.037573
     65          1           0       -7.400826    1.361920   -0.310705
     66          1           0       -4.509697    0.086753   -0.145911
     67          1           0       13.375717   -0.961388    2.570537
     68          1           0       11.740524   -1.663926    2.062889
     69          1           0       13.557881   -2.526900    0.858218
     70          1           0       12.841291   -2.531303   -1.624852
     71          1           0       11.794629   -2.801714   -0.356280
     72          1           0       11.310211    0.970274    3.476635
     73          1           0       10.477608    1.557638    2.119012
     74          1           0       10.241139   -0.213386    2.559120
     75          1           0       13.383531    1.113058   -0.029525
     76          1           0       12.279724    2.413129    0.924120
     77          1           0       13.592521    1.485098    1.758509
     78          1           0       12.665775   -0.628876   -2.864958
     79          1           0       11.734371    0.894740   -2.483602
     80          1           0       13.289941    0.481715   -1.805772
     81          1           0       -5.342206    2.858937   -0.780157
     82          1           0        9.988622   -0.608421   -2.447211
     83          1           0       15.034457   -0.685271    0.802157
     84          1           0        8.622568    1.888338   -0.791058
     85          1           0       -2.421466    4.376452   -0.264784
     86          1           0       -2.694795    3.844497   -1.839159
     87          1           0       -3.970645    4.544092   -0.772226
     88          1           0       -2.517119    0.574129    0.049205
     89          1           0        6.805248   -1.867237    0.782003
     90          1           0        8.433295   -1.905593   -0.066927
     91          1           0        8.070357   -0.881072    1.457757
     92          1           0        6.155264    1.831805   -0.580833
     93          1           0       -0.550991    2.788081   -0.500439
     94          1           0        5.025459   -0.928213    0.442254
     95          1           0       -0.240978   -0.231285    0.020176
     96          1           0        3.688502    1.749175   -0.673200
     97          1           0        1.538612    2.205809   -0.579338
     98          1           0        1.466251   -1.879698    0.680876
     99          1           0        3.117624   -1.600939   -0.146914
    100          1           0        2.528140   -1.198820    1.626074
 ---------------------------------------------------------------------

 SCF Done:  E(RCAM-B3LYP) =  -1857.18184390     A.U. after   15 cycles

 Excitation energies and oscillator strengths:

 Excited State   1:      Singlet-A      2.1588 eV  574.31 nm  f=2.8628  <S**2>=0.000
     163 ->166         0.14062
     164 ->165         0.69271
 This state for optimization and/or second-order correction.
 Total Energy, E(TD-HF/TD-DFT) =  -1857.10250846
 Copying the excited state density for this state as the 1-particle RhoCI density.

 The electronic state is 1-A.
 Alpha  occ. eigenvalues --  -19.23859 -19.22052 -19.21985 -19.21635 -10.33029
 Alpha  occ. eigenvalues --  -10.31751 -10.31409 -10.31179 -10.30582 -10.28923
 Alpha  occ. eigenvalues --  -10.28257 -10.28159 -10.27831 -10.27603 -10.27514
 Alpha  occ. eigenvalues --  -10.27481 -10.27480 -10.27296 -10.27285 -10.27201
 Alpha  occ. eigenvalues --  -10.27187 -10.27107 -10.27013 -10.26911 -10.26889
 Alpha  occ. eigenvalues --  -10.26883 -10.26806 -10.26746 -10.26669 -10.26515
 Alpha  occ. eigenvalues --  -10.26441 -10.26303 -10.26293 -10.26168 -10.25941
 Alpha  occ. eigenvalues --  -10.25810 -10.25795 -10.25726 -10.25422 -10.25402
 Alpha  occ. eigenvalues --  -10.25278 -10.25241 -10.24098 -10.23077  -1.13657
 Alpha  occ. eigenvalues --   -1.11683  -1.10694  -1.08311  -0.93200  -0.92871
 Alpha  occ. eigenvalues --   -0.92335  -0.91496  -0.91124  -0.90745  -0.88912
 Alpha  occ. eigenvalues --   -0.87710  -0.85952  -0.85423  -0.84634  -0.83020
 Alpha  occ. eigenvalues --   -0.82092  -0.80650  -0.80263  -0.78793  -0.77078
 Alpha  occ. eigenvalues --   -0.76908  -0.76103  -0.75955  -0.75525  -0.75095
 Alpha  occ. eigenvalues --   -0.74413  -0.73834  -0.73316  -0.70969  -0.70485
 Alpha  occ. eigenvalues --   -0.69096  -0.67733  -0.66027  -0.65478  -0.63812
 Alpha  occ. eigenvalues --   -0.63672  -0.62043  -0.61679  -0.59785  -0.59718
 Alpha  occ. eigenvalues --   -0.59350  -0.59282  -0.58760  -0.57677  -0.57471
 Alpha  occ. eigenvalues --   -0.55934  -0.55844  -0.55210  -0.54222  -0.54085
 Alpha  occ. eigenvalues --   -0.53812  -0.53091  -0.52887  -0.52626  -0.52317
 Alpha  occ. eigenvalues --   -0.52229  -0.51691  -0.51221  -0.51131  -0.50687
 Alpha  occ. eigenvalues --   -0.49964  -0.49640  -0.49173  -0.49148  -0.48374
 Alpha  occ. eigenvalues --   -0.48181  -0.47783  -0.47491  -0.47224  -0.46430
 Alpha  occ. eigenvalues --   -0.46309  -0.45803  -0.45435  -0.45136  -0.44868
 Alpha  occ. eigenvalues --   -0.44714  -0.44322  -0.44111  -0.43890  -0.43383
 Alpha  occ. eigenvalues --   -0.43316  -0.42936  -0.42743  -0.42010  -0.41857
 Alpha  occ. eigenvalues --   -0.41419  -0.41297  -0.41068  -0.40968  -0.40712
 Alpha  occ. eigenvalues --   -0.40282  -0.40068  -0.39766  -0.39677  -0.39572
 Alpha  occ. eigenvalues --   -0.39363  -0.39057  -0.38984  -0.38465  -0.38239
 Alpha  occ. eigenvalues --   -0.38056  -0.37991  -0.37636  -0.37487  -0.36648
 Alpha  occ. eigenvalues --   -0.36551  -0.36133  -0.35178  -0.34454  -0.33552
 Alpha  occ. eigenvalues --   -0.33306  -0.32544  -0.31762  -0.31447  -0.30290
 Alpha  occ. eigenvalues --   -0.28675  -0.28278  -0.24077  -0.20034
 Alpha virt. eigenvalues --   -0.06356  -0.01413   0.03414   0.06317   0.06474
 Alpha virt. eigenvalues --    0.09355   0.09630   0.09803   0.11270   0.11785
 Alpha virt. eigenvalues --    0.12014   0.12060   0.12480   0.12826   0.13496

 Mulliken charges:
               1
     1  O   -0.508496
     2  O   -0.562343
     3  O   -0.560766
     4  O   -0.528406
     5  C    0.210349
     6  C    0.224815
     7  C    0.059801
     8  C   -0.206470
     9  C   -0.197428
    10  C    0.169531
    11  C   -0.332106
    12  C   -0.111938
    13  C   -0.286950
    14  C   -0.298281
    15  C   -0.075373
    16  C    0.081710
    17  C   -0.371892
    18  C   -0.101683
    19  C   -0.066414
    20  C    0.012389
    21  C    0.250356
    22  C   -0.214982
    23  C    0.180376
    24  C   -0.216414
    25  C   -0.008693
    26  C   -0.311547
    27  C   -0.289460
    28  C   -0.284405
    29  C   -0.087131
    30  C    0.072506
    31  C    0.049912
    32  C   -0.262774
    33  C   -0.348364
    34  C   -0.100937
    35  C    0.142326
    36  C   -0.385387
    37  C   -0.126225
    38  C   -0.080292
    39  C   -0.099029
    40  C   -0.075433
    41  C   -0.125821
    42  C   -0.164204
    43  C    0.168066
    44  C   -0.384452
    45  H    0.099271
    46  H    0.147940
    47  H    0.092173
    48  H    0.106082
    49  H    0.109040
    50  H    0.100607
    51  H    0.090927
    52  H    0.107391
    53  H    0.115737
    54  H    0.124298
    55  H    0.066470
    56  H    0.087428
    57  H    0.058308
    58  H    0.095560
    59  H    0.112443
    60  H    0.301549
    61  H    0.077684
    62  H    0.131737
    63  H    0.066314
    64  H    0.090568
    65  H    0.072988
    66  H    0.092432
    67  H    0.071385
    68  H    0.094202
    69  H    0.092583
    70  H    0.093514
    71  H    0.111599
    72  H    0.096640
    73  H    0.106252
    74  H    0.099659
    75  H    0.090999
    76  H    0.109046
    77  H    0.083470
    78  H    0.116342
    79  H    0.090464
    80  H    0.116033
    81  H    0.079016
    82  H    0.312022
    83  H    0.314345
    84  H    0.104723
    85  H    0.130046
    86  H    0.137756
    87  H    0.081575
    88  H    0.076357
    89  H    0.087512
    90  H    0.131051
    91  H    0.147572
    92  H    0.063454
    93  H    0.076856
    94  H    0.094540
    95  H    0.079606
    96  H    0.091828
    97  H    0.080162
    98  H    0.106149
    99  H    0.119977
   100  H    0.118277
 Sum of Mulliken charges =  -0.00000

 Dipole moment (field-independent basis, Debye):
    X=              3.7806    Y=             -0.7921    Z=              1.0802  Tot=              4.0109
 Quadrupole moment (field-independent basis, Debye-Ang):
   XX=           -268.1175   YY=           -259.1953   ZZ=           -278.5857
   XY=             10.5039   XZ=             32.4246   YZ=             -4.1793

 Normal termination of Gaussian 16 at Thu Aug  1 10:15:56 2019.
