 Gaussian 16, Revision A.03,
 Gaussian 16:  ES64L-G16RevA.03 25-Dec-2016

 -------------------------------------
 # td=(NStates=1) CAM-B3LYP/6-31G(d,p)
 -------------------------------------

 --
 TD
 --
 Symbolic Z-matrix:
 Charge =  0 Multiplicity = 1

                         Standard orientation:
 ---------------------------------------------------------------------
 Center     Atomic      Atomic             Coordinates (Angstroms)
 Number     Number       Type             X           Y           Z
 ---------------------------------------------------------------------
      1          8           0      -11.775537    0.193976   -1.523259
      2          8           0      -12.823684   -2.405152    1.561788
      3          8           0       10.690591   -1.384060   -2.113999
      4          8           0       14.555298   -0.788140   -0.084817
      5          6           0      -11.083729   -0.162355   -0.375601
      6          6           0      -11.695277   -1.280730   -1.151718
      7          6           0      -11.852467    0.451820    0.938243
      8          6           0      -13.146886   -1.724226   -0.871975
      9          6           0      -13.241009    0.013013    0.982232
     10          6           0      -13.623192   -1.452833    0.565102
     11          6           0      -10.908041   -2.007947   -2.104707
     12          6           0       -9.622466    0.170727   -0.384879
     13          6           0      -11.114283    0.016660    2.179667
     14          6           0      -11.739320    1.907732    0.907904
     15          6           0       -8.738716   -0.696395    0.144357
     16          6           0       -7.292077   -0.490229    0.075777
     17          6           0       -6.442612   -1.726513    0.249642
     18          6           0       -6.718300    0.635588   -0.115261
     19          6           0       -5.198009    0.889513   -0.277622
     20          6           0       12.001545    0.191253    1.246105
     21          6           0       11.676390   -0.686175   -1.185303
     22          6           0       12.797868   -1.173926    1.551593
     23          6           0       13.554462   -1.690901    0.347622
     24          6           0       12.491064   -1.911167   -0.802347
     25          6           0       11.111193   -0.086099    0.028271
     26          6           0       11.147801    0.391585    2.473027
     27          6           0       12.864267    1.381943    1.072815
     28          6           0       12.443676    0.270326   -2.103262
     29          6           0       -4.723083    2.007456   -0.550478
     30          6           0        9.912028    0.466937   -0.082816
     31          6           0       -3.377991    2.491717   -0.545394
     32          6           0        8.609753    0.858661   -0.120928
     33          6           0       -2.863544    3.883651   -0.781695
     34          6           0       -2.333482    1.598373   -0.222133
     35          6           0        7.468118    0.068815    0.155964
     36          6           0        7.607340   -1.291851    0.553459
     37          6           0        6.207666    0.712091   -0.097921
     38          6           0       -1.021600    1.825216   -0.352993
     39          6           0        4.819209    0.088149   -0.012602
     40          6           0        0.045623    0.862106   -0.138770
     41          6           0        3.697700    0.779948   -0.073283
     42          6           0        1.410849    1.194035   -0.175535
     43          6           0        2.436854    0.255072    0.095195
     44          6           0        2.379941   -1.104142    0.526143
     45          1           0      -13.341266   -2.973412   -1.042087
     46          1           0      -13.714424   -1.291662   -1.701601
     47          1           0      -13.909154    0.343296    1.867086
     48          1           0      -13.650957    0.581744   -0.010633
     49          1           0      -14.742254   -1.933968    0.725920
     50          1           0      -10.769635   -3.063435   -1.569660
     51          1           0      -11.488757   -2.099127   -3.025226
     52          1           0      -10.004201   -1.476527   -2.511183
     53          1           0       -9.443305    1.104750   -0.792751
     54          1           0       -9.932829    0.313857    2.180714
     55          1           0      -11.449307    0.486224    3.137267
     56          1           0      -11.152392   -0.969343    2.500936
     57          1           0      -12.259102    2.244031    0.058743
     58          1           0      -12.303414    2.399743    1.746698
     59          1           0      -10.695402    2.214268    0.835522
     60          1           0      -11.894042   -1.968595    1.295145
     61          1           0       -9.014119   -1.765913    0.481199
     62          1           0       -6.485410   -2.532817   -0.835495
     63          1           0       -5.188401   -1.697794    0.716775
     64          1           0       -7.005904   -2.509210    1.125894
     65          1           0       -7.346510    1.511520   -0.157093
     66          1           0       -4.521721   -0.040726   -0.103366
     67          1           0       13.496143   -0.975319    2.193398
     68          1           0       12.108268   -1.906779    1.996598
     69          1           0       13.998038   -2.602995    0.745859
     70          1           0       13.037623   -2.216056   -1.762330
     71          1           0       11.625543   -2.395649   -0.391078
     72          1           0       11.889556    0.350982    3.330990
     73          1           0       10.778330    1.366651    2.170966
     74          1           0       10.318474   -0.360068    2.551959
     75          1           0       13.302843    1.310130    0.134645
     76          1           0       12.408859    2.309478    0.658104
     77          1           0       13.495046    1.766145    1.838681
     78          1           0       12.729247   -0.664308   -2.908686
     79          1           0       11.832752    0.950151   -2.623602
     80          1           0       13.358843    0.760946   -1.527970
     81          1           0       -5.587267    2.827823   -0.874668
     82          1           0        9.986555   -0.782911   -2.425961
     83          1           0       15.072876   -0.712077    0.767035
     84          1           0        8.416589    1.976293   -0.686040
     85          1           0       -2.409300    4.232668    0.140492
     86          1           0       -2.175549    4.088695   -1.574233
     87          1           0       -3.564516    4.663318   -1.033718
     88          1           0       -2.651373    0.556534   -0.001108
     89          1           0        6.661817   -1.950406    0.550328
     90          1           0        8.247881   -1.813184   -0.253130
     91          1           0        8.423742   -1.287946    1.488485
     92          1           0        6.112402    1.664664   -0.257647
     93          1           0       -0.584948    2.839329   -0.727263
     94          1           0        4.700768   -0.972728    0.005960
     95          1           0       -0.163028   -0.131178    0.368485
     96          1           0        3.801749    1.883999   -0.432534
     97          1           0        1.636994    2.269105   -0.418696
     98          1           0        1.290762   -1.561969    0.434391
     99          1           0        2.934468   -1.811494   -0.036438
    100          1           0        2.925393   -1.043124    1.522860
 ---------------------------------------------------------------------

 SCF Done:  E(RCAM-B3LYP) =  -1857.19681703     A.U. after   15 cycles

 Excitation energies and oscillator strengths:

 Excited State   1:      Singlet-A      2.2965 eV  539.89 nm  f=3.0230  <S**2>=0.000
     163 ->166         0.11713
     164 ->165         0.69887
 This state for optimization and/or second-order correction.
 Total Energy, E(TD-HF/TD-DFT) =  -1857.11242399
 Copying the excited state density for this state as the 1-particle RhoCI density.

 The electronic state is 1-A.
 Alpha  occ. eigenvalues --  -19.22806 -19.22054 -19.20756 -19.20650 -10.33301
 Alpha  occ. eigenvalues --  -10.32991 -10.32787 -10.31774 -10.31717 -10.30864
 Alpha  occ. eigenvalues --  -10.28977 -10.28585 -10.28264 -10.28186 -10.28008
 Alpha  occ. eigenvalues --  -10.27846 -10.27665 -10.27521 -10.27484 -10.27404
 Alpha  occ. eigenvalues --  -10.27369 -10.27286 -10.27137 -10.27120 -10.27107
 Alpha  occ. eigenvalues --  -10.27052 -10.26900 -10.26824 -10.26761 -10.26682
 Alpha  occ. eigenvalues --  -10.26423 -10.26218 -10.26131 -10.25910 -10.25779
 Alpha  occ. eigenvalues --  -10.25699 -10.25520 -10.25224 -10.25016 -10.24695
 Alpha  occ. eigenvalues --  -10.24614 -10.24404 -10.24074 -10.23726  -1.15025
 Alpha  occ. eigenvalues --   -1.10821  -1.06792  -1.03516  -0.94119  -0.93497
 Alpha  occ. eigenvalues --   -0.92975  -0.92139  -0.91326  -0.90959  -0.87690
 Alpha  occ. eigenvalues --   -0.87197  -0.86963  -0.85722  -0.85001  -0.83901
 Alpha  occ. eigenvalues --   -0.82526  -0.81737  -0.80892  -0.79410  -0.77470
 Alpha  occ. eigenvalues --   -0.76715  -0.76524  -0.76171  -0.75931  -0.75910
 Alpha  occ. eigenvalues --   -0.75466  -0.73245  -0.72969  -0.70394  -0.69533
 Alpha  occ. eigenvalues --   -0.69041  -0.66043  -0.65403  -0.64816  -0.63897
 Alpha  occ. eigenvalues --   -0.63004  -0.61141  -0.60609  -0.60015  -0.58905
 Alpha  occ. eigenvalues --   -0.58500  -0.58301  -0.57872  -0.57748  -0.56636
 Alpha  occ. eigenvalues --   -0.56340  -0.55314  -0.54878  -0.54735  -0.54175
 Alpha  occ. eigenvalues --   -0.53424  -0.53326  -0.52998  -0.52645  -0.52338
 Alpha  occ. eigenvalues --   -0.52136  -0.51611  -0.50907  -0.50291  -0.50093
 Alpha  occ. eigenvalues --   -0.49754  -0.49670  -0.49471  -0.48971  -0.48727
 Alpha  occ. eigenvalues --   -0.48400  -0.47636  -0.47439  -0.46936  -0.46584
 Alpha  occ. eigenvalues --   -0.46245  -0.45633  -0.45599  -0.45197  -0.44785
 Alpha  occ. eigenvalues --   -0.44572  -0.44494  -0.44078  -0.43859  -0.43655
 Alpha  occ. eigenvalues --   -0.43502  -0.43111  -0.42894  -0.42638  -0.42521
 Alpha  occ. eigenvalues --   -0.42145  -0.41943  -0.41489  -0.41059  -0.40918
 Alpha  occ. eigenvalues --   -0.40616  -0.40265  -0.40203  -0.40132  -0.39955
 Alpha  occ. eigenvalues --   -0.39638  -0.39570  -0.38732  -0.38682  -0.38296
 Alpha  occ. eigenvalues --   -0.38251  -0.37630  -0.37513  -0.37140  -0.36991
 Alpha  occ. eigenvalues --   -0.36474  -0.36426  -0.35579  -0.34832  -0.34243
 Alpha  occ. eigenvalues --   -0.33178  -0.32267  -0.31765  -0.31473  -0.30907
 Alpha  occ. eigenvalues --   -0.29980  -0.28169  -0.25188  -0.19785
 Alpha virt. eigenvalues --   -0.05827   0.00070   0.02178   0.05092   0.06735
 Alpha virt. eigenvalues --    0.09392   0.09519   0.09884   0.10396   0.10993
 Alpha virt. eigenvalues --    0.11537   0.11825   0.11972   0.12410   0.12765

 Mulliken charges:
               1
     1  O   -0.523777
     2  O   -0.565396
     3  O   -0.580291
     4  O   -0.530066
     5  C    0.225972
     6  C    0.198896
     7  C    0.018974
     8  C   -0.178360
     9  C   -0.181014
    10  C    0.102684
    11  C   -0.327436
    12  C   -0.103692
    13  C   -0.322786
    14  C   -0.298319
    15  C   -0.081660
    16  C    0.147288
    17  C   -0.330758
    18  C   -0.137641
    19  C   -0.057215
    20  C    0.016435
    21  C    0.194214
    22  C   -0.189987
    23  C    0.131821
    24  C   -0.153134
    25  C   -0.064191
    26  C   -0.281077
    27  C   -0.312412
    28  C   -0.274358
    29  C   -0.099623
    30  C    0.117155
    31  C    0.090675
    32  C   -0.275704
    33  C   -0.393579
    34  C   -0.108290
    35  C    0.176060
    36  C   -0.390096
    37  C   -0.109530
    38  C   -0.087013
    39  C   -0.115717
    40  C   -0.102509
    41  C   -0.093472
    42  C   -0.121079
    43  C    0.143192
    44  C   -0.397431
    45  H    0.083421
    46  H    0.139729
    47  H    0.106036
    48  H    0.092834
    49  H    0.104808
    50  H    0.103744
    51  H    0.121668
    52  H    0.131097
    53  H    0.117283
    54  H    0.084561
    55  H    0.097864
    56  H    0.117582
    57  H    0.118352
    58  H    0.104079
    59  H    0.100830
    60  H    0.298917
    61  H    0.094116
    62  H    0.077688
    63  H    0.091774
    64  H    0.070888
    65  H    0.075446
    66  H    0.080245
    67  H    0.075716
    68  H    0.104603
    69  H    0.079661
    70  H    0.103926
    71  H    0.122320
    72  H    0.088052
    73  H    0.113344
    74  H    0.094993
    75  H    0.113990
    76  H    0.095866
    77  H    0.107761
    78  H    0.090060
    79  H    0.103071
    80  H    0.123769
    81  H    0.064476
    82  H    0.303342
    83  H    0.308509
    84  H    0.092555
    85  H    0.133968
    86  H    0.128658
    87  H    0.104146
    88  H    0.074804
    89  H    0.114835
    90  H    0.128766
    91  H    0.105407
    92  H    0.064914
    93  H    0.080660
    94  H    0.069784
    95  H    0.080793
    96  H    0.073656
    97  H    0.088674
    98  H    0.099183
    99  H    0.139628
   100  H    0.137398
 Sum of Mulliken charges =  -0.00000

 Dipole moment (field-independent basis, Debye):
    X=              2.5181    Y=              1.1205    Z=              0.8864  Tot=              2.8952
 Quadrupole moment (field-independent basis, Debye-Ang):
   XX=           -269.0815   YY=           -265.6133   ZZ=           -279.2060
   XY=             -2.8437   XZ=             42.9946   YZ=             -2.3106

 Normal termination of Gaussian 16 at Mon Jul 29 17:14:18 2019.
