 Gaussian 16, Revision A.03,
 Gaussian 16:  ES64L-G16RevA.03 25-Dec-2016

 -------------------------------------
 # td=(NStates=1) CAM-B3LYP/6-31G(d,p)
 -------------------------------------

 --
 TD
 --
 Symbolic Z-matrix:
 Charge =  0 Multiplicity = 1

                         Standard orientation:
 ---------------------------------------------------------------------
 Center     Atomic      Atomic             Coordinates (Angstroms)
 Number     Number       Type             X           Y           Z
 ---------------------------------------------------------------------
      1          8           0      -11.731154    0.416052   -1.394613
      2          8           0      -13.056193   -2.636014    1.174405
      3          8           0       10.552886   -0.812504   -2.202756
      4          8           0       14.481369   -0.964287   -0.228694
      5          6           0      -11.015700   -0.120867   -0.236154
      6          6           0      -11.704458   -0.978048   -1.333652
      7          6           0      -11.811174    0.245888    0.988148
      8          6           0      -12.977366   -1.711514   -1.063865
      9          6           0      -13.341000   -0.147676    0.807127
     10          6           0      -13.552181   -1.516914    0.287550
     11          6           0      -10.759728   -1.588594   -2.334411
     12          6           0       -9.509759    0.077040   -0.310531
     13          6           0      -11.186415   -0.303027    2.328456
     14          6           0      -11.795043    1.803587    1.183172
     15          6           0       -8.584363   -0.716623    0.061318
     16          6           0       -7.232527   -0.523090    0.158286
     17          6           0       -6.227155   -1.777960    0.319387
     18          6           0       -6.587122    0.680819   -0.124790
     19          6           0       -5.187087    0.914585   -0.125692
     20          6           0       11.921941   -0.086665    1.261377
     21          6           0       11.568609   -0.507355   -1.295875
     22          6           0       12.675665   -1.512970    1.387427
     23          6           0       13.327631   -1.821334    0.071365
     24          6           0       12.295396   -1.819853   -0.984196
     25          6           0       11.037484   -0.028621    0.072178
     26          6           0       11.033254   -0.035830    2.511178
     27          6           0       13.076492    1.022889    1.330710
     28          6           0       12.453233    0.711053   -1.992830
     29          6           0       -4.703727    2.207386   -0.270195
     30          6           0        9.893126    0.414333    0.069373
     31          6           0       -3.276997    2.530470   -0.420742
     32          6           0        8.649772    1.035526   -0.091082
     33          6           0       -2.946639    3.965354   -0.682209
     34          6           0       -2.290488    1.534710   -0.159096
     35          6           0        7.440111    0.280236    0.008377
     36          6           0        7.595357   -1.224666    0.036884
     37          6           0        6.172825    0.905621    0.098920
     38          6           0       -1.012427    1.708258   -0.262747
     39          6           0        4.935566    0.207798    0.172510
     40          6           0       -0.020734    0.824440    0.001254
     41          6           0        3.653184    0.916551    0.177687
     42          6           0        1.365884    1.083672    0.048091
     43          6           0        2.453272    0.300231    0.139727
     44          6           0        2.438579   -1.243422    0.239839
     45          1           0      -12.922945   -2.748715   -1.261242
     46          1           0      -13.695451   -1.356937   -1.913027
     47          1           0      -13.874390   -0.134290    1.775651
     48          1           0      -13.908183    0.606838    0.309837
     49          1           0      -14.600487   -1.530333    0.171026
     50          1           0      -10.326990   -2.595151   -2.106954
     51          1           0      -11.323079   -1.556030   -3.357316
     52          1           0       -9.890702   -0.781700   -2.308673
     53          1           0       -9.398697    1.119804   -0.723952
     54          1           0      -10.187413    0.207641    2.518905
     55          1           0      -11.746875   -0.085337    3.027950
     56          1           0      -11.014651   -1.438132    2.303977
     57          1           0      -11.969626    2.245688    0.305490
     58          1           0      -12.381318    1.956199    2.001849
     59          1           0      -10.754489    2.162150    1.457232
     60          1           0      -12.027516   -2.653713    1.086346
     61          1           0       -8.931597   -1.844436    0.181589
     62          1           0       -6.264081   -2.399533   -1.018240
     63          1           0       -5.193753   -1.386761    0.603918
     64          1           0       -6.588019   -2.752819    1.257802
     65          1           0       -7.266070    1.508943   -0.235238
     66          1           0       -4.340203    0.166119   -0.037466
     67          1           0       13.456180   -1.203529    2.130974
     68          1           0       11.901311   -2.261779    1.888086
     69          1           0       13.945937   -2.876453   -0.012633
     70          1           0       12.653330   -2.360024   -1.866517
     71          1           0       11.612789   -2.536607   -0.763724
     72          1           0       11.702630   -0.114113    3.338596
     73          1           0       10.182007    0.736275    2.702171
     74          1           0       10.262193   -1.049837    2.377569
     75          1           0       13.834568    0.928066    0.648578
     76          1           0       12.845238    2.160534    1.314795
     77          1           0       13.380101    0.788648    2.515046
     78          1           0       12.658486    0.316643   -2.939033
     79          1           0       11.941216    1.658110   -2.110277
     80          1           0       13.359756    0.971987   -1.608864
     81          1           0       -5.331276    3.026925   -0.476259
     82          1           0        9.944397    0.017946   -2.044283
     83          1           0       15.012225   -1.074406    0.736467
     84          1           0        8.531189    2.140558    0.055466
     85          1           0       -2.452534    4.370824    0.259582
     86          1           0       -2.310035    4.144596   -1.479621
     87          1           0       -3.722686    4.740511   -0.684263
     88          1           0       -2.533410    0.446930    0.033058
     89          1           0        6.691550   -1.737724    0.279051
     90          1           0        8.096181   -1.671373   -0.984168
     91          1           0        8.551251   -1.291925    0.728195
     92          1           0        6.028985    2.067573   -0.155537
     93          1           0       -0.545480    2.724761   -0.400891
     94          1           0        4.976823   -0.857367   -0.015495
     95          1           0       -0.395390   -0.222945    0.295824
     96          1           0        3.940791    1.949266    0.112493
     97          1           0        1.500797    2.227650   -0.098785
     98          1           0        1.372316   -1.705427    0.162083
     99          1           0        3.209885   -1.802070   -0.539722
    100          1           0        2.738211   -1.620204    1.342191
 ---------------------------------------------------------------------

 SCF Done:  E(RCAM-B3LYP) =  -1857.20469919     A.U. after   15 cycles

 Excitation energies and oscillator strengths:

 Excited State   1:      Singlet-A      1.9443 eV  637.69 nm  f=3.3110  <S**2>=0.000
     163 ->166         0.13758
     164 ->165         0.69643
     164 <-165        -0.10325
 This state for optimization and/or second-order correction.
 Total Energy, E(TD-HF/TD-DFT) =  -1857.13324852
 Copying the excited state density for this state as the 1-particle RhoCI density.

 The electronic state is 1-A.
 Alpha  occ. eigenvalues --  -19.23234 -19.22275 -19.21892 -19.21540 -10.33010
 Alpha  occ. eigenvalues --  -10.32563 -10.32164 -10.31800 -10.31556 -10.29963
 Alpha  occ. eigenvalues --  -10.29707 -10.28967 -10.28782 -10.28499 -10.28126
 Alpha  occ. eigenvalues --  -10.28111 -10.28085 -10.27674 -10.27489 -10.27453
 Alpha  occ. eigenvalues --  -10.27427 -10.27320 -10.27161 -10.26971 -10.26868
 Alpha  occ. eigenvalues --  -10.26827 -10.26785 -10.26780 -10.26745 -10.26623
 Alpha  occ. eigenvalues --  -10.26618 -10.26604 -10.26351 -10.26274 -10.26263
 Alpha  occ. eigenvalues --  -10.26165 -10.26003 -10.25514 -10.25381 -10.24949
 Alpha  occ. eigenvalues --  -10.24680 -10.23952 -10.23045 -10.23027  -1.15381
 Alpha  occ. eigenvalues --   -1.10300  -1.07842  -1.05926  -0.94120  -0.93077
 Alpha  occ. eigenvalues --   -0.92402  -0.91598  -0.90492  -0.90221  -0.88323
 Alpha  occ. eigenvalues --   -0.87187  -0.86818  -0.85803  -0.85296  -0.83093
 Alpha  occ. eigenvalues --   -0.82049  -0.80751  -0.79837  -0.78802  -0.76870
 Alpha  occ. eigenvalues --   -0.76678  -0.76505  -0.76117  -0.75654  -0.75517
 Alpha  occ. eigenvalues --   -0.75039  -0.73961  -0.72766  -0.70562  -0.69951
 Alpha  occ. eigenvalues --   -0.68435  -0.67122  -0.65609  -0.65043  -0.63807
 Alpha  occ. eigenvalues --   -0.63618  -0.62505  -0.61611  -0.60262  -0.59909
 Alpha  occ. eigenvalues --   -0.58539  -0.58149  -0.57750  -0.56664  -0.56466
 Alpha  occ. eigenvalues --   -0.55806  -0.55590  -0.55361  -0.54965  -0.54026
 Alpha  occ. eigenvalues --   -0.53402  -0.53391  -0.52928  -0.52684  -0.51669
 Alpha  occ. eigenvalues --   -0.51419  -0.50946  -0.50348  -0.50187  -0.49914
 Alpha  occ. eigenvalues --   -0.49566  -0.48932  -0.48788  -0.48751  -0.47831
 Alpha  occ. eigenvalues --   -0.47562  -0.47245  -0.47034  -0.46804  -0.46772
 Alpha  occ. eigenvalues --   -0.46503  -0.45946  -0.45637  -0.45519  -0.45360
 Alpha  occ. eigenvalues --   -0.44976  -0.44830  -0.44757  -0.44185  -0.43964
 Alpha  occ. eigenvalues --   -0.43587  -0.43539  -0.43040  -0.42365  -0.42266
 Alpha  occ. eigenvalues --   -0.41807  -0.41728  -0.41602  -0.41297  -0.41284
 Alpha  occ. eigenvalues --   -0.41201  -0.41052  -0.40503  -0.40324  -0.40157
 Alpha  occ. eigenvalues --   -0.40077  -0.39938  -0.39113  -0.38967  -0.38805
 Alpha  occ. eigenvalues --   -0.38396  -0.38359  -0.38021  -0.37794  -0.37714
 Alpha  occ. eigenvalues --   -0.37081  -0.36184  -0.35540  -0.34807  -0.33600
 Alpha  occ. eigenvalues --   -0.32996  -0.32723  -0.32576  -0.31364  -0.30785
 Alpha  occ. eigenvalues --   -0.30461  -0.27972  -0.24041  -0.19027
 Alpha virt. eigenvalues --   -0.06900  -0.01673   0.02410   0.06049   0.07524
 Alpha virt. eigenvalues --    0.07641   0.08137   0.09469   0.10022   0.10715
 Alpha virt. eigenvalues --    0.11056   0.11426   0.11700   0.12342   0.12441

 Mulliken charges:
               1
     1  O   -0.508538
     2  O   -0.570588
     3  O   -0.564805
     4  O   -0.550979
     5  C    0.152538
     6  C    0.264957
     7  C    0.006404
     8  C   -0.207949
     9  C   -0.188229
    10  C    0.146623
    11  C   -0.316327
    12  C   -0.132041
    13  C   -0.276846
    14  C   -0.309135
    15  C   -0.045190
    16  C    0.074160
    17  C   -0.282561
    18  C   -0.103758
    19  C   -0.059377
    20  C   -0.004958
    21  C    0.248546
    22  C   -0.189815
    23  C    0.167471
    24  C   -0.201070
    25  C   -0.031486
    26  C   -0.292525
    27  C   -0.294017
    28  C   -0.331109
    29  C   -0.115984
    30  C    0.081444
    31  C    0.069553
    32  C   -0.236822
    33  C   -0.389220
    34  C   -0.108391
    35  C    0.111295
    36  C   -0.358199
    37  C   -0.130128
    38  C   -0.050833
    39  C   -0.094562
    40  C   -0.091641
    41  C   -0.115278
    42  C   -0.143149
    43  C    0.151248
    44  C   -0.360253
    45  H    0.121011
    46  H    0.095052
    47  H    0.100126
    48  H    0.117127
    49  H    0.107079
    50  H    0.105702
    51  H    0.097436
    52  H    0.111891
    53  H    0.106685
    54  H    0.098265
    55  H    0.114496
    56  H    0.068443
    57  H    0.128994
    58  H    0.109923
    59  H    0.082264
    60  H    0.307574
    61  H    0.076246
    62  H    0.049688
    63  H    0.120492
    64  H    0.060532
    65  H    0.090249
    66  H    0.092389
    67  H    0.077098
    68  H    0.111725
    69  H    0.065858
    70  H    0.112698
    71  H    0.129040
    72  H    0.100148
    73  H    0.116739
    74  H    0.067681
    75  H    0.153744
    76  H    0.095912
    77  H    0.061597
    78  H    0.122658
    79  H    0.094024
    80  H    0.126773
    81  H    0.083772
    82  H    0.308068
    83  H    0.306402
    84  H    0.114624
    85  H    0.122515
    86  H    0.137013
    87  H    0.118044
    88  H    0.081497
    89  H    0.112749
    90  H    0.119557
    91  H    0.108074
    92  H    0.075244
    93  H    0.071364
    94  H    0.079313
    95  H    0.063002
    96  H    0.083053
    97  H    0.074835
    98  H    0.105636
    99  H    0.107915
   100  H    0.111494
 Sum of Mulliken charges =  -0.00000

 Dipole moment (field-independent basis, Debye):
    X=              2.9012    Y=              1.0803    Z=              2.0786  Tot=              3.7289
 Quadrupole moment (field-independent basis, Debye-Ang):
   XX=           -274.4051   YY=           -259.2836   ZZ=           -281.6045
   XY=            -13.2707   XZ=             34.7821   YZ=             -0.5260

 Normal termination of Gaussian 16 at Tue Jul 30 19:19:29 2019.
