 Gaussian 16, Revision A.03,
 Gaussian 16:  ES64L-G16RevA.03 25-Dec-2016

 -------------------------------------
 # td=(NStates=1) CAM-B3LYP/6-31G(d,p)
 -------------------------------------

 --
 TD
 --
 Symbolic Z-matrix:
 Charge =  0 Multiplicity = 1

                         Standard orientation:
 ---------------------------------------------------------------------
 Center     Atomic      Atomic             Coordinates (Angstroms)
 Number     Number       Type             X           Y           Z
 ---------------------------------------------------------------------
      1          8           0      -11.761852    0.406352   -1.465336
      2          8           0      -13.056712   -2.434820    1.439515
      3          8           0       10.666692   -0.704905   -2.179129
      4          8           0       14.415429   -0.890061    0.010651
      5          6           0      -10.995880   -0.046905   -0.281881
      6          6           0      -11.748851   -1.003806   -1.289626
      7          6           0      -11.710470    0.406540    1.017886
      8          6           0      -13.113709   -1.593588   -0.926731
      9          6           0      -13.188288    0.121742    1.002710
     10          6           0      -13.512392   -1.353371    0.623628
     11          6           0      -11.011295   -1.828883   -2.279355
     12          6           0       -9.530063    0.067430   -0.476208
     13          6           0      -11.110564   -0.176749    2.333653
     14          6           0      -11.552455    1.975447    1.066904
     15          6           0       -8.639233   -0.913450    0.017882
     16          6           0       -7.255044   -0.677661    0.026718
     17          6           0       -6.377431   -2.031449    0.166516
     18          6           0       -6.622525    0.491141   -0.068939
     19          6           0       -5.166734    0.795356   -0.160544
     20          6           0       11.850195   -0.046998    1.397463
     21          6           0       11.687382   -0.412060   -1.170647
     22          6           0       12.615778   -1.432540    1.554361
     23          6           0       13.370091   -1.817571    0.278767
     24          6           0       12.461429   -1.817013   -0.987579
     25          6           0       11.107121   -0.009561    0.100478
     26          6           0       10.868885    0.021129    2.645664
     27          6           0       12.793932    1.191843    1.511344
     28          6           0       12.597685    0.590274   -1.884257
     29          6           0       -4.752411    2.060870   -0.361409
     30          6           0        9.935608    0.544778    0.043153
     31          6           0       -3.377664    2.414688   -0.328871
     32          6           0        8.763465    1.057866   -0.047195
     33          6           0       -2.990474    3.873045   -0.526478
     34          6           0       -2.355436    1.440579   -0.210361
     35          6           0        7.443069    0.163327   -0.094835
     36          6           0        7.691029   -1.328334    0.003457
     37          6           0        6.239029    0.795132   -0.252121
     38          6           0       -1.001350    1.710097   -0.311675
     39          6           0        4.989421    0.149928   -0.124559
     40          6           0        0.115696    0.835190   -0.104491
     41          6           0        3.850285    0.840939   -0.124011
     42          6           0        1.464386    1.166611   -0.232623
     43          6           0        2.540944    0.292390   -0.149369
     44          6           0        2.316043   -1.146113   -0.051182
     45          1           0      -13.088281   -2.665325   -0.719265
     46          1           0      -13.821215   -1.052049   -1.620804
     47          1           0      -13.742359    0.321368    2.049449
     48          1           0      -13.588026    0.655250    0.189854
     49          1           0      -14.670111   -1.525819    0.585075
     50          1           0      -10.647959   -2.844716   -1.958764
     51          1           0      -11.872696   -1.825428   -3.076438
     52          1           0      -10.334607   -1.005631   -2.599520
     53          1           0       -9.164405    0.817017   -1.001001
     54          1           0      -10.090485    0.188742    2.550181
     55          1           0      -11.653390    0.146721    3.164279
     56          1           0      -10.864469   -1.130814    2.483658
     57          1           0      -12.244261    2.378238    0.351493
     58          1           0      -11.979159    2.234529    2.035266
     59          1           0      -10.421680    2.285442    0.997397
     60          1           0      -12.103462   -2.636445    1.064482
     61          1           0       -9.076679   -1.868300    0.450127
     62          1           0       -5.879797   -2.249747   -0.790802
     63          1           0       -5.360923   -1.935257    0.786983
     64          1           0       -6.700155   -2.959052    0.556683
     65          1           0       -7.287217    1.403315    0.027946
     66          1           0       -4.595221   -0.138472    0.109155
     67          1           0       13.172199   -1.499466    2.429253
     68          1           0       11.749339   -2.153192    1.737450
     69          1           0       13.897667   -2.879628    0.311805
     70          1           0       13.258208   -2.212416   -1.768486
     71          1           0       11.736017   -2.603475   -0.800700
     72          1           0       11.348268   -0.292770    3.621490
     73          1           0       10.240401    1.082341    2.819579
     74          1           0       10.038151   -1.019119    2.599954
     75          1           0       13.258479    1.103487    0.508748
     76          1           0       12.133958    2.057580    1.633086
     77          1           0       13.419271    1.007791    2.372269
     78          1           0       12.615114    0.297418   -2.841725
     79          1           0       12.050928    1.550160   -2.173271
     80          1           0       13.622664    0.816584   -1.335192
     81          1           0       -5.693534    2.935103   -0.215054
     82          1           0       10.068267   -0.042195   -2.119258
     83          1           0       14.940427   -0.849615    0.873156
     84          1           0        8.486546    2.070733   -0.148081
     85          1           0       -2.584150    4.166137    0.251293
     86          1           0       -2.491016    3.779399   -1.454160
     87          1           0       -3.834893    4.453969   -0.541025
     88          1           0       -2.490707    0.486928   -0.138620
     89          1           0        6.811954   -1.869113    0.062687
     90          1           0        8.040156   -1.653361   -1.032431
     91          1           0        8.483635   -1.549473    0.934003
     92          1           0        6.121866    1.887413   -0.712314
     93          1           0       -0.626314    2.803037   -0.490867
     94          1           0        4.767887   -0.944306   -0.041232
     95          1           0       -0.049538   -0.302126   -0.020828
     96          1           0        3.936360    1.911413   -0.050221
     97          1           0        1.582709    2.262452   -0.362792
     98          1           0        1.312514   -1.387578   -0.071584
     99          1           0        2.919279   -1.572111   -0.879266
    100          1           0        2.700779   -1.669846    0.887463
 ---------------------------------------------------------------------

 SCF Done:  E(RCAM-B3LYP) =  -1857.29284646     A.U. after   15 cycles

 Excitation energies and oscillator strengths:

 Excited State   1:      Singlet-A      2.2363 eV  554.41 nm  f=2.9094  <S**2>=0.000
     163 ->166        -0.12804
     164 ->165         0.69510
 This state for optimization and/or second-order correction.
 Total Energy, E(TD-HF/TD-DFT) =  -1857.21066243
 Copying the excited state density for this state as the 1-particle RhoCI density.

 The electronic state is 1-A.
 Alpha  occ. eigenvalues --  -19.22856 -19.22715 -19.22586 -19.19838 -10.32387
 Alpha  occ. eigenvalues --  -10.32179 -10.32134 -10.32053 -10.31324 -10.29086
 Alpha  occ. eigenvalues --  -10.28997 -10.28625 -10.28405 -10.28137 -10.28069
 Alpha  occ. eigenvalues --  -10.27971 -10.27958 -10.27522 -10.27252 -10.27161
 Alpha  occ. eigenvalues --  -10.27068 -10.27066 -10.27020 -10.26850 -10.26822
 Alpha  occ. eigenvalues --  -10.26769 -10.26535 -10.26532 -10.26528 -10.26411
 Alpha  occ. eigenvalues --  -10.26391 -10.26366 -10.26159 -10.26005 -10.25748
 Alpha  occ. eigenvalues --  -10.25462 -10.25444 -10.25005 -10.24950 -10.24945
 Alpha  occ. eigenvalues --  -10.24818 -10.23850 -10.22966 -10.22933  -1.14165
 Alpha  occ. eigenvalues --   -1.10301  -1.09888  -1.08819  -0.93623  -0.92640
 Alpha  occ. eigenvalues --   -0.92221  -0.91184  -0.90211  -0.89758  -0.87224
 Alpha  occ. eigenvalues --   -0.86145  -0.85912  -0.85309  -0.84703  -0.83247
 Alpha  occ. eigenvalues --   -0.82383  -0.81018  -0.80578  -0.79694  -0.77515
 Alpha  occ. eigenvalues --   -0.76943  -0.76772  -0.76317  -0.76063  -0.75361
 Alpha  occ. eigenvalues --   -0.74831  -0.74096  -0.72978  -0.70274  -0.69235
 Alpha  occ. eigenvalues --   -0.68463  -0.66345  -0.65491  -0.65024  -0.63269
 Alpha  occ. eigenvalues --   -0.63050  -0.61538  -0.61015  -0.60577  -0.59551
 Alpha  occ. eigenvalues --   -0.58947  -0.58736  -0.58507  -0.57237  -0.56624
 Alpha  occ. eigenvalues --   -0.56084  -0.55948  -0.55453  -0.54385  -0.53590
 Alpha  occ. eigenvalues --   -0.53448  -0.53292  -0.52904  -0.52446  -0.51962
 Alpha  occ. eigenvalues --   -0.51715  -0.51274  -0.51172  -0.50905  -0.49656
 Alpha  occ. eigenvalues --   -0.49581  -0.49080  -0.48660  -0.48566  -0.48376
 Alpha  occ. eigenvalues --   -0.47766  -0.47702  -0.47298  -0.46882  -0.46847
 Alpha  occ. eigenvalues --   -0.46675  -0.46186  -0.45859  -0.45589  -0.45536
 Alpha  occ. eigenvalues --   -0.44926  -0.44630  -0.44407  -0.44197  -0.44032
 Alpha  occ. eigenvalues --   -0.43817  -0.43546  -0.43332  -0.43068  -0.42711
 Alpha  occ. eigenvalues --   -0.42470  -0.42237  -0.41822  -0.41248  -0.41127
 Alpha  occ. eigenvalues --   -0.40881  -0.40782  -0.40436  -0.40271  -0.40066
 Alpha  occ. eigenvalues --   -0.39670  -0.39409  -0.39075  -0.38736  -0.38586
 Alpha  occ. eigenvalues --   -0.38468  -0.38430  -0.37994  -0.37563  -0.37044
 Alpha  occ. eigenvalues --   -0.36436  -0.35931  -0.34744  -0.34474  -0.33563
 Alpha  occ. eigenvalues --   -0.32891  -0.32675  -0.32555  -0.31980  -0.30554
 Alpha  occ. eigenvalues --   -0.29647  -0.27713  -0.25155  -0.19721
 Alpha virt. eigenvalues --   -0.05804  -0.00570   0.02748   0.05452   0.06625
 Alpha virt. eigenvalues --    0.08507   0.08832   0.10026   0.11066   0.11283
 Alpha virt. eigenvalues --    0.11856   0.12410   0.13468   0.13677   0.14262

 Mulliken charges:
               1
     1  O   -0.519535
     2  O   -0.540841
     3  O   -0.560972
     4  O   -0.539139
     5  C    0.182791
     6  C    0.224961
     7  C    0.020431
     8  C   -0.243030
     9  C   -0.176572
    10  C    0.151394
    11  C   -0.301441
    12  C   -0.102028
    13  C   -0.309659
    14  C   -0.299121
    15  C   -0.095138
    16  C    0.116478
    17  C   -0.397469
    18  C   -0.148952
    19  C   -0.035706
    20  C   -0.003116
    21  C    0.233624
    22  C   -0.197687
    23  C    0.134411
    24  C   -0.176600
    25  C   -0.024742
    26  C   -0.284546
    27  C   -0.277340
    28  C   -0.301468
    29  C   -0.122778
    30  C    0.210546
    31  C    0.014236
    32  C   -0.330839
    33  C   -0.332057
    34  C   -0.047151
    35  C    0.085370
    36  C   -0.354858
    37  C   -0.135171
    38  C   -0.116575
    39  C   -0.079347
    40  C   -0.097962
    41  C   -0.096322
    42  C   -0.115419
    43  C    0.108811
    44  C   -0.375905
    45  H    0.109582
    46  H    0.122612
    47  H    0.088445
    48  H    0.116053
    49  H    0.084170
    50  H    0.114578
    51  H    0.100020
    52  H    0.125134
    53  H    0.106370
    54  H    0.089654
    55  H    0.110052
    56  H    0.101557
    57  H    0.121261
    58  H    0.101422
    59  H    0.092350
    60  H    0.302694
    61  H    0.085007
    62  H    0.127949
    63  H    0.087932
    64  H    0.120398
    65  H    0.078738
    66  H    0.101447
    67  H    0.093594
    68  H    0.098043
    69  H    0.064370
    70  H    0.109212
    71  H    0.114123
    72  H    0.102601
    73  H    0.097146
    74  H    0.048566
    75  H    0.122740
    76  H    0.104782
    77  H    0.092810
    78  H    0.131456
    79  H    0.071873
    80  H    0.128324
    81  H    0.079848
    82  H    0.289194
    83  H    0.309252
    84  H    0.106680
    85  H    0.134323
    86  H    0.140210
    87  H    0.103999
    88  H    0.062132
    89  H    0.116425
    90  H    0.135178
    91  H    0.103705
    92  H    0.089794
    93  H    0.071291
    94  H    0.080927
    95  H    0.064500
    96  H    0.074677
    97  H    0.076647
    98  H    0.112696
    99  H    0.122760
   100  H    0.115134
 Sum of Mulliken charges =  -0.00000

 Dipole moment (field-independent basis, Debye):
    X=              2.7223    Y=             -0.6439    Z=              2.3029  Tot=              3.6233
 Quadrupole moment (field-independent basis, Debye-Ang):
   XX=           -282.5103   YY=           -258.1968   ZZ=           -279.8791
   XY=             -3.6220   XZ=             37.0863   YZ=             -1.4954

 Normal termination of Gaussian 16 at Tue Jul 30 19:06:13 2019.
