 Gaussian 16, Revision A.03,
 Gaussian 16:  ES64L-G16RevA.03 25-Dec-2016

 -------------------------------------
 # td=(NStates=1) CAM-B3LYP/6-31G(d,p)
 -------------------------------------

 --
 TD
 --
 Symbolic Z-matrix:
 Charge =  0 Multiplicity = 1

                         Standard orientation:
 ---------------------------------------------------------------------
 Center     Atomic      Atomic             Coordinates (Angstroms)
 Number     Number       Type             X           Y           Z
 ---------------------------------------------------------------------
      1          8           0      -11.794158    0.314245   -1.426704
      2          8           0      -12.692103   -2.864109    1.145803
      3          8           0       10.471551   -0.796493   -2.044991
      4          8           0       14.402359   -1.303337   -0.294186
      5          6           0      -11.058593   -0.159873   -0.258370
      6          6           0      -11.609271   -1.061277   -1.317472
      7          6           0      -11.759469    0.139135    1.102994
      8          6           0      -12.880207   -1.877268   -1.070144
      9          6           0      -13.247879   -0.407729    0.910463
     10          6           0      -13.375577   -1.873635    0.342391
     11          6           0      -10.703172   -1.588482   -2.337314
     12          6           0       -9.546873    0.148376   -0.322213
     13          6           0      -11.152989   -0.458313    2.310677
     14          6           0      -11.750679    1.696838    1.187920
     15          6           0       -8.604312   -0.698162    0.303137
     16          6           0       -7.236747   -0.416413    0.133870
     17          6           0       -6.214007   -1.611432    0.305199
     18          6           0       -6.701422    0.887843   -0.160316
     19          6           0       -5.290988    1.150850   -0.089919
     20          6           0       11.898379   -0.189855    1.365980
     21          6           0       11.537551   -0.481429   -1.195750
     22          6           0       12.499977   -1.618252    1.367118
     23          6           0       13.213624   -1.970025    0.115723
     24          6           0       12.206203   -1.891454   -0.981024
     25          6           0       10.996187    0.033073    0.163851
     26          6           0       10.939520    0.007482    2.602683
     27          6           0       12.966053    0.966902    1.534056
     28          6           0       12.458369    0.491398   -1.935672
     29          6           0       -4.754475    2.380308   -0.189395
     30          6           0        9.901771    0.641139    0.074616
     31          6           0       -3.300171    2.788573   -0.299434
     32          6           0        8.728824    1.094607    0.096092
     33          6           0       -2.929424    4.192263   -0.444296
     34          6           0       -2.266480    1.806195   -0.241132
     35          6           0        7.418263    0.255428    0.100659
     36          6           0        7.726141   -1.277401    0.134576
     37          6           0        6.238189    0.854705   -0.051550
     38          6           0       -0.922967    2.124718   -0.308432
     39          6           0        4.955571    0.203026   -0.065545
     40          6           0        0.069173    1.065729   -0.229721
     41          6           0        3.750153    0.904220   -0.157331
     42          6           0        1.445894    1.360072   -0.214336
     43          6           0        2.480776    0.391795   -0.102362
     44          6           0        2.189936   -1.063609   -0.056399
     45          1           0      -12.819892   -3.013799   -1.447662
     46          1           0      -13.592642   -1.601299   -1.803374
     47          1           0      -13.614189   -0.268503    1.965904
     48          1           0      -13.905299    0.219943    0.471073
     49          1           0      -14.457797   -2.152856    0.530642
     50          1           0      -10.437911   -2.680456   -2.347715
     51          1           0      -11.198904   -1.399406   -3.417091
     52          1           0       -9.667357   -1.138734   -2.344038
     53          1           0       -9.361211    1.061588   -0.971326
     54          1           0      -10.001740   -0.061803    2.563630
     55          1           0      -11.769398   -0.318173    3.337676
     56          1           0      -10.853176   -1.555437    2.282740
     57          1           0      -12.202569    2.136820    0.448313
     58          1           0      -12.270171    1.992567    2.080336
     59          1           0      -10.727852    2.078655    1.379708
     60          1           0      -11.727001   -2.985241    0.982731
     61          1           0       -8.941947   -1.553945    0.812172
     62          1           0       -5.716476   -1.720350   -0.658211
     63          1           0       -5.361852   -1.390362    1.044841
     64          1           0       -6.923084   -2.351869    0.467529
     65          1           0       -7.302875    1.706429   -0.381615
     66          1           0       -4.713639    0.339147    0.154212
     67          1           0       13.164309   -1.852606    2.154658
     68          1           0       11.715342   -2.407581    1.581966
     69          1           0       13.687156   -2.917035    0.176070
     70          1           0       12.736400   -2.069523   -1.945420
     71          1           0       11.450645   -2.674719   -1.021254
     72          1           0       11.483846   -0.214675    3.458349
     73          1           0       10.633450    1.143666    2.481550
     74          1           0       10.198349   -0.792310    2.428682
     75          1           0       13.868397    0.650278    0.750544
     76          1           0       12.708736    2.032858    1.464167
     77          1           0       13.416442    0.704240    2.531091
     78          1           0       12.663603   -0.195658   -2.990151
     79          1           0       11.916569    1.483220   -1.948901
     80          1           0       13.269872    0.640785   -1.360313
     81          1           0       -5.423957    3.199914   -0.484349
     82          1           0        9.718560   -0.075662   -2.071521
     83          1           0       14.947776   -1.600908    0.383158
     84          1           0        8.657793    2.200425    0.022455
     85          1           0       -1.994473    4.369545    0.348040
     86          1           0       -2.573943    4.377587   -1.530307
     87          1           0       -3.881156    4.932266   -0.114208
     88          1           0       -2.735356    0.769733   -0.345338
     89          1           0        6.849573   -1.982777    0.070839
     90          1           0        8.311371   -1.704564   -0.636621
     91          1           0        7.973918   -1.388153    1.198089
     92          1           0        6.036035    1.863653   -0.098198
     93          1           0       -0.650928    3.026120   -0.433331
     94          1           0        4.706544   -0.962148    0.174037
     95          1           0       -0.383693   -0.003433   -0.082199
     96          1           0        3.959179    2.036715   -0.101146
     97          1           0        1.838056    2.382029   -0.702982
     98          1           0        1.083958   -1.686948   -0.553360
     99          1           0        3.067484   -1.589116   -0.745584
    100          1           0        2.156826   -1.481001    1.008360
 ---------------------------------------------------------------------

 SCF Done:  E(RCAM-B3LYP) =  -1857.28132363     A.U. after   15 cycles

 Excitation energies and oscillator strengths:

 Excited State   1:      Singlet-A      2.0511 eV  604.47 nm  f=2.8185  <S**2>=0.000
     163 ->166        -0.13189
     164 ->165         0.69608
     164 <-165        -0.10259
 This state for optimization and/or second-order correction.
 Total Energy, E(TD-HF/TD-DFT) =  -1857.20594607
 Copying the excited state density for this state as the 1-particle RhoCI density.

 The electronic state is 1-A.
 Alpha  occ. eigenvalues --  -19.22770 -19.21914 -19.20974 -19.20094 -10.32267
 Alpha  occ. eigenvalues --  -10.32215 -10.31961 -10.30844 -10.30139 -10.29696
 Alpha  occ. eigenvalues --  -10.28623 -10.28588 -10.28528 -10.28387 -10.28312
 Alpha  occ. eigenvalues --  -10.28308 -10.27742 -10.27611 -10.27608 -10.27592
 Alpha  occ. eigenvalues --  -10.27380 -10.27376 -10.27014 -10.26664 -10.26590
 Alpha  occ. eigenvalues --  -10.26527 -10.26371 -10.26367 -10.26303 -10.26287
 Alpha  occ. eigenvalues --  -10.26246 -10.26116 -10.26052 -10.25643 -10.25616
 Alpha  occ. eigenvalues --  -10.25588 -10.25563 -10.25418 -10.24891 -10.24803
 Alpha  occ. eigenvalues --  -10.24711 -10.24264 -10.24134 -10.23317  -1.16276
 Alpha  occ. eigenvalues --   -1.12517  -1.08249  -1.07920  -0.93082  -0.91954
 Alpha  occ. eigenvalues --   -0.91624  -0.90717  -0.90102  -0.89713  -0.87250
 Alpha  occ. eigenvalues --   -0.86676  -0.86390  -0.85033  -0.84210  -0.82770
 Alpha  occ. eigenvalues --   -0.82141  -0.80613  -0.80247  -0.77567  -0.76781
 Alpha  occ. eigenvalues --   -0.76771  -0.75915  -0.75902  -0.75745  -0.75640
 Alpha  occ. eigenvalues --   -0.74626  -0.74417  -0.72195  -0.70112  -0.69440
 Alpha  occ. eigenvalues --   -0.68553  -0.66680  -0.65571  -0.65032  -0.64622
 Alpha  occ. eigenvalues --   -0.63563  -0.61814  -0.60815  -0.60355  -0.59769
 Alpha  occ. eigenvalues --   -0.59199  -0.58747  -0.57882  -0.57424  -0.56884
 Alpha  occ. eigenvalues --   -0.55329  -0.54740  -0.54497  -0.54273  -0.54009
 Alpha  occ. eigenvalues --   -0.53838  -0.53063  -0.52455  -0.52410  -0.51256
 Alpha  occ. eigenvalues --   -0.51155  -0.50655  -0.50422  -0.50363  -0.50107
 Alpha  occ. eigenvalues --   -0.49919  -0.49254  -0.49109  -0.48591  -0.48094
 Alpha  occ. eigenvalues --   -0.48073  -0.47801  -0.47280  -0.47239  -0.47036
 Alpha  occ. eigenvalues --   -0.46643  -0.46211  -0.45710  -0.45690  -0.45299
 Alpha  occ. eigenvalues --   -0.45265  -0.44303  -0.44206  -0.43747  -0.43303
 Alpha  occ. eigenvalues --   -0.42733  -0.42623  -0.42462  -0.42155  -0.41745
 Alpha  occ. eigenvalues --   -0.41658  -0.41587  -0.41200  -0.41106  -0.41063
 Alpha  occ. eigenvalues --   -0.40792  -0.40531  -0.40344  -0.40053  -0.39604
 Alpha  occ. eigenvalues --   -0.39520  -0.38976  -0.38880  -0.38776  -0.38550
 Alpha  occ. eigenvalues --   -0.38305  -0.38065  -0.37828  -0.37361  -0.36902
 Alpha  occ. eigenvalues --   -0.36293  -0.35801  -0.34988  -0.34615  -0.33904
 Alpha  occ. eigenvalues --   -0.32844  -0.32143  -0.31866  -0.31240  -0.30686
 Alpha  occ. eigenvalues --   -0.29660  -0.27579  -0.24119  -0.19031
 Alpha virt. eigenvalues --   -0.06158  -0.01141   0.03306   0.06890   0.07616
 Alpha virt. eigenvalues --    0.09597   0.09701   0.09953   0.10209   0.12061
 Alpha virt. eigenvalues --    0.12368   0.12662   0.12760   0.13199   0.13402

 Mulliken charges:
               1
     1  O   -0.502497
     2  O   -0.562681
     3  O   -0.584684
     4  O   -0.524658
     5  C    0.165921
     6  C    0.283313
     7  C    0.038702
     8  C   -0.212920
     9  C   -0.194253
    10  C    0.168758
    11  C   -0.340288
    12  C   -0.109362
    13  C   -0.295194
    14  C   -0.310353
    15  C   -0.092382
    16  C    0.035003
    17  C   -0.360127
    18  C   -0.089610
    19  C   -0.039405
    20  C   -0.007016
    21  C    0.235491
    22  C   -0.191622
    23  C    0.134839
    24  C   -0.189684
    25  C   -0.053080
    26  C   -0.283652
    27  C   -0.312813
    28  C   -0.259723
    29  C   -0.131754
    30  C    0.199419
    31  C    0.085676
    32  C   -0.320573
    33  C   -0.370174
    34  C   -0.102612
    35  C    0.079453
    36  C   -0.373152
    37  C   -0.099590
    38  C   -0.054832
    39  C   -0.102323
    40  C   -0.094183
    41  C   -0.117129
    42  C   -0.140596
    43  C    0.139511
    44  C   -0.358986
    45  H    0.092082
    46  H    0.125986
    47  H    0.084561
    48  H    0.111745
    49  H    0.102923
    50  H    0.101093
    51  H    0.097074
    52  H    0.119832
    53  H    0.123408
    54  H    0.078795
    55  H    0.101261
    56  H    0.086817
    57  H    0.130079
    58  H    0.097752
    59  H    0.105322
    60  H    0.302826
    61  H    0.089463
    62  H    0.134829
    63  H    0.124529
    64  H    0.105688
    65  H    0.075986
    66  H    0.068267
    67  H    0.084148
    68  H    0.110588
    69  H    0.078491
    70  H    0.098142
    71  H    0.117644
    72  H    0.097469
    73  H    0.101068
    74  H    0.100695
    75  H    0.104777
    76  H    0.115502
    77  H    0.093258
    78  H    0.091148
    79  H    0.082288
    80  H    0.129904
    81  H    0.074229
    82  H    0.309735
    83  H    0.299658
    84  H    0.098731
    85  H    0.107359
    86  H    0.128869
    87  H    0.090296
    88  H    0.077585
    89  H    0.098951
    90  H    0.145578
    91  H    0.130401
    92  H    0.081389
    93  H    0.069461
    94  H    0.074374
    95  H    0.087510
    96  H    0.077748
    97  H    0.089028
    98  H    0.073024
    99  H    0.106965
   100  H    0.129488
 Sum of Mulliken charges =  -0.00000

 Dipole moment (field-independent basis, Debye):
    X=              1.1892    Y=             -1.1943    Z=              1.9078  Tot=              2.5457
 Quadrupole moment (field-independent basis, Debye-Ang):
   XX=           -267.9586   YY=           -257.9308   ZZ=           -279.9708
   XY=            -11.5310   XZ=             38.4088   YZ=             -2.1510

 Normal termination of Gaussian 16 at Thu Aug  1 14:15:48 2019.
