 Gaussian 16, Revision A.03,
 Gaussian 16:  ES64L-G16RevA.03 25-Dec-2016

 -------------------------------------
 # td=(NStates=1) CAM-B3LYP/6-31G(d,p)
 -------------------------------------

 --
 TD
 --
 Symbolic Z-matrix:
 Charge =  0 Multiplicity = 1

                         Standard orientation:
 ---------------------------------------------------------------------
 Center     Atomic      Atomic             Coordinates (Angstroms)
 Number     Number       Type             X           Y           Z
 ---------------------------------------------------------------------
      1          8           0      -11.816743    0.494723   -1.328900
      2          8           0      -12.751369   -2.841542    1.156752
      3          8           0       10.603592   -1.069371   -2.193494
      4          8           0       14.476060   -1.087984   -0.101026
      5          6           0      -11.074150   -0.074949   -0.266108
      6          6           0      -11.704243   -0.884310   -1.309339
      7          6           0      -11.724638    0.065135    1.202640
      8          6           0      -13.082316   -1.575591   -1.033599
      9          6           0      -13.135823   -0.342418    1.148963
     10          6           0      -13.390245   -1.729256    0.563102
     11          6           0      -11.007053   -1.548895   -2.463813
     12          6           0       -9.628314    0.247392   -0.379961
     13          6           0      -10.872259   -0.680005    2.265204
     14          6           0      -11.689062    1.599639    1.440403
     15          6           0       -8.611731   -0.740429   -0.350841
     16          6           0       -7.199230   -0.529256   -0.262541
     17          6           0       -6.327881   -1.683689    0.178340
     18          6           0       -6.576181    0.756488   -0.373440
     19          6           0       -5.273304    0.967717   -0.141169
     20          6           0       11.906487   -0.077046    1.317244
     21          6           0       11.689999   -0.561663   -1.267512
     22          6           0       12.538927   -1.410614    1.525190
     23          6           0       13.367044   -1.910216    0.229978
     24          6           0       12.429790   -1.908076   -0.944399
     25          6           0       11.057003   -0.069298    0.033298
     26          6           0       11.023319    0.135049    2.539897
     27          6           0       12.849043    1.146279    1.418311
     28          6           0       12.565777    0.451199   -1.946771
     29          6           0       -4.750372    2.263163   -0.284412
     30          6           0        9.808645    0.424802   -0.014728
     31          6           0       -3.388936    2.576767   -0.290207
     32          6           0        8.634623    1.019361   -0.098940
     33          6           0       -2.979715    4.016901   -0.534332
     34          6           0       -2.365895    1.663240   -0.124983
     35          6           0        7.423395    0.123112    0.034487
     36          6           0        7.557442   -1.298683    0.091446
     37          6           0        6.224760    0.779662   -0.128186
     38          6           0       -1.026206    1.979571   -0.093284
     39          6           0        4.920827    0.201338   -0.060916
     40          6           0        0.088547    1.115667   -0.022124
     41          6           0        3.855169    0.955370   -0.312463
     42          6           0        1.491649    1.314736   -0.155710
     43          6           0        2.478037    0.485217   -0.028743
     44          6           0        2.168817   -1.008124    0.259914
     45          1           0      -13.056033   -2.602188   -1.372049
     46          1           0      -13.843536   -0.910790   -1.509174
     47          1           0      -13.542937   -0.353678    2.353900
     48          1           0      -14.157631    0.252357    0.835912
     49          1           0      -14.404135   -1.799959    0.696221
     50          1           0      -10.753679   -2.540770   -2.336223
     51          1           0      -11.663691   -1.442844   -3.429354
     52          1           0      -10.051064   -1.016332   -2.846580
     53          1           0       -9.372287    1.379677   -0.279640
     54          1           0      -10.005328   -0.076364    2.147611
     55          1           0      -11.305207   -0.545953    3.354885
     56          1           0      -10.675441   -1.737539    2.071740
     57          1           0      -12.037231    2.232813    0.686920
     58          1           0      -12.312720    1.883400    2.456702
     59          1           0      -10.691154    1.917664    1.671757
     60          1           0      -11.795055   -2.525637    1.120949
     61          1           0       -9.058255   -1.789999   -0.437071
     62          1           0       -5.645094   -1.993125   -0.650277
     63          1           0       -5.736749   -1.455055    1.075925
     64          1           0       -6.894855   -2.473965    0.139253
     65          1           0       -7.232852    1.695080   -0.482127
     66          1           0       -4.622369    0.044019    0.177835
     67          1           0       13.094069   -1.275059    2.448670
     68          1           0       11.835077   -2.252276    1.697818
     69          1           0       13.530858   -2.926137    0.334950
     70          1           0       12.891665   -2.351955   -1.883860
     71          1           0       11.551519   -2.472530   -0.591612
     72          1           0       11.544931   -0.180290    3.278750
     73          1           0       10.758290    1.067210    2.546099
     74          1           0       10.223279   -0.540681    2.791364
     75          1           0       13.621676    0.898638    0.864737
     76          1           0       12.375889    2.050720    1.101268
     77          1           0       13.228267    1.069895    2.466941
     78          1           0       12.959830    0.168273   -2.862658
     79          1           0       11.849317    1.217114   -2.143318
     80          1           0       13.272043    0.917441   -1.215932
     81          1           0       -5.475772    3.097468   -0.083418
     82          1           0        9.879287   -0.505619   -2.225706
     83          1           0       15.157936   -1.085602    0.697392
     84          1           0        8.347741    2.049509   -0.448824
     85          1           0       -2.443832    4.460682    0.515904
     86          1           0       -2.145100    4.222689   -1.276097
     87          1           0       -3.911611    4.729686   -0.860975
     88          1           0       -2.640368    0.640643   -0.011450
     89          1           0        6.561250   -1.740968   -0.109960
     90          1           0        8.493426   -1.586229   -0.439272
     91          1           0        7.789607   -1.640365    1.277619
     92          1           0        6.380383    1.970196   -0.130491
     93          1           0       -0.622054    2.971279   -0.377798
     94          1           0        4.871010   -0.941317    0.215719
     95          1           0       -0.072836    0.050630    0.401175
     96          1           0        3.998552    1.965882   -0.486860
     97          1           0        1.731195    2.382021   -0.471408
     98          1           0        1.168088   -1.441144   -0.085572
     99          1           0        3.060140   -1.448855   -0.232119
    100          1           0        2.270754   -1.180092    1.425777
 ---------------------------------------------------------------------

 SCF Done:  E(RCAM-B3LYP) =  -1857.33163684     A.U. after   16 cycles

 Excitation energies and oscillator strengths:

 Excited State   1:      Singlet-A      2.0590 eV  602.15 nm  f=2.5593  <S**2>=0.000
     163 ->166        -0.11777
     164 ->165         0.70291
     164 <-165        -0.11648
 This state for optimization and/or second-order correction.
 Total Energy, E(TD-HF/TD-DFT) =  -1857.25596894
 Copying the excited state density for this state as the 1-particle RhoCI density.

 The electronic state is 1-A.
 Alpha  occ. eigenvalues --  -19.23314 -19.22466 -19.22022 -19.19748 -10.32152
 Alpha  occ. eigenvalues --  -10.32005 -10.31848 -10.30791 -10.29709 -10.28805
 Alpha  occ. eigenvalues --  -10.28376 -10.28228 -10.28057 -10.28020 -10.27871
 Alpha  occ. eigenvalues --  -10.27798 -10.27569 -10.27396 -10.27307 -10.27297
 Alpha  occ. eigenvalues --  -10.27293 -10.27232 -10.27185 -10.27153 -10.27137
 Alpha  occ. eigenvalues --  -10.27094 -10.27041 -10.26678 -10.26642 -10.26637
 Alpha  occ. eigenvalues --  -10.26592 -10.26566 -10.26234 -10.26054 -10.25704
 Alpha  occ. eigenvalues --  -10.25588 -10.25437 -10.25424 -10.25273 -10.25075
 Alpha  occ. eigenvalues --  -10.25030 -10.23956 -10.23371 -10.21338  -1.17639
 Alpha  occ. eigenvalues --   -1.09515  -1.09340  -1.07412  -0.93968  -0.92674
 Alpha  occ. eigenvalues --   -0.92376  -0.91362  -0.91011  -0.90345  -0.87400
 Alpha  occ. eigenvalues --   -0.87117  -0.86025  -0.85205  -0.84412  -0.83419
 Alpha  occ. eigenvalues --   -0.82246  -0.81335  -0.80724  -0.78151  -0.77806
 Alpha  occ. eigenvalues --   -0.77427  -0.76822  -0.76546  -0.76006  -0.75796
 Alpha  occ. eigenvalues --   -0.74982  -0.74331  -0.73410  -0.70667  -0.70270
 Alpha  occ. eigenvalues --   -0.68260  -0.66590  -0.65289  -0.64936  -0.63865
 Alpha  occ. eigenvalues --   -0.63095  -0.61545  -0.60000  -0.59727  -0.59696
 Alpha  occ. eigenvalues --   -0.59197  -0.58604  -0.58325  -0.57323  -0.56414
 Alpha  occ. eigenvalues --   -0.56060  -0.55525  -0.55072  -0.54885  -0.54775
 Alpha  occ. eigenvalues --   -0.53795  -0.53230  -0.53020  -0.52500  -0.52135
 Alpha  occ. eigenvalues --   -0.51517  -0.51245  -0.50967  -0.50487  -0.49788
 Alpha  occ. eigenvalues --   -0.49352  -0.48806  -0.48673  -0.48279  -0.48143
 Alpha  occ. eigenvalues --   -0.47824  -0.47568  -0.47359  -0.47211  -0.46807
 Alpha  occ. eigenvalues --   -0.46510  -0.46368  -0.46297  -0.46210  -0.45719
 Alpha  occ. eigenvalues --   -0.45249  -0.45154  -0.44854  -0.44584  -0.44265
 Alpha  occ. eigenvalues --   -0.44044  -0.43490  -0.43303  -0.43205  -0.42856
 Alpha  occ. eigenvalues --   -0.42823  -0.42353  -0.42188  -0.42079  -0.41957
 Alpha  occ. eigenvalues --   -0.41713  -0.41149  -0.40647  -0.40310  -0.40268
 Alpha  occ. eigenvalues --   -0.39644  -0.39458  -0.39275  -0.38829  -0.38569
 Alpha  occ. eigenvalues --   -0.37962  -0.37864  -0.37709  -0.37392  -0.37205
 Alpha  occ. eigenvalues --   -0.37010  -0.35450  -0.34933  -0.34487  -0.33719
 Alpha  occ. eigenvalues --   -0.32860  -0.32335  -0.32170  -0.31826  -0.30915
 Alpha  occ. eigenvalues --   -0.29684  -0.27922  -0.24408  -0.19523
 Alpha virt. eigenvalues --   -0.06515  -0.00804   0.03007   0.05053   0.06923
 Alpha virt. eigenvalues --    0.09328   0.09655   0.10191   0.11519   0.11598
 Alpha virt. eigenvalues --    0.11912   0.12670   0.12739   0.13154   0.13940

 Mulliken charges:
               1
     1  O   -0.483308
     2  O   -0.537127
     3  O   -0.580162
     4  O   -0.546178
     5  C    0.190357
     6  C    0.243041
     7  C    0.006018
     8  C   -0.215551
     9  C   -0.175528
    10  C    0.144078
    11  C   -0.348782
    12  C   -0.101566
    13  C   -0.296647
    14  C   -0.310824
    15  C   -0.105506
    16  C    0.050921
    17  C   -0.363636
    18  C   -0.086911
    19  C   -0.054336
    20  C   -0.008098
    21  C    0.233766
    22  C   -0.218199
    23  C    0.161110
    24  C   -0.182264
    25  C   -0.082193
    26  C   -0.265102
    27  C   -0.299900
    28  C   -0.282436
    29  C   -0.160189
    30  C    0.136664
    31  C    0.127607
    32  C   -0.274182
    33  C   -0.367286
    34  C   -0.092723
    35  C    0.126268
    36  C   -0.366429
    37  C   -0.126719
    38  C   -0.088494
    39  C   -0.089902
    40  C   -0.103361
    41  C   -0.097192
    42  C   -0.115543
    43  C    0.112392
    44  C   -0.365614
    45  H    0.106704
    46  H    0.114878
    47  H    0.053665
    48  H    0.098580
    49  H    0.097877
    50  H    0.118807
    51  H    0.103709
    52  H    0.112957
    53  H    0.097033
    54  H    0.127604
    55  H    0.110901
    56  H    0.094409
    57  H    0.139355
    58  H    0.074001
    59  H    0.098881
    60  H    0.305863
    61  H    0.080272
    62  H    0.117622
    63  H    0.132665
    64  H    0.110447
    65  H    0.079081
    66  H    0.094113
    67  H    0.083632
    68  H    0.103825
    69  H    0.093152
    70  H    0.109097
    71  H    0.111225
    72  H    0.093076
    73  H    0.109133
    74  H    0.088201
    75  H    0.123946
    76  H    0.117960
    77  H    0.089735
    78  H    0.122356
    79  H    0.092241
    80  H    0.119433
    81  H    0.098556
    82  H    0.295998
    83  H    0.311287
    84  H    0.117173
    85  H    0.092176
    86  H    0.126407
    87  H    0.089662
    88  H    0.076863
    89  H    0.109493
    90  H    0.135022
    91  H    0.088246
    92  H    0.066886
    93  H    0.078289
    94  H    0.093847
    95  H    0.057878
    96  H    0.089080
    97  H    0.059727
    98  H    0.123324
    99  H    0.111824
   100  H    0.111492
 Sum of Mulliken charges =  -0.00000

 Dipole moment (field-independent basis, Debye):
    X=              4.2640    Y=              0.2193    Z=              2.9729  Tot=              5.2026
 Quadrupole moment (field-independent basis, Debye-Ang):
   XX=           -264.3379   YY=           -265.6763   ZZ=           -277.4722
   XY=             -7.9574   XZ=             31.2547   YZ=             -2.3475

 Normal termination of Gaussian 16 at Tue Jul 30 04:40:19 2019.
