 Gaussian 16, Revision A.03,
 Gaussian 16:  ES64L-G16RevA.03 25-Dec-2016

 -------------------------------------
 # td=(NStates=1) CAM-B3LYP/6-31G(d,p)
 -------------------------------------

 --
 TD
 --
 Symbolic Z-matrix:
 Charge =  0 Multiplicity = 1

                         Standard orientation:
 ---------------------------------------------------------------------
 Center     Atomic      Atomic             Coordinates (Angstroms)
 Number     Number       Type             X           Y           Z
 ---------------------------------------------------------------------
      1          8           0      -11.591216    0.194193   -1.626959
      2          8           0      -13.047349   -2.420360    1.426108
      3          8           0       10.612004   -0.887696   -2.152360
      4          8           0       14.472147   -1.029152   -0.140491
      5          6           0      -11.028640   -0.129580   -0.375851
      6          6           0      -11.521964   -1.248081   -1.286164
      7          6           0      -11.900659    0.384676    0.795705
      8          6           0      -12.823363   -1.906252   -0.974564
      9          6           0      -13.362129   -0.064308    0.682744
     10          6           0      -13.517181   -1.541854    0.384474
     11          6           0      -10.507942   -2.012440   -2.084397
     12          6           0       -9.538889    0.205741   -0.206939
     13          6           0      -11.186935   -0.018019    2.189051
     14          6           0      -11.730054    1.896300    0.791698
     15          6           0       -8.646853   -0.717789    0.268702
     16          6           0       -7.125705   -0.529602    0.330807
     17          6           0       -6.355621   -1.808692    0.606357
     18          6           0       -6.631050    0.662908   -0.095635
     19          6           0       -5.157462    0.943380    0.036737
     20          6           0       11.915444   -0.113468    1.313500
     21          6           0       11.653695   -0.498149   -1.301632
     22          6           0       12.624919   -1.377426    1.478557
     23          6           0       13.379371   -1.815009    0.134940
     24          6           0       12.386501   -1.794312   -1.016293
     25          6           0       11.057546    0.042431   -0.018007
     26          6           0       10.890984    0.073343    2.475577
     27          6           0       12.874721    1.160253    1.452254
     28          6           0       12.634764    0.583448   -1.958117
     29          6           0       -4.719284    2.228027   -0.342349
     30          6           0        9.868009    0.464362    0.039879
     31          6           0       -3.303891    2.596969   -0.400011
     32          6           0        8.596784    0.880481   -0.078409
     33          6           0       -3.082833    4.029576   -0.577562
     34          6           0       -2.379297    1.589633   -0.254327
     35          6           0        7.397328    0.097661    0.004456
     36          6           0        7.505010   -1.370184    0.268673
     37          6           0        6.187832    0.788468   -0.210723
     38          6           0       -0.993817    1.861785   -0.160246
     39          6           0        4.927497    0.149906   -0.118674
     40          6           0        0.058115    1.003942   -0.041995
     41          6           0        3.756808    0.803075   -0.186970
     42          6           0        1.410709    1.227026   -0.048556
     43          6           0        2.485283    0.352930   -0.000759
     44          6           0        2.246692   -1.141364    0.216844
     45          1           0      -12.788996   -3.048012   -1.113414
     46          1           0      -13.721152   -1.761945   -2.018275
     47          1           0      -13.870537    0.138211    1.550900
     48          1           0      -13.811160    0.280237   -0.073062
     49          1           0      -14.435812   -1.793536    0.274453
     50          1           0      -10.196739   -3.112807   -1.612588
     51          1           0      -11.023057   -2.111116   -2.962741
     52          1           0       -9.483449   -1.596975   -2.487961
     53          1           0       -9.160953    1.259287   -0.703801
     54          1           0       -9.908050    0.129846    2.127700
     55          1           0      -11.815407    0.516230    2.882540
     56          1           0      -11.187678   -1.271455    2.373343
     57          1           0      -12.301577    2.138195   -0.056857
     58          1           0      -12.220032    2.338257    1.710329
     59          1           0      -10.633487    2.166286    0.741283
     60          1           0      -12.255502   -2.826494    0.951513
     61          1           0       -8.977833   -1.532375    0.793777
     62          1           0       -5.522911   -1.832123   -0.012241
     63          1           0       -5.739109   -1.433708    1.462332
     64          1           0       -7.111378   -2.755428    0.720075
     65          1           0       -7.212352    1.497765   -0.360371
     66          1           0       -4.468512    0.148916    0.271701
     67          1           0       13.227688   -1.200598    2.351033
     68          1           0       11.964601   -2.179550    1.659059
     69          1           0       13.565950   -2.798122    0.281475
     70          1           0       12.965910   -2.162955   -1.852322
     71          1           0       11.605728   -2.574883   -0.926732
     72          1           0       11.449431   -0.199657    3.387133
     73          1           0       10.486275    1.172292    2.506364
     74          1           0       10.143372   -0.562619    2.442239
     75          1           0       13.587612    0.996306    0.764738
     76          1           0       12.277219    1.973889    1.546061
     77          1           0       13.306172    1.080620    2.361888
     78          1           0       13.036635    0.170073   -2.755834
     79          1           0       12.125226    1.533026   -2.496552
     80          1           0       13.431351    0.740707   -1.149459
     81          1           0       -5.468340    2.984708   -0.423745
     82          1           0        9.703946   -0.325916   -1.754583
     83          1           0       15.026947   -1.158942    0.601916
     84          1           0        8.339077    2.056513   -0.275687
     85          1           0       -2.471138    4.685626    0.253089
     86          1           0       -2.495076    4.179664   -1.484679
     87          1           0       -3.862369    4.720466   -1.003640
     88          1           0       -2.546644    0.589623   -0.153741
     89          1           0        6.663668   -2.045007    0.530487
     90          1           0        8.276461   -1.838621   -0.519976
     91          1           0        8.041904   -1.341171    1.298982
     92          1           0        6.052213    1.739795   -0.224661
     93          1           0       -0.778377    2.806413   -0.384803
     94          1           0        4.725817   -0.851529    0.182621
     95          1           0       -0.380911   -0.058736    0.050247
     96          1           0        3.766502    1.907043   -0.452781
     97          1           0        1.731816    2.382424   -0.068853
     98          1           0        1.153495   -1.234392    0.654554
     99          1           0        2.385370   -1.732401   -0.867863
    100          1           0        3.176803   -1.485979    1.018344
 ---------------------------------------------------------------------

 SCF Done:  E(RCAM-B3LYP) =  -1857.20673432     A.U. after   15 cycles

 Excitation energies and oscillator strengths:

 Excited State   1:      Singlet-A      2.2843 eV  542.77 nm  f=3.1575  <S**2>=0.000
     163 ->166        -0.15173
     164 ->165         0.68787
 This state for optimization and/or second-order correction.
 Total Energy, E(TD-HF/TD-DFT) =  -1857.12278894
 Copying the excited state density for this state as the 1-particle RhoCI density.

 The electronic state is 1-A.
 Alpha  occ. eigenvalues --  -19.22880 -19.22714 -19.21504 -19.19724 -10.33319
 Alpha  occ. eigenvalues --  -10.32010 -10.30915 -10.30340 -10.30118 -10.29917
 Alpha  occ. eigenvalues --  -10.29355 -10.29087 -10.28621 -10.28239 -10.28208
 Alpha  occ. eigenvalues --  -10.28073 -10.27596 -10.27550 -10.27484 -10.27340
 Alpha  occ. eigenvalues --  -10.27244 -10.27226 -10.27172 -10.26976 -10.26862
 Alpha  occ. eigenvalues --  -10.26823 -10.26644 -10.26603 -10.26573 -10.26400
 Alpha  occ. eigenvalues --  -10.26339 -10.26050 -10.25644 -10.25560 -10.25372
 Alpha  occ. eigenvalues --  -10.25254 -10.25004 -10.24867 -10.24305 -10.24077
 Alpha  occ. eigenvalues --  -10.23959 -10.23526 -10.23151 -10.21991  -1.14753
 Alpha  occ. eigenvalues --   -1.13456  -1.08929  -1.06906  -0.93147  -0.92768
 Alpha  occ. eigenvalues --   -0.92168  -0.91082  -0.90738  -0.90202  -0.87810
 Alpha  occ. eigenvalues --   -0.87049  -0.86033  -0.85443  -0.84788  -0.83493
 Alpha  occ. eigenvalues --   -0.82413  -0.81294  -0.80265  -0.79005  -0.77498
 Alpha  occ. eigenvalues --   -0.77148  -0.76681  -0.76347  -0.76036  -0.75331
 Alpha  occ. eigenvalues --   -0.73951  -0.73349  -0.72549  -0.70778  -0.70478
 Alpha  occ. eigenvalues --   -0.69180  -0.67177  -0.65294  -0.64887  -0.64393
 Alpha  occ. eigenvalues --   -0.63785  -0.62808  -0.62434  -0.61489  -0.60107
 Alpha  occ. eigenvalues --   -0.59433  -0.58490  -0.57968  -0.57035  -0.56687
 Alpha  occ. eigenvalues --   -0.55727  -0.55462  -0.55041  -0.54927  -0.54842
 Alpha  occ. eigenvalues --   -0.53896  -0.53168  -0.53002  -0.52533  -0.52125
 Alpha  occ. eigenvalues --   -0.51431  -0.51232  -0.50414  -0.50298  -0.49627
 Alpha  occ. eigenvalues --   -0.49292  -0.48709  -0.48383  -0.48021  -0.47921
 Alpha  occ. eigenvalues --   -0.47868  -0.47791  -0.47454  -0.47112  -0.46983
 Alpha  occ. eigenvalues --   -0.46869  -0.46596  -0.46309  -0.45954  -0.45662
 Alpha  occ. eigenvalues --   -0.45442  -0.44958  -0.44555  -0.44276  -0.44062
 Alpha  occ. eigenvalues --   -0.43925  -0.43805  -0.43671  -0.43375  -0.42869
 Alpha  occ. eigenvalues --   -0.42572  -0.42476  -0.41703  -0.41527  -0.41489
 Alpha  occ. eigenvalues --   -0.40950  -0.40664  -0.40393  -0.40057  -0.39917
 Alpha  occ. eigenvalues --   -0.39598  -0.39256  -0.38939  -0.38702  -0.38546
 Alpha  occ. eigenvalues --   -0.38221  -0.37832  -0.37454  -0.37368  -0.37287
 Alpha  occ. eigenvalues --   -0.36234  -0.35971  -0.35136  -0.34061  -0.33490
 Alpha  occ. eigenvalues --   -0.32289  -0.32177  -0.31814  -0.31151  -0.30675
 Alpha  occ. eigenvalues --   -0.29888  -0.27872  -0.24517  -0.19990
 Alpha virt. eigenvalues --   -0.05763  -0.00940   0.02618   0.05950   0.06749
 Alpha virt. eigenvalues --    0.07393   0.10257   0.10469   0.11070   0.11366
 Alpha virt. eigenvalues --    0.11810   0.12178   0.12581   0.12979   0.13498

 Mulliken charges:
               1
     1  O   -0.507355
     2  O   -0.548071
     3  O   -0.607742
     4  O   -0.514110
     5  C    0.227966
     6  C    0.263225
     7  C    0.000767
     8  C   -0.278176
     9  C   -0.159535
    10  C    0.187500
    11  C   -0.327363
    12  C   -0.122490
    13  C   -0.282356
    14  C   -0.294202
    15  C   -0.088307
    16  C    0.067104
    17  C   -0.371053
    18  C   -0.098028
    19  C   -0.074534
    20  C   -0.016918
    21  C    0.289870
    22  C   -0.204216
    23  C    0.141270
    24  C   -0.203530
    25  C   -0.083050
    26  C   -0.297067
    27  C   -0.285091
    28  C   -0.296053
    29  C   -0.136977
    30  C    0.137942
    31  C    0.120618
    32  C   -0.293434
    33  C   -0.401245
    34  C   -0.095633
    35  C    0.137284
    36  C   -0.371494
    37  C   -0.085641
    38  C   -0.069621
    39  C   -0.080854
    40  C   -0.087617
    41  C   -0.105694
    42  C   -0.132974
    43  C    0.134348
    44  C   -0.343465
    45  H    0.113323
    46  H    0.063951
    47  H    0.105373
    48  H    0.113376
    49  H    0.097176
    50  H    0.077184
    51  H    0.129379
    52  H    0.129091
    53  H    0.102510
    54  H    0.085998
    55  H    0.101645
    56  H    0.067618
    57  H    0.118828
    58  H    0.090156
    59  H    0.102439
    60  H    0.306305
    61  H    0.082197
    62  H    0.141701
    63  H    0.130044
    64  H    0.113329
    65  H    0.082599
    66  H    0.080632
    67  H    0.086456
    68  H    0.099392
    69  H    0.086270
    70  H    0.115091
    71  H    0.110865
    72  H    0.080594
    73  H    0.094585
    74  H    0.111685
    75  H    0.119302
    76  H    0.109906
    77  H    0.092947
    78  H    0.120115
    79  H    0.078117
    80  H    0.117805
    81  H    0.088040
    82  H    0.304167
    83  H    0.308498
    84  H    0.107167
    85  H    0.113007
    86  H    0.130819
    87  H    0.118539
    88  H    0.071294
    89  H    0.124721
    90  H    0.119216
    91  H    0.116930
    92  H    0.070031
    93  H    0.061378
    94  H    0.063117
    95  H    0.059807
    96  H    0.064133
    97  H    0.071940
    98  H    0.108585
    99  H    0.109078
   100  H    0.087548
 Sum of Mulliken charges =  -0.00000

 Dipole moment (field-independent basis, Debye):
    X=              0.9348    Y=             -1.4559    Z=              2.0327  Tot=              2.6694
 Quadrupole moment (field-independent basis, Debye-Ang):
   XX=           -267.6489   YY=           -253.6875   ZZ=           -285.3613
   XY=             -3.2401   XZ=             52.8789   YZ=             -1.5305

 Normal termination of Gaussian 16 at Thu Aug  1 13:12:32 2019.
