 Gaussian 16, Revision A.03,
 Gaussian 16:  ES64L-G16RevA.03 25-Dec-2016

 -------------------------------------
 # td=(NStates=1) CAM-B3LYP/6-31G(d,p)
 -------------------------------------

 --
 TD
 --
 Symbolic Z-matrix:
 Charge =  0 Multiplicity = 1

                         Standard orientation:
 ---------------------------------------------------------------------
 Center     Atomic      Atomic             Coordinates (Angstroms)
 Number     Number       Type             X           Y           Z
 ---------------------------------------------------------------------
      1          8           0      -11.687148    0.093012   -1.575572
      2          8           0      -12.823147   -2.488979    1.601121
      3          8           0       10.563166   -1.217788   -1.994721
      4          8           0       14.564668   -1.037647   -0.065685
      5          6           0      -11.037706   -0.129395   -0.392237
      6          6           0      -11.680243   -1.238672   -1.114913
      7          6           0      -11.732317    0.451314    0.901679
      8          6           0      -12.970028   -1.854276   -0.745798
      9          6           0      -13.289272   -0.079363    0.903682
     10          6           0      -13.351909   -1.609152    0.701779
     11          6           0      -10.746053   -2.159533   -1.914473
     12          6           0       -9.526166    0.237032   -0.454546
     13          6           0      -11.016944    0.021455    2.156075
     14          6           0      -11.790500    2.004926    0.937787
     15          6           0       -8.667526   -0.724990    0.019425
     16          6           0       -7.206823   -0.522298   -0.005310
     17          6           0       -6.331375   -1.730639    0.112725
     18          6           0       -6.689244    0.706033   -0.149057
     19          6           0       -5.253085    0.945475   -0.265391
     20          6           0       11.892457    0.153009    1.308872
     21          6           0       11.667394   -0.770717   -1.179037
     22          6           0       12.738829   -1.173640    1.679830
     23          6           0       13.441190   -1.783340    0.442578
     24          6           0       12.453598   -1.976404   -0.626742
     25          6           0       11.185362    0.002514    0.055401
     26          6           0       10.828277    0.374331    2.398352
     27          6           0       12.899963    1.343125    1.183421
     28          6           0       12.369544    0.264184   -2.083124
     29          6           0       -4.708096    2.202220   -0.346096
     30          6           0        9.868791    0.442380   -0.016416
     31          6           0       -3.379869    2.531032   -0.458432
     32          6           0        8.567425    0.920010   -0.232031
     33          6           0       -2.994847    4.002040   -0.724080
     34          6           0       -2.373046    1.685808   -0.184311
     35          6           0        7.447937    0.077365   -0.095441
     36          6           0        7.501178   -1.372435    0.119266
     37          6           0        6.189989    0.785595   -0.124921
     38          6           0       -0.961826    1.956745   -0.346488
     39          6           0        4.914079    0.253611    0.017251
     40          6           0       -0.001311    0.998818   -0.037964
     41          6           0        3.694666    0.847008   -0.230692
     42          6           0        1.401744    1.220847   -0.182382
     43          6           0        2.464422    0.326742   -0.036355
     44          6           0        2.351870   -1.135304    0.236959
     45          1           0      -12.890013   -2.944035   -1.019172
     46          1           0      -13.650271   -1.681680   -1.429844
     47          1           0      -13.591294    0.073381    1.979984
     48          1           0      -13.814029    0.398669    0.068852
     49          1           0      -14.431265   -1.663306    0.739572
     50          1           0      -10.435375   -3.083307   -1.435573
     51          1           0      -11.459894   -2.541915   -2.941387
     52          1           0       -9.816667   -1.653509   -2.131885
     53          1           0       -9.250458    1.305248   -1.027672
     54          1           0       -9.920617    0.336290    2.277337
     55          1           0      -11.656361    0.050746    3.155484
     56          1           0      -10.971680   -1.156757    2.118681
     57          1           0      -12.158754    2.401046   -0.168652
     58          1           0      -12.239037    2.345028    1.838698
     59          1           0      -10.854724    2.251795    0.896836
     60          1           0      -11.742875   -2.436709    1.498041
     61          1           0       -9.103956   -1.836936    0.528301
     62          1           0       -6.017424   -2.183564   -0.849594
     63          1           0       -5.507623   -1.611767    0.799488
     64          1           0       -6.935332   -2.579873    0.623084
     65          1           0       -7.314062    1.636968   -0.193708
     66          1           0       -4.394335    0.197322   -0.334194
     67          1           0       13.509566   -0.912668    2.282248
     68          1           0       12.122702   -1.933426    2.149769
     69          1           0       13.831633   -2.801743    0.598720
     70          1           0       12.622313   -2.324244   -1.485193
     71          1           0       11.650572   -2.840431   -0.338291
     72          1           0       11.438816    0.436898    3.343038
     73          1           0       10.229838    1.314462    2.411504
     74          1           0       10.088982   -0.374234    2.447360
     75          1           0       13.751303    1.059408    0.495573
     76          1           0       12.374431    2.400157    0.994876
     77          1           0       13.401009    1.640022    2.101501
     78          1           0       12.597302   -0.237279   -3.021879
     79          1           0       11.540683    1.008014   -2.101567
     80          1           0       13.210509    0.625874   -1.484014
     81          1           0       -5.381800    3.115843   -0.477015
     82          1           0        9.865510   -0.459385   -2.139171
     83          1           0       15.163907   -0.799687    0.694464
     84          1           0        8.507513    1.859208   -0.572075
     85          1           0       -2.313388    4.328164    0.127633
     86          1           0       -2.661094    4.066855   -1.795518
     87          1           0       -3.984065    4.608984   -0.709317
     88          1           0       -2.638817    0.639992    0.075123
     89          1           0        6.500584   -1.844163   -0.185068
     90          1           0        8.199072   -1.790612   -0.454422
     91          1           0        7.441551   -1.841315    1.310135
     92          1           0        6.216459    1.679182   -0.387166
     93          1           0       -0.396462    2.802459   -0.710484
     94          1           0        4.934072   -0.756900    0.468089
     95          1           0       -0.382546    0.040923    0.273585
     96          1           0        3.670608    1.997725   -0.436335
     97          1           0        1.767512    2.346670   -0.419578
     98          1           0        1.388362   -1.453402    0.739817
     99          1           0        2.721228   -1.523982   -0.785568
    100          1           0        3.204698   -1.450073    0.902330
 ---------------------------------------------------------------------

 SCF Done:  E(RCAM-B3LYP) =  -1857.27970767     A.U. after   15 cycles

 Excitation energies and oscillator strengths:

 Excited State   1:      Singlet-A      2.2022 eV  562.99 nm  f=3.3908  <S**2>=0.000
     163 ->166        -0.15303
     164 ->165         0.68861
 This state for optimization and/or second-order correction.
 Total Energy, E(TD-HF/TD-DFT) =  -1857.19877714
 Copying the excited state density for this state as the 1-particle RhoCI density.

 The electronic state is 1-A.
 Alpha  occ. eigenvalues --  -19.22917 -19.22884 -19.22549 -19.20756 -10.31958
 Alpha  occ. eigenvalues --  -10.31864 -10.31817 -10.31446 -10.29835 -10.29476
 Alpha  occ. eigenvalues --  -10.28762 -10.28741 -10.28032 -10.27944 -10.27507
 Alpha  occ. eigenvalues --  -10.27481 -10.27322 -10.27151 -10.27097 -10.27096
 Alpha  occ. eigenvalues --  -10.27039 -10.26962 -10.26952 -10.26861 -10.26797
 Alpha  occ. eigenvalues --  -10.26624 -10.26552 -10.26458 -10.26384 -10.26251
 Alpha  occ. eigenvalues --  -10.26243 -10.26191 -10.26183 -10.26182 -10.26159
 Alpha  occ. eigenvalues --  -10.26139 -10.25854 -10.25450 -10.24661 -10.24628
 Alpha  occ. eigenvalues --  -10.24338 -10.24115 -10.23896 -10.23795  -1.18323
 Alpha  occ. eigenvalues --   -1.10135  -1.09934  -1.07506  -0.93377  -0.92846
 Alpha  occ. eigenvalues --   -0.92436  -0.91155  -0.90788  -0.89679  -0.87447
 Alpha  occ. eigenvalues --   -0.87193  -0.86771  -0.84869  -0.84162  -0.83277
 Alpha  occ. eigenvalues --   -0.81794  -0.80444  -0.79890  -0.77995  -0.77544
 Alpha  occ. eigenvalues --   -0.76966  -0.76491  -0.76247  -0.76101  -0.75883
 Alpha  occ. eigenvalues --   -0.75579  -0.73658  -0.72749  -0.70516  -0.69762
 Alpha  occ. eigenvalues --   -0.68597  -0.66936  -0.65560  -0.65226  -0.63837
 Alpha  occ. eigenvalues --   -0.63477  -0.61930  -0.61315  -0.60351  -0.59675
 Alpha  occ. eigenvalues --   -0.58860  -0.58569  -0.57728  -0.57408  -0.56829
 Alpha  occ. eigenvalues --   -0.55684  -0.55144  -0.54765  -0.54519  -0.54316
 Alpha  occ. eigenvalues --   -0.54070  -0.53484  -0.53378  -0.53221  -0.51730
 Alpha  occ. eigenvalues --   -0.51035  -0.50936  -0.50501  -0.49986  -0.49526
 Alpha  occ. eigenvalues --   -0.49437  -0.49325  -0.49225  -0.48872  -0.48656
 Alpha  occ. eigenvalues --   -0.48466  -0.48432  -0.47687  -0.47575  -0.47093
 Alpha  occ. eigenvalues --   -0.46867  -0.45788  -0.45645  -0.45374  -0.45334
 Alpha  occ. eigenvalues --   -0.44822  -0.44614  -0.44399  -0.43863  -0.43561
 Alpha  occ. eigenvalues --   -0.43419  -0.43106  -0.42807  -0.42572  -0.42464
 Alpha  occ. eigenvalues --   -0.42444  -0.42236  -0.42121  -0.41836  -0.41124
 Alpha  occ. eigenvalues --   -0.40938  -0.40820  -0.40514  -0.40437  -0.40192
 Alpha  occ. eigenvalues --   -0.40016  -0.39865  -0.39805  -0.38981  -0.38903
 Alpha  occ. eigenvalues --   -0.38733  -0.38251  -0.37876  -0.37390  -0.37331
 Alpha  occ. eigenvalues --   -0.36408  -0.35951  -0.34712  -0.34587  -0.33438
 Alpha  occ. eigenvalues --   -0.32976  -0.31744  -0.31664  -0.31395  -0.30706
 Alpha  occ. eigenvalues --   -0.28605  -0.27988  -0.24023  -0.19526
 Alpha virt. eigenvalues --   -0.05859  -0.01309   0.03089   0.05927   0.06282
 Alpha virt. eigenvalues --    0.06625   0.09588   0.09814   0.10829   0.11727
 Alpha virt. eigenvalues --    0.12315   0.12576   0.13060   0.13517   0.13875

 Mulliken charges:
               1
     1  O   -0.485169
     2  O   -0.533142
     3  O   -0.592348
     4  O   -0.552765
     5  C    0.203201
     6  C    0.237011
     7  C    0.016501
     8  C   -0.219947
     9  C   -0.204250
    10  C    0.165930
    11  C   -0.310480
    12  C   -0.120356
    13  C   -0.292316
    14  C   -0.289980
    15  C   -0.088275
    16  C    0.092475
    17  C   -0.374083
    18  C   -0.109280
    19  C   -0.082255
    20  C    0.011805
    21  C    0.226147
    22  C   -0.192818
    23  C    0.146779
    24  C   -0.161708
    25  C   -0.002537
    26  C   -0.314142
    27  C   -0.323665
    28  C   -0.263832
    29  C   -0.112314
    30  C    0.027551
    31  C    0.099785
    32  C   -0.237934
    33  C   -0.361471
    34  C   -0.136688
    35  C    0.118657
    36  C   -0.360115
    37  C   -0.063034
    38  C   -0.076901
    39  C   -0.109229
    40  C   -0.080914
    41  C   -0.121647
    42  C   -0.163303
    43  C    0.164173
    44  C   -0.373643
    45  H    0.099015
    46  H    0.124736
    47  H    0.093135
    48  H    0.118285
    49  H    0.097018
    50  H    0.106184
    51  H    0.062028
    52  H    0.124325
    53  H    0.120323
    54  H    0.118562
    55  H    0.103496
    56  H    0.031389
    57  H    0.085085
    58  H    0.110417
    59  H    0.107033
    60  H    0.309113
    61  H    0.072071
    62  H    0.130528
    63  H    0.127312
    64  H    0.089781
    65  H    0.088613
    66  H    0.088380
    67  H    0.091688
    68  H    0.115098
    69  H    0.093327
    70  H    0.113733
    71  H    0.093012
    72  H    0.080410
    73  H    0.113053
    74  H    0.122376
    75  H    0.120093
    76  H    0.093627
    77  H    0.097087
    78  H    0.112661
    79  H    0.084234
    80  H    0.115996
    81  H    0.068659
    82  H    0.312959
    83  H    0.310345
    84  H    0.111496
    85  H    0.129297
    86  H    0.128121
    87  H    0.091489
    88  H    0.076972
    89  H    0.105515
    90  H    0.139320
    91  H    0.085154
    92  H    0.043849
    93  H    0.088227
    94  H    0.069596
    95  H    0.075511
    96  H    0.072672
    97  H    0.071027
    98  H    0.114467
    99  H    0.133252
   100  H    0.119380
 Sum of Mulliken charges =  -0.00000

 Dipole moment (field-independent basis, Debye):
    X=              3.3377    Y=             -0.1087    Z=              2.4159  Tot=              4.1217
 Quadrupole moment (field-independent basis, Debye-Ang):
   XX=           -273.2685   YY=           -263.2317   ZZ=           -279.2037
   XY=             -0.7229   XZ=             33.8490   YZ=             -3.3741

 Normal termination of Gaussian 16 at Wed Jul 31 01:50:40 2019.
