 Gaussian 16, Revision A.03,
 Gaussian 16:  ES64L-G16RevA.03 25-Dec-2016

 -------------------------------------
 # td=(NStates=1) CAM-B3LYP/6-31G(d,p)
 -------------------------------------

 --
 TD
 --
 Symbolic Z-matrix:
 Charge =  0 Multiplicity = 1

                         Standard orientation:
 ---------------------------------------------------------------------
 Center     Atomic      Atomic             Coordinates (Angstroms)
 Number     Number       Type             X           Y           Z
 ---------------------------------------------------------------------
      1          8           0      -11.572159   -0.128884   -1.663666
      2          8           0      -13.276187   -1.994337    1.678653
      3          8           0       10.594213   -1.242639   -2.093792
      4          8           0       14.478231   -1.021943   -0.029426
      5          6           0      -10.991909   -0.182330   -0.421491
      6          6           0      -11.587448   -1.375397   -1.095104
      7          6           0      -11.679299    0.562283    0.728737
      8          6           0      -13.014948   -1.834268   -0.720979
      9          6           0      -13.177185    0.239652    0.671085
     10          6           0      -13.532258   -1.246194    0.508867
     11          6           0      -10.790679   -2.471098   -1.796568
     12          6           0       -9.536651   -0.137642   -0.413739
     13          6           0      -10.978001    0.136849    2.081788
     14          6           0      -11.603629    2.080386    0.533002
     15          6           0       -8.646671   -0.834193    0.241158
     16          6           0       -7.167700   -0.663790    0.317913
     17          6           0       -6.291467   -1.731817    0.591434
     18          6           0       -6.652201    0.613494   -0.030839
     19          6           0       -5.218996    0.870422   -0.144144
     20          6           0       11.859930    0.221416    1.375591
     21          6           0       11.687164   -0.684336   -1.214824
     22          6           0       12.596927   -1.224637    1.650155
     23          6           0       13.340615   -1.649492    0.419685
     24          6           0       12.558168   -1.903973   -0.809736
     25          6           0       11.061503    0.033456    0.063057
     26          6           0       10.835824    0.443221    2.508170
     27          6           0       12.791756    1.369072    1.163576
     28          6           0       12.536406    0.249031   -2.056237
     29          6           0       -4.689441    2.152262   -0.332470
     30          6           0        9.842397    0.505270   -0.087848
     31          6           0       -3.334072    2.503088   -0.557663
     32          6           0        8.610965    0.937307   -0.303203
     33          6           0       -3.081339    3.986388   -0.806429
     34          6           0       -2.267756    1.565301   -0.298419
     35          6           0        7.413414    0.190270   -0.021025
     36          6           0        7.595307   -1.175455    0.335687
     37          6           0        6.227607    0.680507   -0.158149
     38          6           0       -0.921433    1.833694   -0.323519
     39          6           0        4.947065    0.098921   -0.014717
     40          6           0        0.003647    0.874523   -0.109067
     41          6           0        3.735262    0.714880   -0.154413
     42          6           0        1.357358    1.128504   -0.151948
     43          6           0        2.417189    0.220934   -0.094982
     44          6           0        2.326075   -1.170896    0.207450
     45          1           0      -12.778091   -3.005113   -0.546067
     46          1           0      -13.794050   -1.684696   -1.557935
     47          1           0      -13.692647    0.446616    1.620637
     48          1           0      -13.769380    0.833093   -0.071146
     49          1           0      -14.704153   -1.394689    0.481569
     50          1           0      -10.428331   -3.249325   -1.089247
     51          1           0      -11.398033   -2.948883   -2.601790
     52          1           0       -9.896558   -1.854872   -2.224874
     53          1           0       -9.087899    0.824306   -1.063140
     54          1           0       -9.947294    0.371659    1.913151
     55          1           0      -11.571833    0.603358    2.812739
     56          1           0      -11.018179   -0.876026    2.125572
     57          1           0      -12.160990    2.408890   -0.561499
     58          1           0      -11.860414    2.778204    1.401083
     59          1           0      -10.449998    2.425157    0.482629
     60          1           0      -12.145443   -2.183289    1.704967
     61          1           0       -9.107935   -1.668828    0.779168
     62          1           0       -5.848009   -2.147789   -0.415677
     63          1           0       -5.662407   -1.593669    1.521960
     64          1           0       -6.839605   -2.665943    0.922608
     65          1           0       -7.525327    1.351765   -0.193967
     66          1           0       -4.427883    0.086783    0.010224
     67          1           0       13.252914   -0.956320    2.391501
     68          1           0       12.006394   -1.973604    2.328015
     69          1           0       13.577353   -2.909121    0.626049
     70          1           0       13.167163   -2.309900   -1.666557
     71          1           0       11.703907   -2.741536   -0.551396
     72          1           0       10.879222    0.279964    3.723983
     73          1           0       10.245763    1.289084    2.247736
     74          1           0       10.021067   -0.373075    2.424721
     75          1           0       13.570513    1.116304    0.515036
     76          1           0       12.206934    2.254567    0.808054
     77          1           0       13.025949    1.739244    2.101488
     78          1           0       12.801051   -0.128100   -3.082805
     79          1           0       11.879335    1.073884   -2.344189
     80          1           0       13.511611    0.641203   -1.546820
     81          1           0       -5.286868    3.125203   -0.272979
     82          1           0       10.066530   -0.540641   -2.214416
     83          1           0       15.152894   -0.534122    0.677701
     84          1           0        8.498529    1.809611   -0.641889
     85          1           0       -2.837952    4.625811   -0.000756
     86          1           0       -2.249391    4.087857   -1.560860
     87          1           0       -3.917685    4.570190   -1.317018
     88          1           0       -2.340482    0.657452    0.018991
     89          1           0        6.694423   -1.824347    0.350388
     90          1           0        8.182026   -1.684058   -0.364791
     91          1           0        7.972164   -1.408153    1.288398
     92          1           0        6.228444    1.609883   -0.255331
     93          1           0       -0.465794    2.972162   -0.624742
     94          1           0        4.916402   -0.982471    0.201871
     95          1           0       -0.219972   -0.174869    0.077434
     96          1           0        3.991717    1.806194   -0.441910
     97          1           0        1.518420    2.221439   -0.352886
     98          1           0        1.246572   -1.562511    0.333371
     99          1           0        2.968679   -1.746929   -0.350409
    100          1           0        2.864868   -1.338252    1.210851
 ---------------------------------------------------------------------

 SCF Done:  E(RCAM-B3LYP) =  -1857.26558852     A.U. after   15 cycles

 Excitation energies and oscillator strengths:

 Excited State   1:      Singlet-A      2.1750 eV  570.03 nm  f=2.8789  <S**2>=0.000
     163 ->166        -0.12957
     164 ->165         0.69739
 This state for optimization and/or second-order correction.
 Total Energy, E(TD-HF/TD-DFT) =  -1857.18565692
 Copying the excited state density for this state as the 1-particle RhoCI density.

 The electronic state is 1-A.
 Alpha  occ. eigenvalues --  -19.24229 -19.22721 -19.22146 -19.19962 -10.32679
 Alpha  occ. eigenvalues --  -10.32408 -10.31904 -10.31788 -10.30180 -10.29459
 Alpha  occ. eigenvalues --  -10.28371 -10.27973 -10.27671 -10.27654 -10.27591
 Alpha  occ. eigenvalues --  -10.27555 -10.27485 -10.27416 -10.27351 -10.27011
 Alpha  occ. eigenvalues --  -10.26996 -10.26976 -10.26836 -10.26803 -10.26724
 Alpha  occ. eigenvalues --  -10.26385 -10.26297 -10.26262 -10.26261 -10.26208
 Alpha  occ. eigenvalues --  -10.26203 -10.26031 -10.25958 -10.25875 -10.25868
 Alpha  occ. eigenvalues --  -10.25739 -10.25628 -10.25607 -10.24877 -10.24796
 Alpha  occ. eigenvalues --  -10.24359 -10.23971 -10.23104 -10.22765  -1.19550
 Alpha  occ. eigenvalues --   -1.10847  -1.08819  -1.07409  -0.93896  -0.92996
 Alpha  occ. eigenvalues --   -0.92434  -0.92061  -0.91105  -0.90352  -0.88105
 Alpha  occ. eigenvalues --   -0.86379  -0.86291  -0.86035  -0.85115  -0.83475
 Alpha  occ. eigenvalues --   -0.82238  -0.81235  -0.80739  -0.80039  -0.78415
 Alpha  occ. eigenvalues --   -0.77260  -0.77002  -0.76429  -0.76217  -0.76071
 Alpha  occ. eigenvalues --   -0.75118  -0.74415  -0.73514  -0.69887  -0.69075
 Alpha  occ. eigenvalues --   -0.68387  -0.67012  -0.65024  -0.64680  -0.63705
 Alpha  occ. eigenvalues --   -0.62915  -0.62293  -0.61780  -0.61225  -0.59452
 Alpha  occ. eigenvalues --   -0.59109  -0.58838  -0.58162  -0.57581  -0.56662
 Alpha  occ. eigenvalues --   -0.56566  -0.56122  -0.55642  -0.55076  -0.54284
 Alpha  occ. eigenvalues --   -0.54035  -0.53677  -0.53403  -0.52229  -0.51547
 Alpha  occ. eigenvalues --   -0.51477  -0.50951  -0.50856  -0.50532  -0.50452
 Alpha  occ. eigenvalues --   -0.49795  -0.49575  -0.49370  -0.48946  -0.48480
 Alpha  occ. eigenvalues --   -0.48403  -0.48366  -0.47922  -0.47533  -0.47135
 Alpha  occ. eigenvalues --   -0.46974  -0.46209  -0.46164  -0.45551  -0.45349
 Alpha  occ. eigenvalues --   -0.45103  -0.44614  -0.44434  -0.43975  -0.43786
 Alpha  occ. eigenvalues --   -0.43514  -0.43329  -0.43229  -0.43033  -0.42566
 Alpha  occ. eigenvalues --   -0.42183  -0.41806  -0.41565  -0.41282  -0.41235
 Alpha  occ. eigenvalues --   -0.40813  -0.40729  -0.40409  -0.39958  -0.39847
 Alpha  occ. eigenvalues --   -0.39720  -0.39223  -0.39108  -0.38953  -0.38473
 Alpha  occ. eigenvalues --   -0.38378  -0.37981  -0.37805  -0.37595  -0.37580
 Alpha  occ. eigenvalues --   -0.37117  -0.35970  -0.34976  -0.34316  -0.33589
 Alpha  occ. eigenvalues --   -0.33030  -0.32111  -0.31803  -0.31115  -0.30963
 Alpha  occ. eigenvalues --   -0.29166  -0.28210  -0.24778  -0.19727
 Alpha virt. eigenvalues --   -0.06146  -0.00309   0.03358   0.06814   0.07027
 Alpha virt. eigenvalues --    0.07415   0.08037   0.10419   0.11321   0.11593
 Alpha virt. eigenvalues --    0.11840   0.12452   0.13016   0.13270   0.13711

 Mulliken charges:
               1
     1  O   -0.474125
     2  O   -0.542380
     3  O   -0.552086
     4  O   -0.547754
     5  C    0.235441
     6  C    0.206172
     7  C    0.004903
     8  C   -0.188497
     9  C   -0.177970
    10  C    0.154500
    11  C   -0.332111
    12  C   -0.116678
    13  C   -0.285944
    14  C   -0.297087
    15  C   -0.081695
    16  C    0.100293
    17  C   -0.397248
    18  C   -0.102817
    19  C   -0.105905
    20  C    0.009380
    21  C    0.223881
    22  C   -0.201247
    23  C    0.206857
    24  C   -0.163837
    25  C   -0.082933
    26  C   -0.341234
    27  C   -0.302079
    28  C   -0.297670
    29  C   -0.099846
    30  C    0.149728
    31  C    0.075564
    32  C   -0.257544
    33  C   -0.387698
    34  C   -0.080985
    35  C    0.163791
    36  C   -0.404192
    37  C   -0.088644
    38  C   -0.081754
    39  C   -0.083890
    40  C   -0.066239
    41  C   -0.119578
    42  C   -0.120857
    43  C    0.133336
    44  C   -0.393675
    45  H    0.080643
    46  H    0.110636
    47  H    0.106291
    48  H    0.101813
    49  H    0.078915
    50  H    0.106306
    51  H    0.118491
    52  H    0.116880
    53  H    0.078243
    54  H    0.126623
    55  H    0.118679
    56  H    0.066823
    57  H    0.096152
    58  H    0.109683
    59  H    0.072668
    60  H    0.284860
    61  H    0.066814
    62  H    0.128861
    63  H    0.128652
    64  H    0.100500
    65  H    0.088534
    66  H    0.101894
    67  H    0.104649
    68  H    0.114437
    69  H    0.017668
    70  H    0.122151
    71  H    0.094355
    72  H    0.089714
    73  H    0.117126
    74  H    0.105013
    75  H    0.108652
    76  H    0.107942
    77  H    0.111725
    78  H    0.113856
    79  H    0.084948
    80  H    0.113933
    81  H    0.083081
    82  H    0.289973
    83  H    0.318877
    84  H    0.086612
    85  H    0.138364
    86  H    0.114838
    87  H    0.107502
    88  H    0.066737
    89  H    0.095851
    90  H    0.136146
    91  H    0.123106
    92  H    0.041308
    93  H    0.069081
    94  H    0.059776
    95  H    0.078730
    96  H    0.068342
    97  H    0.076899
    98  H    0.101210
    99  H    0.139917
   100  H    0.120874
 Sum of Mulliken charges =  -0.00000

 Dipole moment (field-independent basis, Debye):
    X=              3.8547    Y=              1.1274    Z=              2.8112  Tot=              4.9024
 Quadrupole moment (field-independent basis, Debye-Ang):
   XX=           -275.2517   YY=           -260.7969   ZZ=           -278.2248
   XY=             16.1075   XZ=             33.1059   YZ=             -4.1139

 Normal termination of Gaussian 16 at Mon Jul 29 06:01:10 2019.
