 Gaussian 16, Revision A.03,
 Gaussian 16:  ES64L-G16RevA.03 25-Dec-2016

 -------------------------------------
 # td=(NStates=1) CAM-B3LYP/6-31G(d,p)
 -------------------------------------

 --
 TD
 --
 Symbolic Z-matrix:
 Charge =  0 Multiplicity = 1

                         Standard orientation:
 ---------------------------------------------------------------------
 Center     Atomic      Atomic             Coordinates (Angstroms)
 Number     Number       Type             X           Y           Z
 ---------------------------------------------------------------------
      1          8           0      -11.575766   -0.065106   -1.749963
      2          8           0      -13.042619   -2.414415    1.547679
      3          8           0       10.645544   -1.325374   -2.086818
      4          8           0       14.388254   -1.227541   -0.009785
      5          6           0      -11.000604   -0.284201   -0.442649
      6          6           0      -11.612674   -1.372047   -1.166867
      7          6           0      -11.763646    0.324404    0.749934
      8          6           0      -12.982267   -1.870047   -0.912904
      9          6           0      -13.258670   -0.062660    0.712779
     10          6           0      -13.491399   -1.569143    0.441983
     11          6           0      -10.663802   -2.306461   -1.978222
     12          6           0       -9.573902   -0.061977   -0.449883
     13          6           0      -11.205427    0.004391    2.197735
     14          6           0      -11.776247    1.832698    0.645670
     15          6           0       -8.630866   -0.666948    0.355625
     16          6           0       -7.180537   -0.504050    0.322506
     17          6           0       -6.320946   -1.599720    0.852550
     18          6           0       -6.575359    0.671745    0.017340
     19          6           0       -5.179894    1.069591   -0.081840
     20          6           0       11.823335    0.242701    1.250892
     21          6           0       11.590465   -0.851584   -1.226488
     22          6           0       12.589548   -1.090034    1.643523
     23          6           0       13.307697   -1.951260    0.518154
     24          6           0       12.248531   -2.139875   -0.716062
     25          6           0       11.063639   -0.018181   -0.018402
     26          6           0       10.930084    0.538280    2.463437
     27          6           0       12.856022    1.387433    1.184632
     28          6           0       12.568800   -0.014239   -2.083433
     29          6           0       -4.699530    2.319938   -0.391857
     30          6           0        9.860303    0.563415   -0.175136
     31          6           0       -3.306927    2.671331   -0.376706
     32          6           0        8.572987    0.880005   -0.480711
     33          6           0       -3.132972    4.116914   -0.730019
     34          6           0       -2.248512    1.760080   -0.035267
     35          6           0        7.441332    0.097973   -0.112767
     36          6           0        7.715391   -1.311878    0.404793
     37          6           0        6.187370    0.637258   -0.304565
     38          6           0       -0.959759    2.097164   -0.337390
     39          6           0        4.883919    0.135272   -0.212113
     40          6           0        0.082660    1.174319   -0.037203
     41          6           0        3.816809    0.919844   -0.276419
     42          6           0        1.418308    1.350296   -0.391997
     43          6           0        2.464796    0.514154   -0.071133
     44          6           0        2.277855   -0.894516    0.483203
     45          1           0      -12.874960   -2.997561   -1.040007
     46          1           0      -13.628615   -1.386757   -1.615061
     47          1           0      -13.624866    0.282274    1.875473
     48          1           0      -13.801123    0.571447    0.153642
     49          1           0      -14.569134   -1.827416    0.388026
     50          1           0      -10.344751   -3.210225   -1.434140
     51          1           0      -11.334024   -2.643489   -2.877558
     52          1           0       -9.819186   -1.822832   -2.552062
     53          1           0       -9.170562    0.638759   -1.272848
     54          1           0      -10.246444    0.521463    2.079912
     55          1           0      -11.804048    0.355693    3.080697
     56          1           0      -11.047143   -1.108416    2.145163
     57          1           0      -12.217686    2.270547   -0.297381
     58          1           0      -12.094749    2.355975    1.589789
     59          1           0      -10.659550    2.321790    0.507740
     60          1           0      -12.050455   -2.617805    1.180962
     61          1           0       -9.000193   -1.603303    0.912702
     62          1           0       -5.803660   -2.146179   -0.024105
     63          1           0       -5.505336   -1.415218    1.663408
     64          1           0       -6.769023   -2.432584    1.312101
     65          1           0       -7.051546    1.624210   -0.136133
     66          1           0       -4.363294    0.245991    0.337093
     67          1           0       13.166818   -0.870902    2.475170
     68          1           0       11.796690   -1.606241    2.086963
     69          1           0       13.714280   -2.869220    1.003902
     70          1           0       12.831333   -2.725049   -1.498434
     71          1           0       11.470848   -2.588037   -0.329577
     72          1           0       11.675738    0.767768    3.411379
     73          1           0       10.544051    1.551648    2.109841
     74          1           0       10.149379   -0.169759    2.658657
     75          1           0       13.825049    1.012949    0.463528
     76          1           0       12.236311    2.411017    1.013179
     77          1           0       13.412417    1.406826    2.125275
     78          1           0       12.843864   -0.490843   -2.954517
     79          1           0       12.121647    0.869690   -2.461958
     80          1           0       13.627865    0.306971   -1.658114
     81          1           0       -5.235467    3.006504   -0.694566
     82          1           0       10.080251   -0.614800   -2.572338
     83          1           0       15.068011   -1.307135    0.824743
     84          1           0        8.556338    1.888654   -0.779258
     85          1           0       -2.665476    4.689719   -0.140395
     86          1           0       -2.376712    4.035353   -1.679777
     87          1           0       -3.883099    4.656163   -0.981603
     88          1           0       -2.522087    0.808426    0.283895
     89          1           0        6.707182   -1.805003    0.750101
     90          1           0        8.272289   -1.992967   -0.068451
     91          1           0        8.445720   -1.188897    1.420591
     92          1           0        6.131887    1.637525   -0.504814
     93          1           0       -0.623223    3.280907   -0.614207
     94          1           0        4.958328   -1.057045    0.204188
     95          1           0       -0.381749    0.278389    0.410073
     96          1           0        4.000340    1.957661   -0.564330
     97          1           0        1.573527    2.334355   -0.702586
     98          1           0        1.008893   -1.019459    0.523325
     99          1           0        2.615659   -1.763067   -0.206498
    100          1           0        2.494666   -0.991286    1.651973
 ---------------------------------------------------------------------

 SCF Done:  E(RCAM-B3LYP) =  -1857.24357078     A.U. after   15 cycles

 Excitation energies and oscillator strengths:

 Excited State   1:      Singlet-A      2.0941 eV  592.08 nm  f=2.9738  <S**2>=0.000
     163 ->166        -0.12590
     164 ->165         0.69714
 This state for optimization and/or second-order correction.
 Total Energy, E(TD-HF/TD-DFT) =  -1857.16661562
 Copying the excited state density for this state as the 1-particle RhoCI density.

 The electronic state is 1-A.
 Alpha  occ. eigenvalues --  -19.23001 -19.23001 -19.22620 -19.21577 -10.32302
 Alpha  occ. eigenvalues --  -10.32157 -10.32156 -10.31918 -10.30984 -10.28279
 Alpha  occ. eigenvalues --  -10.28276 -10.28037 -10.27992 -10.27989 -10.27923
 Alpha  occ. eigenvalues --  -10.27898 -10.27591 -10.27502 -10.27464 -10.27433
 Alpha  occ. eigenvalues --  -10.27071 -10.26984 -10.26925 -10.26872 -10.26598
 Alpha  occ. eigenvalues --  -10.26570 -10.26506 -10.26492 -10.26448 -10.26349
 Alpha  occ. eigenvalues --  -10.26329 -10.25908 -10.25893 -10.25825 -10.25799
 Alpha  occ. eigenvalues --  -10.25784 -10.25481 -10.25259 -10.25174 -10.24891
 Alpha  occ. eigenvalues --  -10.24676 -10.24031 -10.23969 -10.22568  -1.16185
 Alpha  occ. eigenvalues --   -1.10698  -1.09560  -1.07805  -0.92558  -0.92332
 Alpha  occ. eigenvalues --   -0.91858  -0.91420  -0.90618  -0.90046  -0.88182
 Alpha  occ. eigenvalues --   -0.87560  -0.85488  -0.84906  -0.84430  -0.82839
 Alpha  occ. eigenvalues --   -0.82189  -0.80460  -0.79710  -0.78593  -0.77133
 Alpha  occ. eigenvalues --   -0.76496  -0.75996  -0.75765  -0.75364  -0.75103
 Alpha  occ. eigenvalues --   -0.74709  -0.73962  -0.72989  -0.71006  -0.69463
 Alpha  occ. eigenvalues --   -0.68627  -0.67529  -0.65288  -0.64582  -0.64416
 Alpha  occ. eigenvalues --   -0.63622  -0.61908  -0.61228  -0.60358  -0.60073
 Alpha  occ. eigenvalues --   -0.58922  -0.58766  -0.58059  -0.57227  -0.56776
 Alpha  occ. eigenvalues --   -0.56107  -0.55779  -0.55069  -0.54570  -0.54190
 Alpha  occ. eigenvalues --   -0.53641  -0.53289  -0.52772  -0.52104  -0.51953
 Alpha  occ. eigenvalues --   -0.51475  -0.51087  -0.50779  -0.50042  -0.49696
 Alpha  occ. eigenvalues --   -0.49321  -0.48745  -0.48311  -0.48263  -0.48054
 Alpha  occ. eigenvalues --   -0.47885  -0.47471  -0.47340  -0.47130  -0.46897
 Alpha  occ. eigenvalues --   -0.46413  -0.46173  -0.45839  -0.45554  -0.45255
 Alpha  occ. eigenvalues --   -0.44786  -0.43968  -0.43883  -0.43676  -0.43547
 Alpha  occ. eigenvalues --   -0.43089  -0.43026  -0.42875  -0.42864  -0.42640
 Alpha  occ. eigenvalues --   -0.42507  -0.41999  -0.41769  -0.41463  -0.41099
 Alpha  occ. eigenvalues --   -0.40650  -0.40543  -0.40161  -0.40059  -0.39779
 Alpha  occ. eigenvalues --   -0.39446  -0.39073  -0.38505  -0.37987  -0.37813
 Alpha  occ. eigenvalues --   -0.37750  -0.37697  -0.37279  -0.36948  -0.36715
 Alpha  occ. eigenvalues --   -0.36285  -0.36007  -0.35460  -0.34911  -0.34034
 Alpha  occ. eigenvalues --   -0.33119  -0.32765  -0.32225  -0.31674  -0.31236
 Alpha  occ. eigenvalues --   -0.29188  -0.27523  -0.24565  -0.19353
 Alpha virt. eigenvalues --   -0.06212  -0.00905   0.02708   0.06378   0.07037
 Alpha virt. eigenvalues --    0.07716   0.08674   0.10213   0.10918   0.11121
 Alpha virt. eigenvalues --    0.12000   0.12070   0.12735   0.12862   0.13261

 Mulliken charges:
               1
     1  O   -0.508223
     2  O   -0.537377
     3  O   -0.568757
     4  O   -0.517805
     5  C    0.240883
     6  C    0.207437
     7  C   -0.000531
     8  C   -0.217266
     9  C   -0.153422
    10  C    0.135488
    11  C   -0.328941
    12  C   -0.107117
    13  C   -0.278262
    14  C   -0.312380
    15  C   -0.094075
    16  C    0.094147
    17  C   -0.385221
    18  C   -0.114752
    19  C   -0.069333
    20  C   -0.013437
    21  C    0.277343
    22  C   -0.194417
    23  C    0.124160
    24  C   -0.169017
    25  C   -0.002447
    26  C   -0.284020
    27  C   -0.282644
    28  C   -0.318762
    29  C   -0.066514
    30  C    0.027180
    31  C    0.058456
    32  C   -0.227371
    33  C   -0.356128
    34  C   -0.096240
    35  C    0.126284
    36  C   -0.354417
    37  C   -0.112550
    38  C   -0.083507
    39  C   -0.052359
    40  C   -0.094960
    41  C   -0.122319
    42  C   -0.109972
    43  C    0.112930
    44  C   -0.357492
    45  H    0.106023
    46  H    0.144695
    47  H    0.064733
    48  H    0.110227
    49  H    0.098155
    50  H    0.103235
    51  H    0.096391
    52  H    0.129782
    53  H    0.113302
    54  H    0.114710
    55  H    0.115081
    56  H    0.075611
    57  H    0.115191
    58  H    0.104862
    59  H    0.067779
    60  H    0.294237
    61  H    0.073301
    62  H    0.115239
    63  H    0.114419
    64  H    0.116982
    65  H    0.083677
    66  H    0.061560
    67  H    0.076409
    68  H    0.095010
    69  H    0.078919
    70  H    0.109245
    71  H    0.112722
    72  H    0.076392
    73  H    0.101166
    74  H    0.114153
    75  H    0.104400
    76  H    0.084507
    77  H    0.094543
    78  H    0.110656
    79  H    0.085212
    80  H    0.114782
    81  H    0.054084
    82  H    0.316462
    83  H    0.305296
    84  H    0.107756
    85  H    0.137142
    86  H    0.095857
    87  H    0.113828
    88  H    0.086853
    89  H    0.090959
    90  H    0.150461
    91  H    0.079979
    92  H    0.067965
    93  H    0.076563
    94  H    0.065537
    95  H    0.084897
    96  H    0.085827
    97  H    0.080980
    98  H    0.064519
    99  H    0.126486
   100  H    0.118966
 Sum of Mulliken charges =  -0.00000

 Dipole moment (field-independent basis, Debye):
    X=              1.4759    Y=             -0.0426    Z=              1.1972  Tot=              1.9009
 Quadrupole moment (field-independent basis, Debye-Ang):
   XX=           -270.4721   YY=           -257.1142   ZZ=           -276.7052
   XY=             -4.8076   XZ=             33.7077   YZ=             -4.3454

 Normal termination of Gaussian 16 at Thu Aug  1 07:07:26 2019.
