 Gaussian 16, Revision A.03,
 Gaussian 16:  ES64L-G16RevA.03 25-Dec-2016

 -------------------------------------
 # td=(NStates=1) CAM-B3LYP/6-31G(d,p)
 -------------------------------------

 --
 TD
 --
 Symbolic Z-matrix:
 Charge =  0 Multiplicity = 1

                         Standard orientation:
 ---------------------------------------------------------------------
 Center     Atomic      Atomic             Coordinates (Angstroms)
 Number     Number       Type             X           Y           Z
 ---------------------------------------------------------------------
      1          8           0      -11.791262    0.532057   -1.332278
      2          8           0      -12.993430   -2.739348    1.049634
      3          8           0       10.418677   -0.613093   -2.215191
      4          8           0       14.488593   -1.124700   -0.449097
      5          6           0      -11.116654   -0.055901   -0.178520
      6          6           0      -11.732213   -0.941887   -1.353010
      7          6           0      -11.756216    0.106181    1.133457
      8          6           0      -13.092532   -1.549994   -1.118630
      9          6           0      -13.238849   -0.288912    1.093692
     10          6           0      -13.497463   -1.558567    0.333153
     11          6           0      -10.951725   -1.477915   -2.468358
     12          6           0       -9.657767    0.175720   -0.370382
     13          6           0      -11.067706   -0.710103    2.287212
     14          6           0      -11.708321    1.627505    1.468254
     15          6           0       -8.713518   -0.728953   -0.104525
     16          6           0       -7.274624   -0.526030   -0.028959
     17          6           0       -6.442075   -1.729196    0.156412
     18          6           0       -6.611017    0.726445   -0.137336
     19          6           0       -5.266332    0.931308   -0.218374
     20          6           0       12.105415   -0.200121    1.328100
     21          6           0       11.625896   -0.393646   -1.338368
     22          6           0       12.827417   -1.594904    1.259857
     23          6           0       13.362584   -1.916554   -0.165071
     24          6           0       12.274164   -1.783895   -1.259675
     25          6           0       11.117004    0.079705    0.043867
     26          6           0       11.238245   -0.195384    2.623981
     27          6           0       13.204634    0.932192    1.481587
     28          6           0       12.366167    0.757519   -1.942986
     29          6           0       -4.763081    2.182424   -0.310686
     30          6           0        9.915018    0.554913    0.253269
     31          6           0       -3.349227    2.570200   -0.284191
     32          6           0        8.678729    0.924492    0.309945
     33          6           0       -3.080862    4.086643   -0.498153
     34          6           0       -2.294044    1.662275   -0.299169
     35          6           0        7.475392    0.192547    0.217426
     36          6           0        7.654563   -1.291665    0.374055
     37          6           0        6.201368    0.756891    0.061512
     38          6           0       -0.936940    1.962734   -0.257530
     39          6           0        5.004475    0.156687    0.148007
     40          6           0        0.073302    0.954140   -0.059562
     41          6           0        3.817067    0.950289    0.009502
     42          6           0        1.465004    1.306610   -0.006707
     43          6           0        2.529179    0.393644   -0.018800
     44          6           0        2.238904   -1.095682    0.062933
     45          1           0      -13.011335   -2.536370   -1.427084
     46          1           0      -13.785147   -1.031821   -1.755237
     47          1           0      -13.566406   -0.409969    2.226140
     48          1           0      -13.893073    0.439249    0.649453
     49          1           0      -14.524279   -1.777291    0.517191
     50          1           0      -10.378113   -2.424181   -2.069005
     51          1           0      -11.873060   -1.708066   -3.421877
     52          1           0      -10.234158   -0.689778   -2.957483
     53          1           0       -9.253484    1.112646   -0.753241
     54          1           0      -10.135888   -0.227876    2.373766
     55          1           0      -11.549018   -0.763564    3.244729
     56          1           0      -11.023770   -1.843532    2.003563
     57          1           0      -12.373569    2.260334    0.781238
     58          1           0      -11.950458    1.841341    2.423594
     59          1           0      -10.608169    1.950291    1.315749
     60          1           0      -12.132669   -2.673647    0.919235
     61          1           0       -9.124941   -1.642816    0.240881
     62          1           0       -5.687832   -1.788348   -0.685888
     63          1           0       -5.841899   -1.816902    1.192439
     64          1           0       -7.210633   -2.607761   -0.015561
     65          1           0       -7.246642    1.520032   -0.040741
     66          1           0       -4.526999    0.019247   -0.536260
     67          1           0       13.818115   -1.627155    1.870597
     68          1           0       12.075084   -2.387471    1.773862
     69          1           0       13.664549   -3.123841   -0.131692
     70          1           0       12.763212   -1.994685   -2.054794
     71          1           0       11.525089   -2.678399   -1.074529
     72          1           0       12.070109   -0.346981    3.592988
     73          1           0       10.704545    0.710453    2.663296
     74          1           0       10.491806   -1.033383    2.799970
     75          1           0       13.856571    1.191755    0.646814
     76          1           0       12.447196    1.744038    1.357735
     77          1           0       13.787335    0.888755    2.428062
     78          1           0       12.799340    0.285150   -2.984278
     79          1           0       11.662518    1.487323   -2.112687
     80          1           0       13.250614    1.038919   -1.528485
     81          1           0       -5.436059    2.887371   -0.123777
     82          1           0        9.822373    0.171760   -1.905345
     83          1           0       15.184308   -1.291792    0.206903
     84          1           0        8.395749    1.948227    0.340721
     85          1           0       -2.520169    4.482859    0.424289
     86          1           0       -2.533843    4.339387   -1.429003
     87          1           0       -3.947687    4.642454   -0.421205
     88          1           0       -2.595904    0.678288   -0.097434
     89          1           0        6.871779   -1.978835    0.112096
     90          1           0        8.515496   -1.658654   -0.312377
     91          1           0        8.092529   -1.560684    1.415946
     92          1           0        6.047544    1.961910    0.140393
     93          1           0       -0.443598    3.010047   -0.042944
     94          1           0        4.822149   -0.908921    0.425170
     95          1           0       -0.207312   -0.180973   -0.095607
     96          1           0        3.856005    1.976719   -0.060533
     97          1           0        1.765459    2.519845   -0.017346
     98          1           0        1.278821   -1.289027    0.271241
     99          1           0        2.419604   -1.592199   -0.986126
    100          1           0        2.907429   -1.663347    0.894556
 ---------------------------------------------------------------------

 SCF Done:  E(RCAM-B3LYP) =  -1857.32739529     A.U. after   15 cycles

 Excitation energies and oscillator strengths:

 Excited State   1:      Singlet-A      1.9925 eV  622.25 nm  f=3.3217  <S**2>=0.000
     163 ->166        -0.14180
     164 ->165         0.69417
 This state for optimization and/or second-order correction.
 Total Energy, E(TD-HF/TD-DFT) =  -1857.25417122
 Copying the excited state density for this state as the 1-particle RhoCI density.

 The electronic state is 1-A.
 Alpha  occ. eigenvalues --  -19.22548 -19.21972 -19.20282 -19.20147 -10.32632
 Alpha  occ. eigenvalues --  -10.32515 -10.32491 -10.32161 -10.29995 -10.29367
 Alpha  occ. eigenvalues --  -10.29340 -10.28418 -10.28304 -10.28151 -10.28083
 Alpha  occ. eigenvalues --  -10.28063 -10.27986 -10.27892 -10.27783 -10.27750
 Alpha  occ. eigenvalues --  -10.27450 -10.27278 -10.27217 -10.27184 -10.27077
 Alpha  occ. eigenvalues --  -10.27061 -10.26761 -10.26593 -10.26392 -10.26391
 Alpha  occ. eigenvalues --  -10.26297 -10.26239 -10.25927 -10.25837 -10.25754
 Alpha  occ. eigenvalues --  -10.25728 -10.25594 -10.25581 -10.25565 -10.25456
 Alpha  occ. eigenvalues --  -10.25120 -10.25090 -10.24977 -10.23879  -1.13084
 Alpha  occ. eigenvalues --   -1.10918  -1.10716  -1.05943  -0.92707  -0.92617
 Alpha  occ. eigenvalues --   -0.91751  -0.91501  -0.90548  -0.90106  -0.88209
 Alpha  occ. eigenvalues --   -0.87540  -0.86451  -0.85619  -0.84537  -0.83244
 Alpha  occ. eigenvalues --   -0.82412  -0.81452  -0.80513  -0.78255  -0.77152
 Alpha  occ. eigenvalues --   -0.76776  -0.76760  -0.76534  -0.76117  -0.75940
 Alpha  occ. eigenvalues --   -0.74958  -0.74596  -0.72780  -0.70642  -0.69868
 Alpha  occ. eigenvalues --   -0.68183  -0.67066  -0.65415  -0.64065  -0.63890
 Alpha  occ. eigenvalues --   -0.63205  -0.62169  -0.61165  -0.60246  -0.59838
 Alpha  occ. eigenvalues --   -0.59191  -0.58404  -0.57546  -0.57276  -0.56123
 Alpha  occ. eigenvalues --   -0.55727  -0.55618  -0.55357  -0.55301  -0.54539
 Alpha  occ. eigenvalues --   -0.53777  -0.53448  -0.53129  -0.51947  -0.51493
 Alpha  occ. eigenvalues --   -0.51177  -0.51022  -0.50621  -0.49867  -0.49367
 Alpha  occ. eigenvalues --   -0.48907  -0.48797  -0.48631  -0.48173  -0.48134
 Alpha  occ. eigenvalues --   -0.47884  -0.47842  -0.47667  -0.47414  -0.47036
 Alpha  occ. eigenvalues --   -0.46848  -0.46122  -0.45575  -0.45528  -0.45156
 Alpha  occ. eigenvalues --   -0.44915  -0.44593  -0.44475  -0.44250  -0.44141
 Alpha  occ. eigenvalues --   -0.43255  -0.43191  -0.42941  -0.42350  -0.42194
 Alpha  occ. eigenvalues --   -0.41987  -0.41962  -0.41736  -0.41645  -0.41330
 Alpha  occ. eigenvalues --   -0.41127  -0.41091  -0.40852  -0.40656  -0.40266
 Alpha  occ. eigenvalues --   -0.40140  -0.40081  -0.39902  -0.39610  -0.39289
 Alpha  occ. eigenvalues --   -0.38857  -0.38334  -0.37937  -0.37539  -0.37152
 Alpha  occ. eigenvalues --   -0.36484  -0.36117  -0.35806  -0.35076  -0.33797
 Alpha  occ. eigenvalues --   -0.33088  -0.32421  -0.32066  -0.31443  -0.31179
 Alpha  occ. eigenvalues --   -0.30016  -0.28047  -0.23962  -0.19281
 Alpha virt. eigenvalues --   -0.06819  -0.01993   0.02584   0.05887   0.06907
 Alpha virt. eigenvalues --    0.09213   0.09654   0.10157   0.10588   0.11336
 Alpha virt. eigenvalues --    0.11917   0.12476   0.12713   0.12784   0.13166

 Mulliken charges:
               1
     1  O   -0.520419
     2  O   -0.542585
     3  O   -0.579513
     4  O   -0.537708
     5  C    0.214720
     6  C    0.231970
     7  C   -0.007817
     8  C   -0.194137
     9  C   -0.170791
    10  C    0.118089
    11  C   -0.313925
    12  C   -0.105287
    13  C   -0.303840
    14  C   -0.306959
    15  C   -0.072131
    16  C    0.077350
    17  C   -0.368143
    18  C   -0.104202
    19  C   -0.048801
    20  C    0.022829
    21  C    0.214335
    22  C   -0.160750
    23  C    0.144846
    24  C   -0.152282
    25  C   -0.105445
    26  C   -0.287433
    27  C   -0.304791
    28  C   -0.261155
    29  C   -0.105552
    30  C    0.182906
    31  C    0.064897
    32  C   -0.311137
    33  C   -0.368788
    34  C   -0.109130
    35  C    0.148400
    36  C   -0.391726
    37  C   -0.127399
    38  C   -0.088700
    39  C   -0.074575
    40  C   -0.100939
    41  C   -0.109929
    42  C   -0.132691
    43  C    0.121849
    44  C   -0.355876
    45  H    0.121768
    46  H    0.130110
    47  H    0.091359
    48  H    0.107016
    49  H    0.105867
    50  H    0.107898
    51  H    0.067979
    52  H    0.135377
    53  H    0.100812
    54  H    0.119156
    55  H    0.122068
    56  H    0.072103
    57  H    0.117035
    58  H    0.114368
    59  H    0.086027
    60  H    0.283158
    61  H    0.070411
    62  H    0.121180
    63  H    0.115670
    64  H    0.089802
    65  H    0.076716
    66  H    0.079270
    67  H    0.061980
    68  H    0.078946
    69  H    0.039891
    70  H    0.120360
    71  H    0.111256
    72  H    0.057075
    73  H    0.116403
    74  H    0.105049
    75  H    0.122364
    76  H    0.095548
    77  H    0.102483
    78  H    0.082690
    79  H    0.104680
    80  H    0.131264
    81  H    0.076135
    82  H    0.305526
    83  H    0.314204
    84  H    0.105071
    85  H    0.106912
    86  H    0.130129
    87  H    0.114502
    88  H    0.084264
    89  H    0.112716
    90  H    0.123534
    91  H    0.108623
    92  H    0.071490
    93  H    0.092088
    94  H    0.093275
    95  H    0.088489
    96  H    0.078782
    97  H    0.073351
    98  H    0.120040
    99  H    0.116435
   100  H    0.101659
 Sum of Mulliken charges =  -0.00000

 Dipole moment (field-independent basis, Debye):
    X=              0.7973    Y=              0.2004    Z=              2.4926  Tot=              2.6247
 Quadrupole moment (field-independent basis, Debye-Ang):
   XX=           -266.7328   YY=           -262.8851   ZZ=           -281.5839
   XY=            -10.9127   XZ=             27.8872   YZ=              1.1570

 Normal termination of Gaussian 16 at Wed Jul 31 06:13:44 2019.
