 Gaussian 16, Revision A.03,
 Gaussian 16:  ES64L-G16RevA.03 25-Dec-2016

 -------------------------------------
 # td=(NStates=1) CAM-B3LYP/6-31G(d,p)
 -------------------------------------

 --
 TD
 --
 Symbolic Z-matrix:
 Charge =  0 Multiplicity = 1

                         Standard orientation:
 ---------------------------------------------------------------------
 Center     Atomic      Atomic             Coordinates (Angstroms)
 Number     Number       Type             X           Y           Z
 ---------------------------------------------------------------------
      1          8           0      -11.556133   -0.152993   -1.718706
      2          8           0      -13.100922   -2.239948    1.687841
      3          8           0       10.389754   -1.449202   -1.857433
      4          8           0       14.424027   -1.324535   -0.121396
      5          6           0      -10.994827   -0.278291   -0.404085
      6          6           0      -11.601746   -1.493635   -1.089419
      7          6           0      -11.709017    0.349091    0.801821
      8          6           0      -12.948732   -1.972086   -0.673019
      9          6           0      -13.226325   -0.074321    0.767642
     10          6           0      -13.502973   -1.475141    0.542700
     11          6           0      -10.727513   -2.512196   -1.838113
     12          6           0       -9.495531   -0.084828   -0.576926
     13          6           0      -11.115676    0.082861    2.148570
     14          6           0      -11.634683    1.968840    0.626300
     15          6           0       -8.472579   -0.687713    0.215614
     16          6           0       -7.082592   -0.498294    0.295544
     17          6           0       -6.253660   -1.699803    0.607371
     18          6           0       -6.588615    0.672598    0.014274
     19          6           0       -5.210582    0.988448   -0.011440
     20          6           0       11.956526    0.182702    1.158466
     21          6           0       11.488286   -0.918674   -1.165981
     22          6           0       12.670891   -1.161515    1.634607
     23          6           0       13.264436   -1.975739    0.479721
     24          6           0       12.177937   -2.197617   -0.612751
     25          6           0       11.094763   -0.046265   -0.007896
     26          6           0       11.128909    0.723325    2.375046
     27          6           0       13.045256    1.283855    0.973341
     28          6           0       12.348386   -0.125898   -2.195518
     29          6           0       -4.802811    2.317579   -0.397036
     30          6           0        9.892570    0.518198   -0.077412
     31          6           0       -3.404045    2.686158   -0.580668
     32          6           0        8.633670    0.935276   -0.280758
     33          6           0       -3.176380    4.122246   -0.757636
     34          6           0       -2.374687    1.739071   -0.469431
     35          6           0        7.382295    0.179981   -0.060079
     36          6           0        7.650165   -1.179437    0.533267
     37          6           0        6.193408    0.877725   -0.030501
     38          6           0       -1.045324    2.022129   -0.468032
     39          6           0        4.950462    0.300564    0.269933
     40          6           0        0.061689    1.142853   -0.338882
     41          6           0        3.775513    0.961855   -0.091235
     42          6           0        1.413369    1.417438   -0.323807
     43          6           0        2.420662    0.584706    0.031403
     44          6           0        2.195789   -0.890389    0.381634
     45          1           0      -12.940303   -2.968270   -0.752694
     46          1           0      -13.612956   -1.684695   -1.710856
     47          1           0      -13.697200    0.520974    1.710264
     48          1           0      -13.581005    0.438786   -0.103311
     49          1           0      -14.542783   -1.522677    0.505867
     50          1           0      -10.363684   -3.288614   -1.014648
     51          1           0      -11.243966   -3.099965   -2.633038
     52          1           0       -9.916206   -1.693085   -2.186910
     53          1           0       -8.838546    0.554382   -1.326464
     54          1           0       -9.915434    0.264230    2.272636
     55          1           0      -11.666477    0.607017    2.879333
     56          1           0      -11.232945   -0.905203    2.352447
     57          1           0      -11.983686    1.861913   -0.519182
     58          1           0      -12.450086    2.593351    1.071372
     59          1           0      -10.574405    2.382809    0.747246
     60          1           0      -12.095287   -2.658725    1.424959
     61          1           0       -8.959892   -1.512973    0.842964
     62          1           0       -5.918103   -2.117774   -0.437188
     63          1           0       -5.502203   -1.570508    1.456342
     64          1           0       -6.875613   -2.412579    1.059193
     65          1           0       -7.179466    1.574632   -0.220057
     66          1           0       -4.394345    0.251051    0.051258
     67          1           0       13.458255   -0.949282    2.394866
     68          1           0       11.748082   -1.755851    2.066037
     69          1           0       13.707380   -2.808095    0.777056
     70          1           0       12.640967   -2.564745   -1.535645
     71          1           0       11.376229   -2.882904   -0.373609
     72          1           0       11.888480    0.977834    3.259073
     73          1           0       10.856410    1.742840    2.164016
     74          1           0       10.217689    0.239640    2.527463
     75          1           0       13.704858    0.951927    0.162420
     76          1           0       12.653610    2.428548    0.738706
     77          1           0       13.788570    1.681858    1.861420
     78          1           0       12.672464   -1.010238   -2.919167
     79          1           0       11.931640    0.801243   -2.664547
     80          1           0       13.388517    0.176096   -1.891260
     81          1           0       -5.595645    3.040645   -0.651534
     82          1           0        9.982303   -0.695915   -2.135660
     83          1           0       15.109965   -1.049533    0.534463
     84          1           0        8.658429    1.881030   -0.746998
     85          1           0       -2.782320    4.612012    0.054687
     86          1           0       -2.325486    4.428990   -1.522929
     87          1           0       -4.096383    4.550296   -1.074708
     88          1           0       -2.794256    0.608347   -0.366869
     89          1           0        6.753076   -1.978219    0.682259
     90          1           0        8.359454   -1.465026   -0.264014
     91          1           0        8.270841   -1.185393    1.345339
     92          1           0        6.439266    1.890232   -0.359627
     93          1           0       -0.556094    3.019788   -0.761972
     94          1           0        4.882441   -0.673196    0.564673
     95          1           0       -0.347796    0.216906    0.003101
     96          1           0        3.939948    2.057956   -0.386856
     97          1           0        1.714293    2.543672   -0.505060
     98          1           0        0.970338   -1.252425    0.313786
     99          1           0        2.585872   -1.389114   -0.384668
    100          1           0        2.769293   -1.184512    1.263997
 ---------------------------------------------------------------------

 SCF Done:  E(RCAM-B3LYP) =  -1857.29256634     A.U. after   15 cycles

 Excitation energies and oscillator strengths:

 Excited State   1:      Singlet-A      2.1023 eV  589.75 nm  f=2.9975  <S**2>=0.000
     163 ->166        -0.13226
     164 ->165         0.69562
 This state for optimization and/or second-order correction.
 Total Energy, E(TD-HF/TD-DFT) =  -1857.21530757
 Copying the excited state density for this state as the 1-particle RhoCI density.

 The electronic state is 1-A.
 Alpha  occ. eigenvalues --  -19.22721 -19.22624 -19.21345 -19.21173 -10.33287
 Alpha  occ. eigenvalues --  -10.32826 -10.32113 -10.30563 -10.29759 -10.28534
 Alpha  occ. eigenvalues --  -10.28028 -10.27959 -10.27948 -10.27843 -10.27713
 Alpha  occ. eigenvalues --  -10.27663 -10.27296 -10.27289 -10.27184 -10.27177
 Alpha  occ. eigenvalues --  -10.27169 -10.27094 -10.27051 -10.26994 -10.26892
 Alpha  occ. eigenvalues --  -10.26860 -10.26758 -10.26747 -10.26736 -10.26693
 Alpha  occ. eigenvalues --  -10.26587 -10.26108 -10.26099 -10.26009 -10.25941
 Alpha  occ. eigenvalues --  -10.25851 -10.25709 -10.25592 -10.25505 -10.25417
 Alpha  occ. eigenvalues --  -10.25186 -10.25012 -10.24531 -10.23521  -1.14434
 Alpha  occ. eigenvalues --   -1.12857  -1.08327  -1.08240  -0.93159  -0.93013
 Alpha  occ. eigenvalues --   -0.92208  -0.91275  -0.91005  -0.90396  -0.88180
 Alpha  occ. eigenvalues --   -0.87147  -0.85733  -0.85265  -0.84299  -0.83135
 Alpha  occ. eigenvalues --   -0.82553  -0.80842  -0.80175  -0.79082  -0.77005
 Alpha  occ. eigenvalues --   -0.76774  -0.76760  -0.76194  -0.75737  -0.75234
 Alpha  occ. eigenvalues --   -0.74353  -0.74174  -0.73424  -0.70944  -0.70350
 Alpha  occ. eigenvalues --   -0.69010  -0.67230  -0.65341  -0.64764  -0.64131
 Alpha  occ. eigenvalues --   -0.63638  -0.62302  -0.60485  -0.60322  -0.60004
 Alpha  occ. eigenvalues --   -0.59430  -0.58348  -0.57856  -0.57338  -0.57040
 Alpha  occ. eigenvalues --   -0.55825  -0.55484  -0.54780  -0.54600  -0.54503
 Alpha  occ. eigenvalues --   -0.54343  -0.53265  -0.52815  -0.52456  -0.51811
 Alpha  occ. eigenvalues --   -0.51682  -0.51230  -0.50394  -0.50054  -0.49964
 Alpha  occ. eigenvalues --   -0.49809  -0.49349  -0.49294  -0.48927  -0.48804
 Alpha  occ. eigenvalues --   -0.47957  -0.47895  -0.47526  -0.47264  -0.46901
 Alpha  occ. eigenvalues --   -0.46459  -0.46379  -0.46118  -0.45442  -0.44981
 Alpha  occ. eigenvalues --   -0.44466  -0.44162  -0.43756  -0.43596  -0.43253
 Alpha  occ. eigenvalues --   -0.43141  -0.43030  -0.42850  -0.42594  -0.42470
 Alpha  occ. eigenvalues --   -0.42323  -0.42138  -0.41794  -0.41423  -0.41189
 Alpha  occ. eigenvalues --   -0.41053  -0.40522  -0.40093  -0.39972  -0.39829
 Alpha  occ. eigenvalues --   -0.39519  -0.39414  -0.39138  -0.38973  -0.38369
 Alpha  occ. eigenvalues --   -0.37768  -0.37668  -0.37402  -0.37302  -0.36559
 Alpha  occ. eigenvalues --   -0.36286  -0.35996  -0.35559  -0.34988  -0.33933
 Alpha  occ. eigenvalues --   -0.33382  -0.32914  -0.32282  -0.31732  -0.30832
 Alpha  occ. eigenvalues --   -0.29273  -0.27668  -0.24569  -0.19577
 Alpha virt. eigenvalues --   -0.06377  -0.00947   0.02992   0.06031   0.06571
 Alpha virt. eigenvalues --    0.06865   0.09762   0.10119   0.10745   0.11547
 Alpha virt. eigenvalues --    0.12472   0.13143   0.13350   0.13670   0.13888

 Mulliken charges:
               1
     1  O   -0.505597
     2  O   -0.550335
     3  O   -0.523846
     4  O   -0.578377
     5  C    0.225335
     6  C    0.207532
     7  C   -0.004046
     8  C   -0.217375
     9  C   -0.183412
    10  C    0.182821
    11  C   -0.312067
    12  C   -0.127038
    13  C   -0.275896
    14  C   -0.317845
    15  C   -0.102640
    16  C    0.095620
    17  C   -0.366546
    18  C   -0.107186
    19  C   -0.063159
    20  C    0.012766
    21  C    0.223025
    22  C   -0.190821
    23  C    0.185057
    24  C   -0.203823
    25  C   -0.003252
    26  C   -0.301312
    27  C   -0.306601
    28  C   -0.318625
    29  C   -0.149123
    30  C    0.060614
    31  C    0.112496
    32  C   -0.271237
    33  C   -0.376053
    34  C   -0.110146
    35  C    0.095856
    36  C   -0.369958
    37  C   -0.090848
    38  C   -0.094703
    39  C   -0.085861
    40  C   -0.083990
    41  C   -0.119977
    42  C   -0.129396
    43  C    0.126438
    44  C   -0.369273
    45  H    0.116603
    46  H    0.104520
    47  H    0.089007
    48  H    0.110356
    49  H    0.110651
    50  H    0.085627
    51  H    0.118020
    52  H    0.130863
    53  H    0.097280
    54  H    0.083127
    55  H    0.108665
    56  H    0.091747
    57  H    0.101126
    58  H    0.104634
    59  H    0.107256
    60  H    0.297439
    61  H    0.054896
    62  H    0.125060
    63  H    0.117925
    64  H    0.118211
    65  H    0.090665
    66  H    0.087893
    67  H    0.087476
    68  H    0.091736
    69  H    0.094027
    70  H    0.113360
    71  H    0.130346
    72  H    0.082710
    73  H    0.111614
    74  H    0.109920
    75  H    0.121423
    76  H    0.074543
    77  H    0.074923
    78  H    0.096148
    79  H    0.100143
    80  H    0.134485
    81  H    0.091121
    82  H    0.293330
    83  H    0.308877
    84  H    0.112177
    85  H    0.144232
    86  H    0.100847
    87  H    0.112505
    88  H    0.074191
    89  H    0.089593
    90  H    0.134364
    91  H    0.134461
    92  H    0.084002
    93  H    0.074242
    94  H    0.080922
    95  H    0.071790
    96  H    0.074162
    97  H    0.075691
    98  H    0.082634
    99  H    0.147137
   100  H    0.122097
 Sum of Mulliken charges =  -0.00000

 Dipole moment (field-independent basis, Debye):
    X=              1.8417    Y=             -0.5479    Z=              1.3170  Tot=              2.3295
 Quadrupole moment (field-independent basis, Debye-Ang):
   XX=           -254.3554   YY=           -257.4874   ZZ=           -281.8888
   XY=             17.2675   XZ=             28.4569   YZ=             -3.2415

 Normal termination of Gaussian 16 at Fri Aug  2 03:19:29 2019.
