 Gaussian 16, Revision A.03,
 Gaussian 16:  ES64L-G16RevA.03 25-Dec-2016

 -------------------------------------
 # td=(NStates=1) CAM-B3LYP/6-31G(d,p)
 -------------------------------------

 --
 TD
 --
 Symbolic Z-matrix:
 Charge =  0 Multiplicity = 1

                         Standard orientation:
 ---------------------------------------------------------------------
 Center     Atomic      Atomic             Coordinates (Angstroms)
 Number     Number       Type             X           Y           Z
 ---------------------------------------------------------------------
      1          8           0      -11.861605    0.133357   -1.440537
      2          8           0      -12.994918   -2.263396    1.643485
      3          8           0       10.753743   -1.068251   -2.095124
      4          8           0       14.550200   -0.989769   -0.025700
      5          6           0      -11.058669   -0.226318   -0.246960
      6          6           0      -11.685889   -1.265316   -1.049262
      7          6           0      -11.785047    0.405040    0.957423
      8          6           0      -13.135510   -1.775940   -0.812255
      9          6           0      -13.289442    0.049566    0.861096
     10          6           0      -13.588775   -1.367801    0.726899
     11          6           0      -10.858472   -2.121944   -2.126906
     12          6           0       -9.583766    0.004697   -0.401762
     13          6           0      -11.063847    0.092939    2.240251
     14          6           0      -11.745088    1.959428    0.720814
     15          6           0       -8.634040   -0.773021   -0.038735
     16          6           0       -7.201013   -0.609509    0.100402
     17          6           0       -6.358652   -1.899820    0.320400
     18          6           0       -6.589292    0.554128   -0.133396
     19          6           0       -5.218462    0.797539   -0.197046
     20          6           0       11.884209    0.063093    1.417880
     21          6           0       11.766735   -0.625239   -1.212409
     22          6           0       12.685265   -1.258144    1.649879
     23          6           0       13.400327   -1.756274    0.319446
     24          6           0       12.521263   -1.889978   -0.834439
     25          6           0       11.117727    0.065851    0.063329
     26          6           0       10.907799    0.219711    2.561529
     27          6           0       12.874979    1.278519    1.373250
     28          6           0       12.669341    0.324129   -1.947873
     29          6           0       -4.738678    2.115103   -0.375053
     30          6           0        9.889527    0.602921   -0.018899
     31          6           0       -3.331302    2.538656   -0.496184
     32          6           0        8.708147    1.039712   -0.177124
     33          6           0       -3.152842    3.898183   -0.821874
     34          6           0       -2.343821    1.628117   -0.303745
     35          6           0        7.477414    0.198349    0.038493
     36          6           0        7.642708   -1.372843    0.069438
     37          6           0        6.251056    0.728593   -0.096210
     38          6           0       -0.951550    1.825504   -0.358167
     39          6           0        5.001930    0.113276   -0.009884
     40          6           0        0.004162    0.890572   -0.171084
     41          6           0        3.804320    0.827277   -0.006986
     42          6           0        1.400572    1.188875   -0.320739
     43          6           0        2.434403    0.378855   -0.000328
     44          6           0        2.255799   -1.168077   -0.005960
     45          1           0      -13.112295   -2.890251   -0.878218
     46          1           0      -13.917422   -1.100397   -1.538881
     47          1           0      -13.665782    0.320896    1.818094
     48          1           0      -13.823304    0.778538    0.366173
     49          1           0      -14.677986   -1.400825    0.915028
     50          1           0      -10.528501   -2.808712   -1.456754
     51          1           0      -11.540130   -2.476781   -2.901355
     52          1           0      -10.152008   -1.660406   -2.655075
     53          1           0       -9.373520    0.955787   -1.079158
     54          1           0      -10.032812    0.501352    2.241028
     55          1           0      -11.468882    0.675382    3.077223
     56          1           0      -11.055103   -1.023694    2.561229
     57          1           0      -12.324068    2.262750   -0.247135
     58          1           0      -12.197719    2.443530    1.577015
     59          1           0      -10.767509    2.335895    0.727711
     60          1           0      -12.082991   -2.626223    1.466239
     61          1           0       -9.121770   -1.728494    0.116492
     62          1           0       -5.971875   -2.508335   -0.408003
     63          1           0       -5.430012   -1.545577    1.081625
     64          1           0       -6.979298   -2.595853    0.792328
     65          1           0       -7.141859    1.326356   -0.407297
     66          1           0       -4.440606    0.109666   -0.191313
     67          1           0       13.469046   -1.038789    2.545299
     68          1           0       11.902072   -2.155899    1.858173
     69          1           0       13.839374   -2.707690    0.446204
     70          1           0       12.962651   -2.365753   -1.561598
     71          1           0       11.788451   -2.464426   -0.684656
     72          1           0       11.523523    0.164267    3.453695
     73          1           0       10.379982    1.196282    2.507649
     74          1           0       10.298164   -0.353418    2.588137
     75          1           0       13.619894    1.087767    0.638579
     76          1           0       12.296315    2.227537    1.259093
     77          1           0       13.462913    1.581351    2.329079
     78          1           0       13.111568   -0.208285   -2.949134
     79          1           0       11.900488    0.982046   -2.361344
     80          1           0       13.361508    0.739387   -1.365875
     81          1           0       -5.533567    2.952262   -0.452339
     82          1           0        9.975089   -0.458189   -2.009351
     83          1           0       15.215471   -0.613497    0.720088
     84          1           0        8.574994    2.068704   -0.885720
     85          1           0       -2.616385    4.596087   -0.177143
     86          1           0       -2.479191    4.002420   -1.666107
     87          1           0       -4.001359    4.386545   -1.201053
     88          1           0       -2.618695    0.583427   -0.071392
     89          1           0        6.703358   -2.007150   -0.110551
     90          1           0        8.500116   -1.667931   -0.551184
     91          1           0        7.997340   -1.673023    1.219988
     92          1           0        6.205238    1.806062   -0.169748
     93          1           0       -0.749672    3.021884   -0.118580
     94          1           0        5.028786   -0.996163   -0.113182
     95          1           0       -0.272489   -0.013752    0.001392
     96          1           0        3.958375    1.921157   -0.236001
     97          1           0        1.501390    2.426316   -0.279082
     98          1           0        1.211026   -1.491875    0.019856
     99          1           0        2.795777   -1.713362   -0.676479
    100          1           0        2.613404   -1.724880    0.875799
 ---------------------------------------------------------------------

 SCF Done:  E(RCAM-B3LYP) =  -1857.23329221     A.U. after   15 cycles

 Excitation energies and oscillator strengths:

 Excited State   1:      Singlet-A      2.5077 eV  494.42 nm  f=2.9117  <S**2>=0.000
     163 ->166        -0.15315
     164 ->165         0.68737
 This state for optimization and/or second-order correction.
 Total Energy, E(TD-HF/TD-DFT) =  -1857.14113728
 Copying the excited state density for this state as the 1-particle RhoCI density.

 The electronic state is 1-A.
 Alpha  occ. eigenvalues --  -19.21584 -19.21420 -19.20920 -19.20472 -10.32092
 Alpha  occ. eigenvalues --  -10.31658 -10.31457 -10.31030 -10.30374 -10.29151
 Alpha  occ. eigenvalues --  -10.28685 -10.28569 -10.28490 -10.28456 -10.28270
 Alpha  occ. eigenvalues --  -10.27945 -10.27928 -10.27890 -10.27636 -10.27623
 Alpha  occ. eigenvalues --  -10.27615 -10.27581 -10.27387 -10.27229 -10.27183
 Alpha  occ. eigenvalues --  -10.27045 -10.26468 -10.26244 -10.26104 -10.26083
 Alpha  occ. eigenvalues --  -10.25959 -10.25820 -10.25717 -10.25398 -10.25136
 Alpha  occ. eigenvalues --  -10.24858 -10.24775 -10.24733 -10.24134 -10.24110
 Alpha  occ. eigenvalues --  -10.23070 -10.23012 -10.21955 -10.21510  -1.12588
 Alpha  occ. eigenvalues --   -1.09608  -1.08835  -1.07582  -0.93135  -0.92782
 Alpha  occ. eigenvalues --   -0.92153  -0.91623  -0.90579  -0.90256  -0.88060
 Alpha  occ. eigenvalues --   -0.87512  -0.86921  -0.85615  -0.84627  -0.82913
 Alpha  occ. eigenvalues --   -0.82531  -0.81281  -0.80733  -0.79292  -0.78426
 Alpha  occ. eigenvalues --   -0.77346  -0.76630  -0.76298  -0.76117  -0.75865
 Alpha  occ. eigenvalues --   -0.75105  -0.74703  -0.73863  -0.70888  -0.70037
 Alpha  occ. eigenvalues --   -0.69301  -0.67797  -0.65407  -0.64923  -0.64329
 Alpha  occ. eigenvalues --   -0.64185  -0.62703  -0.61682  -0.61448  -0.60328
 Alpha  occ. eigenvalues --   -0.59510  -0.58755  -0.58504  -0.56779  -0.56492
 Alpha  occ. eigenvalues --   -0.56083  -0.55694  -0.55328  -0.54179  -0.53816
 Alpha  occ. eigenvalues --   -0.53174  -0.52873  -0.52694  -0.52355  -0.51977
 Alpha  occ. eigenvalues --   -0.51822  -0.51026  -0.50827  -0.50754  -0.50209
 Alpha  occ. eigenvalues --   -0.49645  -0.49362  -0.48617  -0.48553  -0.48327
 Alpha  occ. eigenvalues --   -0.47818  -0.47626  -0.47455  -0.47141  -0.46884
 Alpha  occ. eigenvalues --   -0.46845  -0.46596  -0.46414  -0.45802  -0.45282
 Alpha  occ. eigenvalues --   -0.44874  -0.44613  -0.44217  -0.43904  -0.43763
 Alpha  occ. eigenvalues --   -0.43534  -0.43471  -0.43326  -0.43114  -0.43066
 Alpha  occ. eigenvalues --   -0.42576  -0.42532  -0.42373  -0.41870  -0.41593
 Alpha  occ. eigenvalues --   -0.41394  -0.41198  -0.40923  -0.40501  -0.39832
 Alpha  occ. eigenvalues --   -0.39634  -0.39563  -0.39201  -0.38559  -0.38294
 Alpha  occ. eigenvalues --   -0.38130  -0.37777  -0.37701  -0.37532  -0.36943
 Alpha  occ. eigenvalues --   -0.36213  -0.35799  -0.35460  -0.34622  -0.33482
 Alpha  occ. eigenvalues --   -0.33000  -0.32199  -0.31467  -0.31329  -0.30368
 Alpha  occ. eigenvalues --   -0.29509  -0.28776  -0.25123  -0.21249
 Alpha virt. eigenvalues --   -0.05588  -0.01127   0.03190   0.04294   0.06935
 Alpha virt. eigenvalues --    0.08806   0.09098   0.09434   0.11104   0.11580
 Alpha virt. eigenvalues --    0.12038   0.12543   0.13576   0.13755   0.14404

 Mulliken charges:
               1
     1  O   -0.517614
     2  O   -0.562802
     3  O   -0.581441
     4  O   -0.588275
     5  C    0.206357
     6  C    0.177379
     7  C    0.025127
     8  C   -0.203821
     9  C   -0.168872
    10  C    0.171342
    11  C   -0.313442
    12  C   -0.113826
    13  C   -0.309428
    14  C   -0.322191
    15  C   -0.063964
    16  C    0.082201
    17  C   -0.362019
    18  C   -0.080649
    19  C   -0.045539
    20  C    0.006074
    21  C    0.236132
    22  C   -0.194992
    23  C    0.176089
    24  C   -0.141923
    25  C   -0.079679
    26  C   -0.241364
    27  C   -0.312898
    28  C   -0.244900
    29  C   -0.154478
    30  C    0.198572
    31  C    0.146147
    32  C   -0.348927
    33  C   -0.418710
    34  C   -0.126249
    35  C    0.086624
    36  C   -0.359915
    37  C   -0.089247
    38  C   -0.083531
    39  C   -0.066378
    40  C   -0.051903
    41  C   -0.133972
    42  C   -0.129473
    43  C    0.120308
    44  C   -0.383822
    45  H    0.089254
    46  H    0.106152
    47  H    0.094756
    48  H    0.116262
    49  H    0.093878
    50  H    0.107866
    51  H    0.114730
    52  H    0.130803
    53  H    0.096700
    54  H    0.108846
    55  H    0.101078
    56  H    0.085552
    57  H    0.118827
    58  H    0.098039
    59  H    0.103094
    60  H    0.312221
    61  H    0.058253
    62  H    0.134007
    63  H    0.085233
    64  H    0.109528
    65  H    0.072351
    66  H    0.084010
    67  H    0.078819
    68  H    0.084081
    69  H    0.082558
    70  H    0.113228
    71  H    0.112572
    72  H    0.089049
    73  H    0.095642
    74  H    0.090015
    75  H    0.118118
    76  H    0.105407
    77  H    0.075353
    78  H    0.085782
    79  H    0.079831
    80  H    0.123032
    81  H    0.080493
    82  H    0.308772
    83  H    0.316456
    84  H    0.109130
    85  H    0.129645
    86  H    0.131220
    87  H    0.121933
    88  H    0.076732
    89  H    0.112811
    90  H    0.129699
    91  H    0.090986
    92  H    0.077376
    93  H    0.067742
    94  H    0.075994
    95  H    0.073050
    96  H    0.082494
    97  H    0.070635
    98  H    0.106598
    99  H    0.134890
   100  H    0.112302
 Sum of Mulliken charges =  -0.00000

 Dipole moment (field-independent basis, Debye):
    X=              2.0104    Y=             -0.1768    Z=              1.7919  Tot=              2.6989
 Quadrupole moment (field-independent basis, Debye-Ang):
   XX=           -292.0216   YY=           -254.5518   ZZ=           -281.4695
   XY=              1.9382   XZ=             32.8852   YZ=             -1.1843

 Normal termination of Gaussian 16 at Fri Aug  2 04:14:28 2019.
