 Gaussian 16, Revision A.03,
 Gaussian 16:  ES64L-G16RevA.03 25-Dec-2016

 -------------------------------------
 # td=(NStates=1) CAM-B3LYP/6-31G(d,p)
 -------------------------------------

 --
 TD
 --
 Symbolic Z-matrix:
 Charge =  0 Multiplicity = 1

                         Standard orientation:
 ---------------------------------------------------------------------
 Center     Atomic      Atomic             Coordinates (Angstroms)
 Number     Number       Type             X           Y           Z
 ---------------------------------------------------------------------
      1          8           0      -11.633059    0.210331   -1.544010
      2          8           0      -13.049510   -2.413527    1.436017
      3          8           0       10.577066   -1.046624   -2.125159
      4          8           0       14.493851   -0.988524   -0.183647
      5          6           0      -11.048506   -0.210358   -0.266659
      6          6           0      -11.622166   -1.212118   -1.268212
      7          6           0      -11.857546    0.360856    0.906491
      8          6           0      -12.964887   -1.806950   -1.009027
      9          6           0      -13.312861   -0.063155    0.725478
     10          6           0      -13.541056   -1.479136    0.355380
     11          6           0      -10.694831   -1.968897   -2.170325
     12          6           0       -9.579379    0.084021   -0.384079
     13          6           0      -11.260561    0.047998    2.204117
     14          6           0      -11.767711    1.887905    0.768780
     15          6           0       -8.604899   -0.724213    0.183941
     16          6           0       -7.240168   -0.578746    0.145304
     17          6           0       -6.301159   -1.665031    0.560933
     18          6           0       -6.600988    0.667749   -0.009291
     19          6           0       -5.219689    0.984955   -0.135980
     20          6           0       11.884876    0.030927    1.348171
     21          6           0       11.623086   -0.536789   -1.238027
     22          6           0       12.755419   -1.349148    1.526027
     23          6           0       13.424663   -1.780336    0.217171
     24          6           0       12.403773   -1.821094   -0.964424
     25          6           0       11.049682    0.003487    0.150827
     26          6           0       11.045310    0.195743    2.518695
     27          6           0       12.984432    1.167981    1.284497
     28          6           0       12.394292    0.502203   -2.077963
     29          6           0       -4.666064    2.177177   -0.240752
     30          6           0        9.835573    0.447252    0.027813
     31          6           0       -3.296394    2.523460   -0.414882
     32          6           0        8.608305    0.966885   -0.172844
     33          6           0       -3.004253    3.997527   -0.599432
     34          6           0       -2.384020    1.547283   -0.190907
     35          6           0        7.382432    0.139685   -0.069620
     36          6           0        7.587893   -1.300067    0.360112
     37          6           0        6.201807    0.806936   -0.181114
     38          6           0       -0.975138    1.722704   -0.319408
     39          6           0        5.011927    0.235363   -0.058275
     40          6           0        0.049975    0.737375   -0.070808
     41          6           0        3.821015    0.969721   -0.175873
     42          6           0        1.489026    1.049240   -0.299288
     43          6           0        2.555814    0.307330    0.081129
     44          6           0        2.418547   -1.145684    0.471574
     45          1           0      -12.981841   -2.907265   -0.858077
     46          1           0      -13.719522   -1.529000   -1.704638
     47          1           0      -13.767806    0.248611    1.812131
     48          1           0      -13.799760    0.763708    0.146095
     49          1           0      -14.471801   -1.715736    0.438881
     50          1           0      -10.593489   -2.964971   -1.776455
     51          1           0      -11.305521   -2.208994   -3.141165
     52          1           0       -9.571747   -1.710927   -2.268463
     53          1           0       -9.376102    0.831014   -1.192373
     54          1           0      -10.454140    0.608555    2.287796
     55          1           0      -11.825606    0.282453    3.043694
     56          1           0      -10.992364   -1.037351    2.249369
     57          1           0      -12.287397    2.066546   -0.105742
     58          1           0      -12.565117    2.402286    1.424476
     59          1           0      -10.857907    2.246928    1.020236
     60          1           0      -11.940469   -2.224676    1.520874
     61          1           0       -8.997052   -1.708917    0.688168
     62          1           0       -5.738323   -1.993537   -0.224014
     63          1           0       -5.771327   -1.450859    1.493033
     64          1           0       -6.882536   -2.590589    0.719126
     65          1           0       -7.352544    1.493413   -0.155807
     66          1           0       -4.702844    0.017515    0.152591
     67          1           0       13.456225   -1.193606    2.376997
     68          1           0       11.896435   -2.129406    1.746498
     69          1           0       13.518099   -2.845528    0.405675
     70          1           0       12.750527   -2.135262   -1.950105
     71          1           0       11.608697   -2.500576   -0.780512
     72          1           0       11.573069    0.447733    3.406523
     73          1           0       10.358872    1.056167    2.571546
     74          1           0       10.202337   -0.646775    2.801590
     75          1           0       13.637608    1.043133    0.480692
     76          1           0       12.640215    2.314144    1.284898
     77          1           0       13.514202    0.878148    2.185825
     78          1           0       12.695167    0.144080   -3.114590
     79          1           0       11.673627    1.473035   -2.387341
     80          1           0       13.358591    0.590705   -1.634304
     81          1           0       -5.498500    3.010938   -0.449236
     82          1           0       10.148799   -0.231497   -2.515263
     83          1           0       14.900787   -1.081099    0.735777
     84          1           0        8.402696    1.918422   -0.441385
     85          1           0       -2.096845    4.468596    0.014487
     86          1           0       -2.762070    4.053108   -1.659031
     87          1           0       -3.824264    4.639958   -0.455534
     88          1           0       -2.567563    0.350984    0.054898
     89          1           0        6.723207   -1.900655    0.120491
     90          1           0        8.320611   -1.760869   -0.186358
     91          1           0        7.871135   -1.344090    1.366733
     92          1           0        6.178712    1.823273   -0.382809
     93          1           0       -0.485672    2.834605   -0.271664
     94          1           0        5.022153   -0.589767    0.458629
     95          1           0       -0.303496   -0.272193    0.143530
     96          1           0        3.764145    1.892359   -0.313520
     97          1           0        1.529049    2.270498   -0.637620
     98          1           0        1.531592   -1.585805    0.611840
     99          1           0        2.702792   -1.982878   -0.294781
    100          1           0        2.894079   -1.541566    1.356577
 ---------------------------------------------------------------------

 SCF Done:  E(RCAM-B3LYP) =  -1857.27712364     A.U. after   15 cycles

 Excitation energies and oscillator strengths:

 Excited State   1:      Singlet-A      2.3016 eV  538.69 nm  f=3.1649  <S**2>=0.000
     163 ->166         0.15675
     164 ->165         0.68352
 This state for optimization and/or second-order correction.
 Total Energy, E(TD-HF/TD-DFT) =  -1857.19254160
 Copying the excited state density for this state as the 1-particle RhoCI density.

 The electronic state is 1-A.
 Alpha  occ. eigenvalues --  -19.24515 -19.21604 -19.21419 -19.20832 -10.32558
 Alpha  occ. eigenvalues --  -10.31988 -10.31862 -10.31479 -10.29286 -10.28488
 Alpha  occ. eigenvalues --  -10.28195 -10.27858 -10.27711 -10.27685 -10.27672
 Alpha  occ. eigenvalues --  -10.27535 -10.27526 -10.27376 -10.26997 -10.26959
 Alpha  occ. eigenvalues --  -10.26775 -10.26760 -10.26735 -10.26628 -10.26573
 Alpha  occ. eigenvalues --  -10.26403 -10.26204 -10.26087 -10.26087 -10.26004
 Alpha  occ. eigenvalues --  -10.25926 -10.25702 -10.25577 -10.25509 -10.25467
 Alpha  occ. eigenvalues --  -10.25174 -10.24717 -10.24697 -10.24560 -10.23759
 Alpha  occ. eigenvalues --  -10.23665 -10.23649 -10.23164 -10.22998  -1.13583
 Alpha  occ. eigenvalues --   -1.13288  -1.07907  -1.04684  -0.93468  -0.92498
 Alpha  occ. eigenvalues --   -0.92364  -0.91971  -0.90859  -0.90032  -0.87469
 Alpha  occ. eigenvalues --   -0.86585  -0.85989  -0.85629  -0.84015  -0.83125
 Alpha  occ. eigenvalues --   -0.82304  -0.81408  -0.80291  -0.78607  -0.77859
 Alpha  occ. eigenvalues --   -0.77757  -0.77302  -0.76764  -0.76385  -0.76239
 Alpha  occ. eigenvalues --   -0.75648  -0.74824  -0.73033  -0.71355  -0.69663
 Alpha  occ. eigenvalues --   -0.68406  -0.66954  -0.65770  -0.65079  -0.64636
 Alpha  occ. eigenvalues --   -0.63334  -0.62357  -0.61175  -0.59918  -0.59076
 Alpha  occ. eigenvalues --   -0.58930  -0.58022  -0.57790  -0.57068  -0.56661
 Alpha  occ. eigenvalues --   -0.56145  -0.55588  -0.55071  -0.54421  -0.54293
 Alpha  occ. eigenvalues --   -0.53731  -0.53411  -0.53116  -0.52517  -0.52226
 Alpha  occ. eigenvalues --   -0.51836  -0.51415  -0.50609  -0.50475  -0.49871
 Alpha  occ. eigenvalues --   -0.49626  -0.49453  -0.49324  -0.48977  -0.48763
 Alpha  occ. eigenvalues --   -0.48391  -0.48240  -0.47506  -0.47330  -0.47164
 Alpha  occ. eigenvalues --   -0.46644  -0.46283  -0.45970  -0.45587  -0.45444
 Alpha  occ. eigenvalues --   -0.45335  -0.45150  -0.44765  -0.44327  -0.43773
 Alpha  occ. eigenvalues --   -0.43494  -0.43287  -0.42774  -0.42722  -0.42512
 Alpha  occ. eigenvalues --   -0.41871  -0.41651  -0.41326  -0.41125  -0.40896
 Alpha  occ. eigenvalues --   -0.40699  -0.40364  -0.40288  -0.40201  -0.39790
 Alpha  occ. eigenvalues --   -0.39614  -0.39491  -0.39433  -0.38828  -0.38594
 Alpha  occ. eigenvalues --   -0.38184  -0.38019  -0.37826  -0.37744  -0.36994
 Alpha  occ. eigenvalues --   -0.36888  -0.36516  -0.35390  -0.34345  -0.33690
 Alpha  occ. eigenvalues --   -0.33400  -0.32600  -0.32160  -0.31886  -0.31231
 Alpha  occ. eigenvalues --   -0.29473  -0.27447  -0.23469  -0.19821
 Alpha virt. eigenvalues --   -0.05357  -0.01115   0.02969   0.06894   0.07658
 Alpha virt. eigenvalues --    0.08046   0.09338   0.10133   0.10823   0.11965
 Alpha virt. eigenvalues --    0.12593   0.12942   0.13388   0.13470   0.13946

 Mulliken charges:
               1
     1  O   -0.518412
     2  O   -0.574396
     3  O   -0.565689
     4  O   -0.509005
     5  C    0.159138
     6  C    0.284136
     7  C   -0.000552
     8  C   -0.213214
     9  C   -0.183007
    10  C    0.156998
    11  C   -0.344690
    12  C   -0.118727
    13  C   -0.265079
    14  C   -0.314186
    15  C   -0.101543
    16  C    0.088882
    17  C   -0.392089
    18  C   -0.122537
    19  C   -0.034318
    20  C    0.026160
    21  C    0.231657
    22  C   -0.230392
    23  C    0.135881
    24  C   -0.200003
    25  C   -0.074328
    26  C   -0.315776
    27  C   -0.301054
    28  C   -0.317164
    29  C   -0.130743
    30  C    0.185816
    31  C    0.098734
    32  C   -0.271253
    33  C   -0.366648
    34  C   -0.110905
    35  C    0.078832
    36  C   -0.380709
    37  C   -0.074642
    38  C   -0.098457
    39  C   -0.072237
    40  C   -0.094318
    41  C   -0.085172
    42  C   -0.140118
    43  C    0.125364
    44  C   -0.383727
    45  H    0.123812
    46  H    0.124084
    47  H    0.074140
    48  H    0.103393
    49  H    0.104755
    50  H    0.109062
    51  H    0.105722
    52  H    0.126633
    53  H    0.126197
    54  H    0.115450
    55  H    0.117163
    56  H    0.052591
    57  H    0.134649
    58  H    0.080616
    59  H    0.113343
    60  H    0.291618
    61  H    0.072483
    62  H    0.137799
    63  H    0.134675
    64  H    0.093573
    65  H    0.064252
    66  H    0.076939
    67  H    0.094355
    68  H    0.102766
    69  H    0.096302
    70  H    0.116921
    71  H    0.119403
    72  H    0.095844
    73  H    0.114819
    74  H    0.081113
    75  H    0.137853
    76  H    0.091148
    77  H    0.087492
    78  H    0.109042
    79  H    0.071396
    80  H    0.137434
    81  H    0.072643
    82  H    0.304324
    83  H    0.312376
    84  H    0.096227
    85  H    0.110023
    86  H    0.135317
    87  H    0.124722
    88  H    0.087100
    89  H    0.106574
    90  H    0.143193
    91  H    0.128933
    92  H    0.068304
    93  H    0.067399
    94  H    0.081455
    95  H    0.084080
    96  H    0.058132
    97  H    0.067034
    98  H    0.120588
    99  H    0.105638
   100  H    0.120595
 Sum of Mulliken charges =  -0.00000

 Dipole moment (field-independent basis, Debye):
    X=              4.3759    Y=             -0.0688    Z=              2.1546  Tot=              4.8781
 Quadrupole moment (field-independent basis, Debye-Ang):
   XX=           -266.0054   YY=           -258.7301   ZZ=           -275.4586
   XY=             -6.4117   XZ=             31.6784   YZ=             -2.2586

 Normal termination of Gaussian 16 at Thu Aug  1 23:55:15 2019.
