 Gaussian 16, Revision A.03,
 Gaussian 16:  ES64L-G16RevA.03 25-Dec-2016

 -------------------------------------
 # td=(NStates=1) CAM-B3LYP/6-31G(d,p)
 -------------------------------------

 --
 TD
 --
 Symbolic Z-matrix:
 Charge =  0 Multiplicity = 1

                         Standard orientation:
 ---------------------------------------------------------------------
 Center     Atomic      Atomic             Coordinates (Angstroms)
 Number     Number       Type             X           Y           Z
 ---------------------------------------------------------------------
      1          8           0      -11.736206    0.360754   -1.472783
      2          8           0      -12.773123   -2.635939    1.251241
      3          8           0       10.559074   -1.194871   -2.055896
      4          8           0       14.415930   -0.877461   -0.221835
      5          6           0      -11.079786   -0.107847   -0.297421
      6          6           0      -11.665098   -1.020769   -1.345337
      7          6           0      -11.770517    0.248320    1.032897
      8          6           0      -13.067873   -1.677914   -1.071573
      9          6           0      -13.194166   -0.270175    1.073912
     10          6           0      -13.474992   -1.557762    0.527642
     11          6           0      -10.908605   -1.773423   -2.355547
     12          6           0       -9.589367    0.173859   -0.402155
     13          6           0      -10.878980   -0.366458    2.245341
     14          6           0      -11.575228    1.739200    1.121537
     15          6           0       -8.659629   -0.712139   -0.019849
     16          6           0       -7.249069   -0.454593    0.235109
     17          6           0       -6.323881   -1.710002    0.376907
     18          6           0       -6.595999    0.750749   -0.015361
     19          6           0       -5.200652    0.956312   -0.029578
     20          6           0       11.840784    0.060093    1.329737
     21          6           0       11.566084   -0.726966   -1.282022
     22          6           0       12.762631   -1.265039    1.613213
     23          6           0       13.370541   -1.807022    0.219127
     24          6           0       12.431474   -1.959723   -0.934494
     25          6           0       11.064303   -0.003657    0.033771
     26          6           0       10.934489    0.159711    2.502261
     27          6           0       12.710959    1.361500    1.221662
     28          6           0       12.463965    0.297424   -2.130910
     29          6           0       -4.698612    2.178338   -0.407071
     30          6           0        9.820522    0.468742   -0.123933
     31          6           0       -3.327352    2.610264   -0.434182
     32          6           0        8.570165    0.967280   -0.197997
     33          6           0       -2.997344    4.044401   -0.637965
     34          6           0       -2.366256    1.680886   -0.329593
     35          6           0        7.411954    0.155494    0.043027
     36          6           0        7.802140   -1.357953    0.476430
     37          6           0        6.212029    0.699802   -0.076504
     38          6           0       -0.924062    1.924865   -0.387258
     39          6           0        4.881738    0.077596    0.034991
     40          6           0        0.030497    0.992481   -0.176184
     41          6           0        3.727325    0.818563    0.019975
     42          6           0        1.403240    1.279087   -0.114325
     43          6           0        2.425605    0.343661    0.026927
     44          6           0        2.196150   -1.198240    0.263797
     45          1           0      -13.011241   -2.611149   -1.266876
     46          1           0      -13.771305   -1.043179   -1.675895
     47          1           0      -13.666413   -0.067211    2.186856
     48          1           0      -13.879685    0.480448    0.390416
     49          1           0      -14.475968   -1.697216    0.730863
     50          1           0      -10.769903   -2.854944   -2.026968
     51          1           0      -11.123482   -1.852048   -3.518379
     52          1           0       -9.895737   -1.437348   -2.595084
     53          1           0       -9.378963    1.247604   -0.801477
     54          1           0       -9.926475    0.279833    2.316413
     55          1           0      -11.468565   -0.183847    3.118773
     56          1           0      -10.771491   -1.375608    2.214957
     57          1           0      -11.837763    2.178229    0.302404
     58          1           0      -11.976081    2.166618    2.092431
     59          1           0      -10.540101    1.995276    1.061417
     60          1           0      -11.914329   -2.625381    1.042272
     61          1           0       -8.799497   -1.696628    0.348045
     62          1           0       -5.640116   -1.820297   -0.473933
     63          1           0       -5.918187   -1.836149    1.241740
     64          1           0       -7.039060   -2.693966    0.405699
     65          1           0       -7.243444    1.677977    0.129717
     66          1           0       -4.482000    0.032908    0.204746
     67          1           0       13.367712   -0.984739    2.581226
     68          1           0       12.013579   -2.035694    2.044837
     69          1           0       13.777918   -2.752045    0.452063
     70          1           0       13.014042   -2.424974   -1.715480
     71          1           0       11.717558   -2.756741   -0.621114
     72          1           0       11.429932    0.162989    3.505764
     73          1           0       10.077204    1.067694    2.568653
     74          1           0       10.276343   -0.467614    2.614451
     75          1           0       13.386654    1.432949    0.366793
     76          1           0       12.246024    2.463593    1.460516
     77          1           0       13.202383    1.235179    2.191959
     78          1           0       12.731142    0.090659   -3.056037
     79          1           0       11.901318    1.052257   -2.454172
     80          1           0       13.281956    0.690784   -1.482400
     81          1           0       -5.273017    2.898439   -0.587941
     82          1           0        9.920659   -0.300983   -2.221885
     83          1           0       15.120793   -0.818133    0.472726
     84          1           0        8.342996    2.069278   -0.532192
     85          1           0       -2.364725    4.257425    0.189215
     86          1           0       -2.298874    4.114387   -1.531531
     87          1           0       -3.854673    4.624596   -0.948738
     88          1           0       -2.525091    0.592749   -0.375626
     89          1           0        6.838221   -1.833591    0.601034
     90          1           0        8.262045   -1.922672   -0.445652
     91          1           0        8.431238   -1.300234    1.302682
     92          1           0        6.244578    1.787912   -0.157181
     93          1           0       -0.688631    2.945908   -0.358731
     94          1           0        4.944695   -1.005318    0.024443
     95          1           0       -0.394878    0.052889    0.215504
     96          1           0        3.853052    1.856147   -0.128076
     97          1           0        1.701924    2.143620   -0.277382
     98          1           0        1.327376   -1.403599    0.392753
     99          1           0        2.516681   -1.629974   -0.525067
    100          1           0        2.801529   -1.500602    1.226610
 ---------------------------------------------------------------------

 SCF Done:  E(RCAM-B3LYP) =  -1857.22653575     A.U. after   15 cycles

 Excitation energies and oscillator strengths:

 Excited State   1:      Singlet-A      2.4461 eV  506.86 nm  f=3.0817  <S**2>=0.000
     163 ->166        -0.15714
     164 ->165         0.68580
 This state for optimization and/or second-order correction.
 Total Energy, E(TD-HF/TD-DFT) =  -1857.13664168
 Copying the excited state density for this state as the 1-particle RhoCI density.

 The electronic state is 1-A.
 Alpha  occ. eigenvalues --  -19.22026 -19.21900 -19.21778 -19.19943 -10.32273
 Alpha  occ. eigenvalues --  -10.32106 -10.31861 -10.31831 -10.30388 -10.29010
 Alpha  occ. eigenvalues --  -10.28607 -10.27896 -10.27733 -10.27407 -10.27345
 Alpha  occ. eigenvalues --  -10.27306 -10.27299 -10.27109 -10.27080 -10.26972
 Alpha  occ. eigenvalues --  -10.26923 -10.26681 -10.26581 -10.26530 -10.26339
 Alpha  occ. eigenvalues --  -10.26213 -10.26056 -10.25862 -10.25716 -10.25664
 Alpha  occ. eigenvalues --  -10.25618 -10.25579 -10.25549 -10.25435 -10.25402
 Alpha  occ. eigenvalues --  -10.25236 -10.25211 -10.25030 -10.24695 -10.24275
 Alpha  occ. eigenvalues --  -10.24230 -10.23482 -10.23132 -10.21084  -1.16689
 Alpha  occ. eigenvalues --   -1.10204  -1.09439  -1.08236  -0.92741  -0.92265
 Alpha  occ. eigenvalues --   -0.91904  -0.91343  -0.90435  -0.89997  -0.87518
 Alpha  occ. eigenvalues --   -0.86496  -0.85775  -0.85309  -0.84235  -0.82835
 Alpha  occ. eigenvalues --   -0.82095  -0.81250  -0.79962  -0.79630  -0.77272
 Alpha  occ. eigenvalues --   -0.77160  -0.76911  -0.76552  -0.76419  -0.76218
 Alpha  occ. eigenvalues --   -0.75436  -0.74596  -0.73909  -0.71135  -0.70151
 Alpha  occ. eigenvalues --   -0.68838  -0.67341  -0.65490  -0.64938  -0.64661
 Alpha  occ. eigenvalues --   -0.63876  -0.62567  -0.61594  -0.60232  -0.59812
 Alpha  occ. eigenvalues --   -0.58643  -0.58488  -0.58188  -0.57355  -0.57066
 Alpha  occ. eigenvalues --   -0.55968  -0.55512  -0.55317  -0.54962  -0.54465
 Alpha  occ. eigenvalues --   -0.54111  -0.52835  -0.52522  -0.52118  -0.51918
 Alpha  occ. eigenvalues --   -0.51554  -0.51299  -0.50772  -0.50286  -0.50241
 Alpha  occ. eigenvalues --   -0.49926  -0.49673  -0.49077  -0.48960  -0.48534
 Alpha  occ. eigenvalues --   -0.48448  -0.47904  -0.47629  -0.47110  -0.46724
 Alpha  occ. eigenvalues --   -0.46438  -0.46290  -0.46077  -0.45616  -0.45518
 Alpha  occ. eigenvalues --   -0.45051  -0.44941  -0.44371  -0.44146  -0.44092
 Alpha  occ. eigenvalues --   -0.43732  -0.43525  -0.43076  -0.42878  -0.42663
 Alpha  occ. eigenvalues --   -0.42431  -0.42401  -0.42040  -0.41654  -0.41360
 Alpha  occ. eigenvalues --   -0.41120  -0.40888  -0.40593  -0.40409  -0.40163
 Alpha  occ. eigenvalues --   -0.40112  -0.39333  -0.39122  -0.38980  -0.38582
 Alpha  occ. eigenvalues --   -0.38289  -0.38079  -0.37514  -0.37416  -0.36608
 Alpha  occ. eigenvalues --   -0.36472  -0.36065  -0.35313  -0.34596  -0.33922
 Alpha  occ. eigenvalues --   -0.32402  -0.32249  -0.31634  -0.31476  -0.30955
 Alpha  occ. eigenvalues --   -0.28902  -0.28103  -0.24317  -0.20413
 Alpha virt. eigenvalues --   -0.05134  -0.00849   0.03471   0.06317   0.06705
 Alpha virt. eigenvalues --    0.10253   0.10764   0.10986   0.11634   0.11999
 Alpha virt. eigenvalues --    0.12690   0.12918   0.13478   0.13918   0.14393

 Mulliken charges:
               1
     1  O   -0.498622
     2  O   -0.555049
     3  O   -0.564553
     4  O   -0.555058
     5  C    0.174098
     6  C    0.257685
     7  C    0.026295
     8  C   -0.193249
     9  C   -0.171988
    10  C    0.148487
    11  C   -0.363899
    12  C   -0.123353
    13  C   -0.299079
    14  C   -0.308689
    15  C   -0.029283
    16  C    0.031933
    17  C   -0.366042
    18  C   -0.117990
    19  C   -0.062066
    20  C    0.024556
    21  C    0.276365
    22  C   -0.216297
    23  C    0.150758
    24  C   -0.187844
    25  C   -0.057720
    26  C   -0.296576
    27  C   -0.283980
    28  C   -0.305515
    29  C   -0.069667
    30  C    0.107268
    31  C    0.078294
    32  C   -0.271254
    33  C   -0.379233
    34  C   -0.119869
    35  C    0.103569
    36  C   -0.354576
    37  C   -0.123612
    38  C   -0.088121
    39  C   -0.097368
    40  C   -0.093433
    41  C   -0.109510
    42  C   -0.083470
    43  C    0.074629
    44  C   -0.317602
    45  H    0.107315
    46  H    0.116948
    47  H    0.082183
    48  H    0.083121
    49  H    0.109415
    50  H    0.097885
    51  H    0.108819
    52  H    0.125104
    53  H    0.108690
    54  H    0.105633
    55  H    0.104323
    56  H    0.093423
    57  H    0.126176
    58  H    0.095926
    59  H    0.100711
    60  H    0.293379
    61  H    0.075480
    62  H    0.130921
    63  H    0.138484
    64  H    0.065766
    65  H    0.084671
    66  H    0.089507
    67  H    0.094819
    68  H    0.094226
    69  H    0.092263
    70  H    0.126813
    71  H    0.104763
    72  H    0.086800
    73  H    0.074418
    74  H    0.118477
    75  H    0.125369
    76  H    0.086424
    77  H    0.085593
    78  H    0.103597
    79  H    0.079650
    80  H    0.122916
    81  H    0.047672
    82  H    0.307363
    83  H    0.307934
    84  H    0.101062
    85  H    0.142489
    86  H    0.123114
    87  H    0.115516
    88  H    0.075576
    89  H    0.100364
    90  H    0.127433
    91  H    0.134517
    92  H    0.072914
    93  H    0.069099
    94  H    0.087767
    95  H    0.085566
    96  H    0.081498
    97  H    0.052026
    98  H    0.102009
    99  H    0.134931
   100  H    0.101768
 Sum of Mulliken charges =  -0.00000

 Dipole moment (field-independent basis, Debye):
    X=              3.0710    Y=              0.2587    Z=              1.7641  Tot=              3.5510
 Quadrupole moment (field-independent basis, Debye-Ang):
   XX=           -276.5406   YY=           -260.2382   ZZ=           -273.8492
   XY=            -13.2342   XZ=             30.8453   YZ=             -2.0488

 Normal termination of Gaussian 16 at Mon Jul 29 16:37:02 2019.
