 Gaussian 16, Revision A.03,
 Gaussian 16:  ES64L-G16RevA.03 25-Dec-2016

 -------------------------------------
 # td=(NStates=1) CAM-B3LYP/6-31G(d,p)
 -------------------------------------

 --
 TD
 --
 Symbolic Z-matrix:
 Charge =  0 Multiplicity = 1

                         Standard orientation:
 ---------------------------------------------------------------------
 Center     Atomic      Atomic             Coordinates (Angstroms)
 Number     Number       Type             X           Y           Z
 ---------------------------------------------------------------------
      1          8           0      -11.661893    0.334118   -1.591183
      2          8           0      -13.209221   -2.516549    1.428464
      3          8           0       10.638020   -1.292355   -1.920917
      4          8           0       14.537146   -0.985369   -0.142270
      5          6           0      -11.026740   -0.082652   -0.348424
      6          6           0      -11.681169   -1.063584   -1.164098
      7          6           0      -11.802360    0.451898    0.900679
      8          6           0      -13.052437   -1.701581   -0.915381
      9          6           0      -13.326763   -0.038708    0.917172
     10          6           0      -13.601685   -1.408870    0.522006
     11          6           0      -10.783616   -2.000443   -2.183431
     12          6           0       -9.589021    0.118236   -0.362431
     13          6           0      -11.064955   -0.030623    2.208546
     14          6           0      -11.586625    1.936524    0.951992
     15          6           0       -8.648502   -0.741868    0.147114
     16          6           0       -7.226655   -0.659101    0.196139
     17          6           0       -6.452311   -1.909063    0.369974
     18          6           0       -6.494027    0.531887   -0.019428
     19          6           0       -5.135098    0.769849   -0.061098
     20          6           0       11.911534    0.216937    1.300828
     21          6           0       11.665074   -0.731459   -1.197607
     22          6           0       12.750046   -1.128080    1.572285
     23          6           0       13.369709   -1.725395    0.342574
     24          6           0       12.399671   -2.023322   -0.787933
     25          6           0       11.088669    0.063891    0.050151
     26          6           0       11.057336    0.432723    2.478084
     27          6           0       12.723930    1.438014    1.109383
     28          6           0       12.460829    0.167084   -2.196454
     29          6           0       -4.747163    2.142162   -0.397549
     30          6           0        9.907476    0.524730   -0.121580
     31          6           0       -3.389371    2.450313   -0.530321
     32          6           0        8.642748    0.958685   -0.159187
     33          6           0       -3.104180    3.934818   -0.825932
     34          6           0       -2.297412    1.575719   -0.271722
     35          6           0        7.503630    0.148561    0.018315
     36          6           0        7.717713   -1.393964    0.296739
     37          6           0        6.305733    0.662459   -0.165294
     38          6           0       -0.901822    1.866457   -0.325015
     39          6           0        4.972565    0.067621    0.125945
     40          6           0        0.066878    0.944144   -0.131334
     41          6           0        3.797661    0.769636   -0.199034
     42          6           0        1.421418    1.211529   -0.295474
     43          6           0        2.459310    0.315691    0.015799
     44          6           0        2.276229   -1.088696    0.575253
     45          1           0      -13.237244   -2.747177   -1.123477
     46          1           0      -13.928782   -1.210817   -1.556869
     47          1           0      -13.721490    0.261625    2.031986
     48          1           0      -13.805471    0.657802    0.242737
     49          1           0      -14.711541   -1.465751    0.182155
     50          1           0      -11.023689   -3.145270   -1.690464
     51          1           0      -11.289649   -1.832141   -3.224111
     52          1           0       -9.536977   -1.648327   -1.990261
     53          1           0       -9.193066    1.193737   -0.588031
     54          1           0       -9.966954    0.274466    2.215584
     55          1           0      -11.714849    0.237624    2.953064
     56          1           0      -11.380732   -1.116326    2.160676
     57          1           0      -11.807218    2.427176   -0.012873
     58          1           0      -12.029732    2.500193    1.753618
     59          1           0      -10.519025    2.181645    0.978818
     60          1           0      -12.252198   -2.792785    1.098817
     61          1           0       -9.006205   -1.768847    0.593358
     62          1           0       -6.015091   -1.945547   -0.737296
     63          1           0       -5.569880   -1.724543    1.079591
     64          1           0       -6.831336   -2.674202    0.736545
     65          1           0       -7.154902    1.446634   -0.119861
     66          1           0       -4.477133    0.082490    0.068669
     67          1           0       13.415425   -0.683694    2.356939
     68          1           0       12.037825   -1.875169    2.014813
     69          1           0       13.652521   -2.621349    0.791925
     70          1           0       12.838652   -2.308652   -1.692859
     71          1           0       11.751756   -2.693323   -0.412164
     72          1           0       11.647849    0.798195    3.509014
     73          1           0       10.503811    1.401802    2.303093
     74          1           0       10.162271   -0.370993    2.620788
     75          1           0       13.453760    1.390805    0.218670
     76          1           0       12.007502    2.449674    1.049739
     77          1           0       13.457284    1.552735    2.040904
     78          1           0       12.671418   -0.223362   -3.106514
     79          1           0       11.845499    1.010592   -2.444133
     80          1           0       13.334092    0.575996   -1.780148
     81          1           0       -5.468469    2.899573   -0.602827
     82          1           0        9.850099   -0.827812   -2.120246
     83          1           0       15.018405   -0.758582    0.737343
     84          1           0        8.478376    1.899662   -0.516318
     85          1           0       -2.389013    4.449799   -0.217610
     86          1           0       -2.593025    3.977880   -1.848658
     87          1           0       -3.942523    4.495586   -0.819056
     88          1           0       -2.462713    0.435584   -0.027366
     89          1           0        6.768257   -2.031106    0.307019
     90          1           0        8.592900   -1.727268   -0.230458
     91          1           0        8.269458   -1.632450    1.258601
     92          1           0        6.219003    1.634938   -0.407321
     93          1           0       -0.619278    2.806577   -0.656455
     94          1           0        4.730482   -1.026052    0.702793
     95          1           0       -0.122392    0.079630    0.606389
     96          1           0        4.036098    1.808328   -0.434746
     97          1           0        1.552745    2.260453   -0.549851
     98          1           0        1.166063   -1.436447    0.494124
     99          1           0        2.687757   -1.836892   -0.356764
    100          1           0        2.671366   -1.218028    1.324716
 ---------------------------------------------------------------------

 SCF Done:  E(RCAM-B3LYP) =  -1857.21634647     A.U. after   15 cycles

 Excitation energies and oscillator strengths:

 Excited State   1:      Singlet-A      1.9404 eV  638.96 nm  f=2.7362  <S**2>=0.000
     163 ->166         0.12466
     164 ->165         0.70235
     164 <-165        -0.11747
 This state for optimization and/or second-order correction.
 Total Energy, E(TD-HF/TD-DFT) =  -1857.14503789
 Copying the excited state density for this state as the 1-particle RhoCI density.

 The electronic state is 1-A.
 Alpha  occ. eigenvalues --  -19.22692 -19.22417 -19.21798 -19.20009 -10.32610
 Alpha  occ. eigenvalues --  -10.32138 -10.31783 -10.31724 -10.30263 -10.29384
 Alpha  occ. eigenvalues --  -10.28567 -10.28385 -10.28045 -10.28041 -10.27738
 Alpha  occ. eigenvalues --  -10.27680 -10.27594 -10.27499 -10.27470 -10.27466
 Alpha  occ. eigenvalues --  -10.27434 -10.27404 -10.27376 -10.27115 -10.26987
 Alpha  occ. eigenvalues --  -10.26712 -10.26669 -10.26569 -10.26516 -10.26450
 Alpha  occ. eigenvalues --  -10.26445 -10.26437 -10.26433 -10.26365 -10.26291
 Alpha  occ. eigenvalues --  -10.26134 -10.26035 -10.25611 -10.25459 -10.25197
 Alpha  occ. eigenvalues --  -10.23931 -10.23925 -10.23670 -10.22193  -1.13969
 Alpha  occ. eigenvalues --   -1.11040  -1.08102  -1.07122  -0.93990  -0.92482
 Alpha  occ. eigenvalues --   -0.92106  -0.91501  -0.90741  -0.90105  -0.87879
 Alpha  occ. eigenvalues --   -0.87070  -0.86711  -0.85583  -0.84834  -0.83137
 Alpha  occ. eigenvalues --   -0.82623  -0.80598  -0.79741  -0.79577  -0.77384
 Alpha  occ. eigenvalues --   -0.77060  -0.76877  -0.76639  -0.75879  -0.75240
 Alpha  occ. eigenvalues --   -0.74670  -0.74209  -0.73360  -0.70794  -0.70417
 Alpha  occ. eigenvalues --   -0.68458  -0.67552  -0.65388  -0.65129  -0.64063
 Alpha  occ. eigenvalues --   -0.63762  -0.62364  -0.61880  -0.60688  -0.60160
 Alpha  occ. eigenvalues --   -0.59323  -0.58645  -0.58124  -0.57777  -0.56279
 Alpha  occ. eigenvalues --   -0.56067  -0.55694  -0.55319  -0.54599  -0.53993
 Alpha  occ. eigenvalues --   -0.53761  -0.53686  -0.53001  -0.52731  -0.52331
 Alpha  occ. eigenvalues --   -0.52163  -0.51473  -0.51076  -0.50138  -0.49549
 Alpha  occ. eigenvalues --   -0.49244  -0.48815  -0.48618  -0.48461  -0.47971
 Alpha  occ. eigenvalues --   -0.47739  -0.47302  -0.46863  -0.46835  -0.46504
 Alpha  occ. eigenvalues --   -0.46225  -0.46133  -0.45983  -0.45830  -0.45440
 Alpha  occ. eigenvalues --   -0.45340  -0.44965  -0.44848  -0.44735  -0.44014
 Alpha  occ. eigenvalues --   -0.43847  -0.43599  -0.43418  -0.42972  -0.42510
 Alpha  occ. eigenvalues --   -0.42167  -0.42061  -0.41826  -0.41529  -0.41460
 Alpha  occ. eigenvalues --   -0.40908  -0.40845  -0.40680  -0.40330  -0.40171
 Alpha  occ. eigenvalues --   -0.40023  -0.39924  -0.39124  -0.39087  -0.38584
 Alpha  occ. eigenvalues --   -0.38306  -0.37894  -0.37506  -0.37287  -0.36523
 Alpha  occ. eigenvalues --   -0.36329  -0.35766  -0.35088  -0.34528  -0.33481
 Alpha  occ. eigenvalues --   -0.32729  -0.32394  -0.32067  -0.31474  -0.31068
 Alpha  occ. eigenvalues --   -0.30385  -0.28050  -0.24176  -0.19314
 Alpha virt. eigenvalues --   -0.06936  -0.01285   0.03070   0.06008   0.07600
 Alpha virt. eigenvalues --    0.07846   0.09414   0.09670   0.11275   0.11358
 Alpha virt. eigenvalues --    0.12185   0.12332   0.12659   0.12790   0.13149

 Mulliken charges:
               1
     1  O   -0.508168
     2  O   -0.552064
     3  O   -0.564817
     4  O   -0.560581
     5  C    0.254033
     6  C    0.216560
     7  C    0.002330
     8  C   -0.248813
     9  C   -0.178102
    10  C    0.150802
    11  C   -0.297603
    12  C   -0.135988
    13  C   -0.292360
    14  C   -0.318455
    15  C   -0.085652
    16  C    0.063981
    17  C   -0.340489
    18  C   -0.109277
    19  C   -0.024571
    20  C    0.035618
    21  C    0.258247
    22  C   -0.214552
    23  C    0.150653
    24  C   -0.151383
    25  C   -0.103549
    26  C   -0.295550
    27  C   -0.288700
    28  C   -0.310079
    29  C   -0.128458
    30  C    0.140881
    31  C    0.085086
    32  C   -0.266290
    33  C   -0.376763
    34  C   -0.123014
    35  C    0.169842
    36  C   -0.380967
    37  C   -0.142304
    38  C   -0.079315
    39  C   -0.097108
    40  C   -0.085177
    41  C   -0.103699
    42  C   -0.112624
    43  C    0.073854
    44  C   -0.325507
    45  H    0.125003
    46  H    0.110216
    47  H    0.087341
    48  H    0.122633
    49  H    0.096538
    50  H    0.058685
    51  H    0.126917
    52  H    0.103988
    53  H    0.103198
    54  H    0.115240
    55  H    0.109447
    56  H    0.072271
    57  H    0.108982
    58  H    0.104310
    59  H    0.095764
    60  H    0.310972
    61  H    0.073342
    62  H    0.124247
    63  H    0.105918
    64  H    0.107641
    65  H    0.068439
    66  H    0.073239
    67  H    0.093084
    68  H    0.105092
    69  H    0.089818
    70  H    0.126928
    71  H    0.112832
    72  H    0.075394
    73  H    0.103803
    74  H    0.092064
    75  H    0.121971
    76  H    0.090186
    77  H    0.069000
    78  H    0.115563
    79  H    0.090010
    80  H    0.124218
    81  H    0.096547
    82  H    0.300245
    83  H    0.306863
    84  H    0.103796
    85  H    0.125700
    86  H    0.113501
    87  H    0.114529
    88  H    0.074477
    89  H    0.113519
    90  H    0.124654
    91  H    0.101024
    92  H    0.077194
    93  H    0.078767
    94  H    0.071556
    95  H    0.085523
    96  H    0.082600
    97  H    0.086081
    98  H    0.108223
    99  H    0.096419
   100  H    0.124581
 Sum of Mulliken charges =  -0.00000

 Dipole moment (field-independent basis, Debye):
    X=              2.7837    Y=              0.5394    Z=              1.9865  Tot=              3.4621
 Quadrupole moment (field-independent basis, Debye-Ang):
   XX=           -296.8757   YY=           -259.4645   ZZ=           -280.3289
   XY=              3.0810   XZ=             31.7894   YZ=             -3.0594

 Normal termination of Gaussian 16 at Mon Jul 29 15:12:56 2019.
