 Gaussian 16, Revision A.03,
 Gaussian 16:  ES64L-G16RevA.03 25-Dec-2016

 -------------------------------------
 # td=(NStates=1) CAM-B3LYP/6-31G(d,p)
 -------------------------------------

 --
 TD
 --
 Symbolic Z-matrix:
 Charge =  0 Multiplicity = 1

                         Standard orientation:
 ---------------------------------------------------------------------
 Center     Atomic      Atomic             Coordinates (Angstroms)
 Number     Number       Type             X           Y           Z
 ---------------------------------------------------------------------
      1          8           0      -11.761461    0.356972   -1.273891
      2          8           0      -12.894033   -2.647053    1.276189
      3          8           0       10.609001   -1.111080   -2.072813
      4          8           0       14.438805   -1.169221   -0.071250
      5          6           0      -11.073462   -0.191752   -0.213817
      6          6           0      -11.687571   -1.074079   -1.296400
      7          6           0      -11.670403    0.140196    1.172244
      8          6           0      -12.958226   -1.772337   -0.961280
      9          6           0      -13.294768   -0.268225    1.000159
     10          6           0      -13.417939   -1.675585    0.431631
     11          6           0      -10.893268   -1.677005   -2.352129
     12          6           0       -9.540285    0.059926   -0.316565
     13          6           0      -10.897438   -0.509688    2.232819
     14          6           0      -11.573338    1.683874    1.445292
     15          6           0       -8.556055   -0.872171    0.017338
     16          6           0       -7.163430   -0.637919    0.011672
     17          6           0       -6.123885   -1.678942    0.145670
     18          6           0       -6.625853    0.689028   -0.173483
     19          6           0       -5.327388    1.022097   -0.223264
     20          6           0       11.859298    0.032988    1.399728
     21          6           0       11.633707   -0.757677   -1.147051
     22          6           0       12.617881   -1.363899    1.526773
     23          6           0       13.307594   -1.991668    0.375376
     24          6           0       12.295705   -2.085618   -0.831098
     25          6           0       11.048045   -0.082189    0.102766
     26          6           0       10.860353    0.160832    2.492387
     27          6           0       12.815989    1.232113    1.420892
     28          6           0       12.529682    0.288986   -1.940373
     29          6           0       -4.775617    2.360984   -0.162481
     30          6           0        9.827139    0.476684   -0.098454
     31          6           0       -3.413236    2.684300   -0.346975
     32          6           0        8.640812    1.005651   -0.209072
     33          6           0       -3.033221    4.151471   -0.584540
     34          6           0       -2.307479    1.758303   -0.209151
     35          6           0        7.459640    0.216216   -0.002839
     36          6           0        7.627507   -1.278262    0.195853
     37          6           0        6.249438    0.845998   -0.246225
     38          6           0       -1.014234    2.042912   -0.401749
     39          6           0        4.879732    0.295128   -0.198009
     40          6           0        0.127796    1.125049   -0.140061
     41          6           0        3.755828    1.048406   -0.266040
     42          6           0        1.470490    1.524882   -0.308676
     43          6           0        2.383347    0.570981   -0.121786
     44          6           0        2.275023   -0.960489    0.059063
     45          1           0      -12.814184   -2.745680   -1.100189
     46          1           0      -13.604769   -1.392146   -1.777899
     47          1           0      -13.620640   -0.450372    2.059451
     48          1           0      -13.904263    0.600680    0.425137
     49          1           0      -14.495495   -1.980361    0.415403
     50          1           0      -10.532892   -2.688090   -2.247958
     51          1           0      -11.470547   -1.601062   -3.280841
     52          1           0      -10.099324   -1.034918   -2.528177
     53          1           0       -9.430478    1.165628   -0.645970
     54          1           0       -9.873812   -0.158291    2.207084
     55          1           0      -11.315907   -0.382700    3.346408
     56          1           0      -10.762562   -1.606860    2.156929
     57          1           0      -12.216929    2.190437    0.489710
     58          1           0      -12.102855    2.099379    2.342175
     59          1           0      -10.559461    2.040214    1.522811
     60          1           0      -11.982784   -2.734134    1.206179
     61          1           0       -8.953699   -1.732501    0.184146
     62          1           0       -5.073213   -1.804405   -0.593641
     63          1           0       -5.880145   -1.916203    1.355001
     64          1           0       -6.797724   -2.661833   -0.184145
     65          1           0       -7.441255    1.416332   -0.126177
     66          1           0       -4.828084    0.037972   -0.326737
     67          1           0       13.420487   -1.124888    2.246013
     68          1           0       11.971847   -2.073584    1.977322
     69          1           0       13.493455   -3.130088    0.656210
     70          1           0       12.894364   -2.439159   -1.706904
     71          1           0       11.429054   -2.788175   -0.476576
     72          1           0       11.557417    0.282753    3.428389
     73          1           0       10.257684    1.212734    2.594308
     74          1           0       10.131528   -0.828975    2.526701
     75          1           0       13.563627    1.102212    0.740348
     76          1           0       12.188311    2.094045    1.368699
     77          1           0       13.296076    1.223841    2.489163
     78          1           0       12.715866   -0.197713   -2.774949
     79          1           0       11.930802    1.193439   -2.085251
     80          1           0       13.502481    0.541608   -1.198046
     81          1           0       -5.606741    3.051646   -0.238491
     82          1           0       10.010882   -0.302773   -2.019883
     83          1           0       15.124731   -1.254350    0.561647
     84          1           0        8.424104    1.976171   -0.454180
     85          1           0       -2.205213    4.578053    0.057438
     86          1           0       -2.857394    4.152296   -1.893986
     87          1           0       -3.905814    4.879662   -0.480734
     88          1           0       -2.527917    0.711004    0.049995
     89          1           0        6.512810   -1.701657    0.171356
     90          1           0        8.211567   -1.766229   -0.659207
     91          1           0        8.054491   -1.620562    1.218105
     92          1           0        6.326677    1.926397   -0.063088
     93          1           0       -0.672272    3.005139   -0.972210
     94          1           0        4.915168   -0.748298   -0.073443
     95          1           0        0.079796    0.109881    0.130027
     96          1           0        4.007237    2.068046   -0.193358
     97          1           0        1.849713    2.495401   -0.460326
     98          1           0        1.185269   -1.198342    0.502657
     99          1           0        2.157036   -1.440706   -1.150429
    100          1           0        3.277936   -1.323842    0.749230
 ---------------------------------------------------------------------

 SCF Done:  E(RCAM-B3LYP) =  -1857.26731977     A.U. after   17 cycles

 Excitation energies and oscillator strengths:

 Excited State   1:      Singlet-A      1.7862 eV  694.12 nm  f=2.5916  <S**2>=0.000
     163 ->166         0.10727
     164 ->165         0.71236
     164 <-165        -0.15175
 This state for optimization and/or second-order correction.
 Total Energy, E(TD-HF/TD-DFT) =  -1857.20167791
 Copying the excited state density for this state as the 1-particle RhoCI density.

 The electronic state is 1-A.
 Alpha  occ. eigenvalues --  -19.22739 -19.22663 -19.21269 -19.20177 -10.32520
 Alpha  occ. eigenvalues --  -10.31767 -10.31745 -10.30897 -10.30827 -10.30277
 Alpha  occ. eigenvalues --  -10.30265 -10.28416 -10.28359 -10.28354 -10.28230
 Alpha  occ. eigenvalues --  -10.28059 -10.27701 -10.27695 -10.27660 -10.27474
 Alpha  occ. eigenvalues --  -10.27390 -10.27348 -10.27325 -10.27108 -10.27002
 Alpha  occ. eigenvalues --  -10.26907 -10.26492 -10.26476 -10.26398 -10.26382
 Alpha  occ. eigenvalues --  -10.26192 -10.26154 -10.26118 -10.26084 -10.25897
 Alpha  occ. eigenvalues --  -10.25719 -10.25687 -10.25607 -10.25497 -10.25411
 Alpha  occ. eigenvalues --  -10.24863 -10.24525 -10.24031 -10.23557  -1.17111
 Alpha  occ. eigenvalues --   -1.11835  -1.10310  -1.08626  -0.93162  -0.92495
 Alpha  occ. eigenvalues --   -0.92112  -0.91191  -0.90174  -0.89589  -0.88649
 Alpha  occ. eigenvalues --   -0.86876  -0.85928  -0.85605  -0.84009  -0.83297
 Alpha  occ. eigenvalues --   -0.82345  -0.80737  -0.79911  -0.77643  -0.77025
 Alpha  occ. eigenvalues --   -0.76976  -0.75613  -0.75407  -0.75109  -0.75035
 Alpha  occ. eigenvalues --   -0.74746  -0.73645  -0.72911  -0.70459  -0.69214
 Alpha  occ. eigenvalues --   -0.68197  -0.66694  -0.65415  -0.65014  -0.64193
 Alpha  occ. eigenvalues --   -0.63460  -0.61680  -0.60497  -0.60247  -0.60100
 Alpha  occ. eigenvalues --   -0.58722  -0.58349  -0.58046  -0.57135  -0.56793
 Alpha  occ. eigenvalues --   -0.56014  -0.55747  -0.55281  -0.55082  -0.54253
 Alpha  occ. eigenvalues --   -0.54122  -0.53064  -0.52781  -0.52268  -0.51241
 Alpha  occ. eigenvalues --   -0.51135  -0.50975  -0.50549  -0.50062  -0.49968
 Alpha  occ. eigenvalues --   -0.49417  -0.49189  -0.48406  -0.48185  -0.47783
 Alpha  occ. eigenvalues --   -0.47530  -0.47171  -0.47071  -0.47020  -0.46868
 Alpha  occ. eigenvalues --   -0.46620  -0.46363  -0.46207  -0.45472  -0.45119
 Alpha  occ. eigenvalues --   -0.45039  -0.44937  -0.44591  -0.43890  -0.43848
 Alpha  occ. eigenvalues --   -0.43287  -0.42944  -0.42836  -0.42647  -0.42294
 Alpha  occ. eigenvalues --   -0.42219  -0.41944  -0.41809  -0.41098  -0.40793
 Alpha  occ. eigenvalues --   -0.40468  -0.40429  -0.40401  -0.39963  -0.39670
 Alpha  occ. eigenvalues --   -0.39567  -0.39396  -0.39117  -0.38913  -0.38751
 Alpha  occ. eigenvalues --   -0.38360  -0.37812  -0.37567  -0.37345  -0.36975
 Alpha  occ. eigenvalues --   -0.36157  -0.35526  -0.34899  -0.34333  -0.34257
 Alpha  occ. eigenvalues --   -0.33939  -0.32300  -0.32183  -0.31256  -0.31034
 Alpha  occ. eigenvalues --   -0.28890  -0.27365  -0.24443  -0.18330
 Alpha virt. eigenvalues --   -0.07275  -0.00888   0.02589   0.05883   0.07064
 Alpha virt. eigenvalues --    0.09366   0.09948   0.10389   0.10554   0.11353
 Alpha virt. eigenvalues --    0.11555   0.12482   0.12675   0.12834   0.13102

 Mulliken charges:
               1
     1  O   -0.497817
     2  O   -0.536185
     3  O   -0.569072
     4  O   -0.542103
     5  C    0.191555
     6  C    0.219339
     7  C    0.030579
     8  C   -0.185881
     9  C   -0.187958
    10  C    0.154528
    11  C   -0.338202
    12  C   -0.128026
    13  C   -0.303856
    14  C   -0.308733
    15  C   -0.059834
    16  C    0.103086
    17  C   -0.374935
    18  C   -0.092585
    19  C   -0.043077
    20  C    0.023570
    21  C    0.222227
    22  C   -0.171359
    23  C    0.122514
    24  C   -0.172139
    25  C   -0.031703
    26  C   -0.283559
    27  C   -0.284321
    28  C   -0.273882
    29  C   -0.146912
    30  C    0.094730
    31  C    0.089304
    32  C   -0.264757
    33  C   -0.352237
    34  C   -0.091852
    35  C    0.116385
    36  C   -0.366033
    37  C   -0.135890
    38  C   -0.101794
    39  C   -0.088282
    40  C   -0.100731
    41  C   -0.112648
    42  C   -0.074967
    43  C    0.107004
    44  C   -0.336304
    45  H    0.107878
    46  H    0.112797
    47  H    0.101644
    48  H    0.099922
    49  H    0.094345
    50  H    0.115144
    51  H    0.111551
    52  H    0.132239
    53  H    0.109661
    54  H    0.121348
    55  H    0.093446
    56  H    0.067085
    57  H    0.085978
    58  H    0.109282
    59  H    0.107261
    60  H    0.295632
    61  H    0.062073
    62  H    0.118875
    63  H    0.110169
    64  H    0.075570
    65  H    0.064356
    66  H    0.066332
    67  H    0.075941
    68  H    0.102844
    69  H    0.082366
    70  H    0.112824
    71  H    0.101493
    72  H    0.077307
    73  H    0.099066
    74  H    0.090631
    75  H    0.127177
    76  H    0.114281
    77  H    0.078062
    78  H    0.121301
    79  H    0.087560
    80  H    0.099997
    81  H    0.094730
    82  H    0.301310
    83  H    0.307372
    84  H    0.104669
    85  H    0.127489
    86  H    0.083254
    87  H    0.108688
    88  H    0.085609
    89  H    0.081606
    90  H    0.137561
    91  H    0.114344
    92  H    0.075998
    93  H    0.090141
    94  H    0.072719
    95  H    0.068604
    96  H    0.079793
    97  H    0.091005
    98  H    0.104237
    99  H    0.106946
   100  H    0.113300
 Sum of Mulliken charges =  -0.00000

 Dipole moment (field-independent basis, Debye):
    X=              2.4612    Y=             -0.6479    Z=              2.2338  Tot=              3.3863
 Quadrupole moment (field-independent basis, Debye-Ang):
   XX=           -268.5753   YY=           -260.6077   ZZ=           -279.2938
   XY=              0.9067   XZ=             43.0617   YZ=             -0.6958

 Normal termination of Gaussian 16 at Thu Aug  1 05:36:52 2019.
