 Gaussian 16, Revision A.03,
 Gaussian 16:  ES64L-G16RevA.03 25-Dec-2016

 -------------------------------------
 # td=(NStates=1) CAM-B3LYP/6-31G(d,p)
 -------------------------------------

 --
 TD
 --
 Symbolic Z-matrix:
 Charge =  0 Multiplicity = 1

                         Standard orientation:
 ---------------------------------------------------------------------
 Center     Atomic      Atomic             Coordinates (Angstroms)
 Number     Number       Type             X           Y           Z
 ---------------------------------------------------------------------
      1          8           0      -11.694898    0.181136   -1.452997
      2          8           0      -12.883639   -2.317687    1.567616
      3          8           0       10.607944   -0.889871   -2.046637
      4          8           0       14.449738   -0.953586   -0.199699
      5          6           0      -11.009503   -0.122625   -0.367202
      6          6           0      -11.612453   -1.186749   -1.151880
      7          6           0      -11.740416    0.513542    0.938300
      8          6           0      -13.059936   -1.723142   -0.849435
      9          6           0      -13.197890    0.069160    0.936113
     10          6           0      -13.488664   -1.432030    0.600474
     11          6           0      -10.790135   -2.051234   -1.970874
     12          6           0       -9.527382    0.062820   -0.408784
     13          6           0      -11.049024    0.136923    2.242228
     14          6           0      -11.692205    2.027802    0.759513
     15          6           0       -8.731334   -0.820044   -0.064897
     16          6           0       -7.251397   -0.684624    0.101216
     17          6           0       -6.469488   -1.865548    0.390661
     18          6           0       -6.689435    0.612639   -0.218284
     19          6           0       -5.291566    0.739073   -0.233079
     20          6           0       11.815137    0.093704    1.410700
     21          6           0       11.634327   -0.557829   -1.207170
     22          6           0       12.649761   -1.330553    1.530617
     23          6           0       13.289118   -1.821268    0.257269
     24          6           0       12.385526   -1.937609   -0.955044
     25          6           0       11.061393    0.107404    0.154116
     26          6           0       10.840511    0.173545    2.642859
     27          6           0       12.827076    1.231713    1.373989
     28          6           0       12.590727    0.499227   -1.898617
     29          6           0       -4.723836    2.028005   -0.452442
     30          6           0        9.911500    0.638933    0.010844
     31          6           0       -3.394617    2.350453   -0.427025
     32          6           0        8.681454    1.044212   -0.055953
     33          6           0       -3.046104    3.851459   -0.742275
     34          6           0       -2.323843    1.499094   -0.223448
     35          6           0        7.489589    0.187234    0.001070
     36          6           0        7.822021   -1.292812    0.100061
     37          6           0        6.287402    0.652895   -0.129691
     38          6           0       -0.998622    1.747801   -0.207336
     39          6           0        4.993117    0.061008    0.013199
     40          6           0        0.016190    0.908774   -0.104590
     41          6           0        3.748691    0.744309   -0.059812
     42          6           0        1.323149    1.192379   -0.155694
     43          6           0        2.443059    0.349281   -0.048673
     44          6           0        2.261214   -1.130055    0.196178
     45          1           0      -13.124974   -2.845372   -1.233980
     46          1           0      -13.623237   -1.234162   -1.496477
     47          1           0      -13.549283    0.132795    2.005135
     48          1           0      -13.836913    0.624427    0.141752
     49          1           0      -14.584321   -1.325126    0.815440
     50          1           0      -10.227035   -2.841732   -1.329461
     51          1           0      -11.349351   -2.633399   -2.905445
     52          1           0       -9.849191   -1.543966   -2.509828
     53          1           0       -9.164957    1.055604   -0.968911
     54          1           0      -10.079438    0.698619    2.295943
     55          1           0      -11.491526    0.429312    3.167885
     56          1           0      -10.919113   -0.810820    2.297275
     57          1           0      -12.154150    2.435347   -0.161259
     58          1           0      -12.225421    2.478193    1.505424
     59          1           0      -10.635063    2.216282    0.916131
     60          1           0      -11.840336   -2.071955    1.205735
     61          1           0       -9.122426   -1.801875    0.294465
     62          1           0       -6.085309   -2.269202   -0.513341
     63          1           0       -5.422428   -1.611276    0.961996
     64          1           0       -7.118871   -2.782422    0.766150
     65          1           0       -7.312035    1.477056   -0.340365
     66          1           0       -4.567047   -0.214689   -0.261910
     67          1           0       13.553752   -1.347011    2.291253
     68          1           0       12.155092   -2.070687    2.028062
     69          1           0       13.670610   -2.757040    0.311672
     70          1           0       12.993112   -2.176134   -1.911621
     71          1           0       11.565852   -2.512668   -0.553510
     72          1           0       11.502696    0.188617    3.672650
     73          1           0       10.346352    1.127645    2.576960
     74          1           0       10.358842   -0.776144    2.591903
     75          1           0       13.513992    1.083532    0.537828
     76          1           0       12.314736    2.176881    1.173400
     77          1           0       13.249215    1.358176    2.383378
     78          1           0       12.689500    0.190032   -2.963110
     79          1           0       12.079628    1.464507   -2.339118
     80          1           0       13.467618    0.838789   -1.341506
     81          1           0       -5.463072    2.771146   -0.594688
     82          1           0       10.105094   -0.060989   -2.139705
     83          1           0       15.194212   -0.931894    0.347809
     84          1           0        8.460771    2.161373   -0.447171
     85          1           0       -2.425835    4.385226   -0.022896
     86          1           0       -2.607858    3.879722   -1.927257
     87          1           0       -4.057911    4.335205   -1.062373
     88          1           0       -2.335164    0.378079   -0.027309
     89          1           0        6.933754   -1.925464   -0.411888
     90          1           0        8.523491   -1.580260   -0.647537
     91          1           0        8.060098   -1.668558    0.935720
     92          1           0        6.340867    1.809136   -0.296645
     93          1           0       -0.789202    2.764743   -0.557870
     94          1           0        4.917511   -0.910866    0.168201
     95          1           0       -0.266902   -0.216170    0.354182
     96          1           0        3.923001    1.669809   -0.378146
     97          1           0        1.579215    2.087061   -0.317365
     98          1           0        1.295197   -1.592466   -0.072033
     99          1           0        3.105311   -1.718772   -0.439711
    100          1           0        2.597018   -1.549735    1.116616
 ---------------------------------------------------------------------

 SCF Done:  E(RCAM-B3LYP) =  -1857.24182707     A.U. after   16 cycles

 Excitation energies and oscillator strengths:

 Excited State   1:      Singlet-A      1.9837 eV  625.01 nm  f=3.0287  <S**2>=0.000
     163 ->166        -0.12406
     164 ->165         0.70283
     164 <-165        -0.12148
 This state for optimization and/or second-order correction.
 Total Energy, E(TD-HF/TD-DFT) =  -1857.16892643
 Copying the excited state density for this state as the 1-particle RhoCI density.

 The electronic state is 1-A.
 Alpha  occ. eigenvalues --  -19.23108 -19.22764 -19.21716 -19.20276 -10.32598
 Alpha  occ. eigenvalues --  -10.32546 -10.32145 -10.30962 -10.30655 -10.28679
 Alpha  occ. eigenvalues --  -10.28581 -10.28342 -10.28137 -10.27999 -10.27823
 Alpha  occ. eigenvalues --  -10.27770 -10.27604 -10.27211 -10.27200 -10.26859
 Alpha  occ. eigenvalues --  -10.26843 -10.26712 -10.26647 -10.26387 -10.26318
 Alpha  occ. eigenvalues --  -10.26271 -10.26245 -10.26084 -10.26000 -10.25928
 Alpha  occ. eigenvalues --  -10.25914 -10.25877 -10.25826 -10.25686 -10.25567
 Alpha  occ. eigenvalues --  -10.25422 -10.25219 -10.24860 -10.24649 -10.24418
 Alpha  occ. eigenvalues --  -10.24006 -10.23681 -10.23589 -10.23318  -1.21227
 Alpha  occ. eigenvalues --   -1.12043  -1.07431  -1.07277  -0.93209  -0.93053
 Alpha  occ. eigenvalues --   -0.92510  -0.91593  -0.90810  -0.90308  -0.88487
 Alpha  occ. eigenvalues --   -0.86937  -0.86720  -0.86367  -0.84857  -0.83407
 Alpha  occ. eigenvalues --   -0.82072  -0.81481  -0.80503  -0.79047  -0.77640
 Alpha  occ. eigenvalues --   -0.77006  -0.76331  -0.76307  -0.76119  -0.75739
 Alpha  occ. eigenvalues --   -0.75666  -0.73987  -0.73619  -0.70582  -0.69737
 Alpha  occ. eigenvalues --   -0.69237  -0.67007  -0.66111  -0.65102  -0.64237
 Alpha  occ. eigenvalues --   -0.63216  -0.62213  -0.61556  -0.60759  -0.59890
 Alpha  occ. eigenvalues --   -0.59099  -0.58689  -0.58596  -0.57521  -0.57370
 Alpha  occ. eigenvalues --   -0.56524  -0.55767  -0.55246  -0.55025  -0.54452
 Alpha  occ. eigenvalues --   -0.54329  -0.53367  -0.52975  -0.52633  -0.52239
 Alpha  occ. eigenvalues --   -0.51674  -0.51231  -0.50895  -0.50669  -0.50619
 Alpha  occ. eigenvalues --   -0.50275  -0.49549  -0.49432  -0.49250  -0.48269
 Alpha  occ. eigenvalues --   -0.47845  -0.47587  -0.47358  -0.47240  -0.46821
 Alpha  occ. eigenvalues --   -0.46505  -0.46376  -0.46090  -0.45900  -0.45777
 Alpha  occ. eigenvalues --   -0.45277  -0.44719  -0.44630  -0.44180  -0.44040
 Alpha  occ. eigenvalues --   -0.43427  -0.43394  -0.43362  -0.42872  -0.42530
 Alpha  occ. eigenvalues --   -0.42183  -0.41385  -0.41371  -0.41173  -0.41143
 Alpha  occ. eigenvalues --   -0.40725  -0.40583  -0.40206  -0.40078  -0.40015
 Alpha  occ. eigenvalues --   -0.39572  -0.39404  -0.39109  -0.38870  -0.38779
 Alpha  occ. eigenvalues --   -0.38423  -0.38206  -0.37898  -0.37665  -0.37185
 Alpha  occ. eigenvalues --   -0.36721  -0.35504  -0.35239  -0.34857  -0.34580
 Alpha  occ. eigenvalues --   -0.33048  -0.32638  -0.32279  -0.31559  -0.30911
 Alpha  occ. eigenvalues --   -0.29905  -0.28725  -0.24745  -0.19132
 Alpha virt. eigenvalues --   -0.07003  -0.00851   0.04015   0.06579   0.07084
 Alpha virt. eigenvalues --    0.07948   0.10696   0.11142   0.11231   0.12468
 Alpha virt. eigenvalues --    0.12662   0.13126   0.13506   0.13661   0.14036

 Mulliken charges:
               1
     1  O   -0.467717
     2  O   -0.532578
     3  O   -0.543500
     4  O   -0.577556
     5  C    0.197710
     6  C    0.221660
     7  C   -0.001026
     8  C   -0.183730
     9  C   -0.191115
    10  C    0.117592
    11  C   -0.353688
    12  C   -0.099071
    13  C   -0.299641
    14  C   -0.301301
    15  C   -0.058690
    16  C    0.089680
    17  C   -0.395791
    18  C   -0.110978
    19  C   -0.062940
    20  C   -0.000661
    21  C    0.256782
    22  C   -0.204137
    23  C    0.155389
    24  C   -0.178050
    25  C   -0.069693
    26  C   -0.293905
    27  C   -0.297179
    28  C   -0.316637
    29  C   -0.135892
    30  C    0.189550
    31  C    0.095480
    32  C   -0.320513
    33  C   -0.369619
    34  C   -0.099674
    35  C    0.146102
    36  C   -0.376385
    37  C   -0.120261
    38  C   -0.060527
    39  C   -0.072859
    40  C   -0.077519
    41  C   -0.116728
    42  C   -0.076021
    43  C    0.133040
    44  C   -0.394153
    45  H    0.093286
    46  H    0.133013
    47  H    0.102929
    48  H    0.093441
    49  H    0.100015
    50  H    0.106138
    51  H    0.093467
    52  H    0.119689
    53  H    0.098947
    54  H    0.096795
    55  H    0.112258
    56  H    0.097399
    57  H    0.113980
    58  H    0.111398
    59  H    0.094127
    60  H    0.296668
    61  H    0.065002
    62  H    0.146970
    63  H    0.113212
    64  H    0.104891
    65  H    0.094157
    66  H    0.092733
    67  H    0.075127
    68  H    0.107584
    69  H    0.097384
    70  H    0.124334
    71  H    0.114681
    72  H    0.069821
    73  H    0.124364
    74  H    0.115703
    75  H    0.125454
    76  H    0.096527
    77  H    0.093499
    78  H    0.103962
    79  H    0.061687
    80  H    0.142448
    81  H    0.082120
    82  H    0.306080
    83  H    0.296371
    84  H    0.088039
    85  H    0.137110
    86  H    0.094562
    87  H    0.103317
    88  H    0.060243
    89  H    0.078944
    90  H    0.141042
    91  H    0.127343
    92  H    0.064692
    93  H    0.073572
    94  H    0.064567
    95  H    0.059595
    96  H    0.063971
    97  H    0.054153
    98  H    0.109297
    99  H    0.086345
   100  H    0.132296
 Sum of Mulliken charges =  -0.00000

 Dipole moment (field-independent basis, Debye):
    X=              2.1189    Y=             -0.1551    Z=              0.8081  Tot=              2.2731
 Quadrupole moment (field-independent basis, Debye-Ang):
   XX=           -257.4086   YY=           -260.5000   ZZ=           -277.7043
   XY=            -15.9365   XZ=             35.6107   YZ=             -1.5861

 Normal termination of Gaussian 16 at Fri Aug  2 10:32:53 2019.
