 Gaussian 16, Revision A.03,
 Gaussian 16:  ES64L-G16RevA.03 25-Dec-2016

 -------------------------------------
 # td=(NStates=1) CAM-B3LYP/6-31G(d,p)
 -------------------------------------

 --
 TD
 --
 Symbolic Z-matrix:
 Charge =  0 Multiplicity = 1

                         Standard orientation:
 ---------------------------------------------------------------------
 Center     Atomic      Atomic             Coordinates (Angstroms)
 Number     Number       Type             X           Y           Z
 ---------------------------------------------------------------------
      1          8           0      -11.822826    0.176574   -1.590201
      2          8           0      -12.881833   -2.350444    1.644587
      3          8           0       10.795835   -1.018579   -2.117933
      4          8           0       14.468664   -1.082516   -0.018308
      5          6           0      -11.022332   -0.145052   -0.345632
      6          6           0      -11.746474   -1.120958   -1.220297
      7          6           0      -11.851517    0.433278    0.923505
      8          6           0      -13.040452   -1.832553   -0.761292
      9          6           0      -13.308740   -0.048642    0.859841
     10          6           0      -13.533094   -1.409260    0.565797
     11          6           0      -10.828235   -1.975434   -2.099989
     12          6           0       -9.550096    0.093763   -0.317839
     13          6           0      -11.101526    0.014483    2.154646
     14          6           0      -11.822801    1.877654    0.687736
     15          6           0       -8.614225   -0.866127    0.016104
     16          6           0       -7.189107   -0.609602    0.261902
     17          6           0       -6.389214   -1.897296    0.340807
     18          6           0       -6.613711    0.570887    0.058595
     19          6           0       -5.256399    0.830215    0.047889
     20          6           0       11.874753    0.050150    1.495284
     21          6           0       11.780137   -0.508264   -1.173174
     22          6           0       12.589324   -1.363683    1.567794
     23          6           0       13.305583   -1.809911    0.345131
     24          6           0       12.415935   -1.841508   -0.869500
     25          6           0       11.091736    0.040255    0.084670
     26          6           0       10.910574    0.118773    2.584023
     27          6           0       12.816047    1.167740    1.495520
     28          6           0       12.654623    0.556196   -1.793199
     29          6           0       -4.719546    2.126783   -0.142382
     30          6           0        9.855497    0.433985   -0.049708
     31          6           0       -3.380618    2.503925   -0.296109
     32          6           0        8.726311    0.925876   -0.151785
     33          6           0       -3.151111    3.986895   -0.285251
     34          6           0       -2.294011    1.576278   -0.432255
     35          6           0        7.537492    0.126437   -0.163499
     36          6           0        7.729182   -1.361597    0.129038
     37          6           0        6.292865    0.771819   -0.289495
     38          6           0       -0.973952    1.894465   -0.533806
     39          6           0        4.942594    0.249580   -0.141787
     40          6           0        0.084214    0.949418   -0.353262
     41          6           0        3.818329    0.883548   -0.347135
     42          6           0        1.405004    1.227099   -0.397703
     43          6           0        2.450051    0.406104   -0.311235
     44          6           0        2.329769   -1.062625    0.050197
     45          1           0      -13.174666   -2.814092   -0.961578
     46          1           0      -13.702608   -1.438325   -1.430798
     47          1           0      -13.813762    0.269323    1.666300
     48          1           0      -13.877919    0.392950    0.109239
     49          1           0      -14.605046   -1.855043    0.643954
     50          1           0      -10.449330   -2.940850   -1.523357
     51          1           0      -11.570103   -2.058574   -2.991492
     52          1           0      -10.019215   -1.370091   -2.405801
     53          1           0       -9.492401    1.031029   -0.711961
     54          1           0      -10.065871    0.511129    2.051854
     55          1           0      -11.638538   -0.031269    3.205585
     56          1           0      -10.915268   -1.086725    2.013710
     57          1           0      -12.268387    2.378504   -0.170338
     58          1           0      -12.409550    2.264285    1.544056
     59          1           0      -10.600157    2.331368    0.787801
     60          1           0      -11.859301   -2.483743    1.529654
     61          1           0       -9.049768   -1.757685    0.392771
     62          1           0       -6.391814   -2.551418   -0.512178
     63          1           0       -5.419107   -1.714894    0.924340
     64          1           0       -7.017713   -2.593141    0.928009
     65          1           0       -7.178414    1.455260   -0.091652
     66          1           0       -4.476270    0.109524   -0.057725
     67          1           0       13.323989   -1.299597    2.449887
     68          1           0       11.727777   -2.113973    1.681786
     69          1           0       13.309719   -2.901154    0.618057
     70          1           0       13.102725   -1.914771   -1.751449
     71          1           0       11.670832   -2.735044   -0.859537
     72          1           0       11.413775   -0.026955    3.496926
     73          1           0       10.563180    1.185278    2.726193
     74          1           0       10.072783   -0.559595    2.384643
     75          1           0       13.734438    0.952820    0.869056
     76          1           0       12.375929    2.128238    1.497126
     77          1           0       13.038449    1.249341    2.543531
     78          1           0       13.182232    0.126975   -2.594677
     79          1           0       11.854687    1.271016   -2.032966
     80          1           0       13.444241    1.057469   -1.107593
     81          1           0       -5.330580    2.938806   -0.258509
     82          1           0       10.102807   -0.341524   -2.167225
     83          1           0       15.050435   -0.922906    0.729254
     84          1           0        8.710567    2.073396   -0.431119
     85          1           0       -2.519426    4.138543    0.643366
     86          1           0       -2.550355    4.437712   -1.064571
     87          1           0       -3.987444    4.698441   -0.171275
     88          1           0       -2.545008    0.312893   -0.456951
     89          1           0        6.854079   -2.008561   -0.079857
     90          1           0        8.476493   -1.655089   -0.764124
     91          1           0        8.348341   -1.449604    1.087160
     92          1           0        6.384251    1.930540   -0.385243
     93          1           0       -0.801703    2.850550   -0.784337
     94          1           0        4.878290   -0.912359    0.042328
     95          1           0       -0.248723   -0.057763    0.052544
     96          1           0        3.928551    1.994282   -0.750322
     97          1           0        1.635345    2.306823   -0.763397
     98          1           0        1.231480   -1.391144   -0.084769
     99          1           0        2.957496   -1.729886   -0.508226
    100          1           0        2.789694   -1.259561    0.755853
 ---------------------------------------------------------------------

 SCF Done:  E(RCAM-B3LYP) =  -1857.27866682     A.U. after   15 cycles

 Excitation energies and oscillator strengths:

 Excited State   1:      Singlet-A      2.1158 eV  586.00 nm  f=2.8951  <S**2>=0.000
     163 ->166         0.11605
     164 ->165         0.70185
     164 <-165        -0.10940
 This state for optimization and/or second-order correction.
 Total Energy, E(TD-HF/TD-DFT) =  -1857.20091327
 Copying the excited state density for this state as the 1-particle RhoCI density.

 The electronic state is 1-A.
 Alpha  occ. eigenvalues --  -19.23259 -19.22327 -19.20618 -19.19223 -10.31492
 Alpha  occ. eigenvalues --  -10.31145 -10.31010 -10.30798 -10.30783 -10.28339
 Alpha  occ. eigenvalues --  -10.28108 -10.28034 -10.27715 -10.27705 -10.27689
 Alpha  occ. eigenvalues --  -10.27440 -10.27324 -10.27273 -10.27254 -10.27105
 Alpha  occ. eigenvalues --  -10.27076 -10.27023 -10.26706 -10.26636 -10.26555
 Alpha  occ. eigenvalues --  -10.26337 -10.26228 -10.26103 -10.26071 -10.26036
 Alpha  occ. eigenvalues --  -10.26005 -10.25913 -10.25854 -10.25811 -10.25623
 Alpha  occ. eigenvalues --  -10.25516 -10.25226 -10.24820 -10.24560 -10.24423
 Alpha  occ. eigenvalues --  -10.24394 -10.23774 -10.23770 -10.23406  -1.15610
 Alpha  occ. eigenvalues --   -1.11243  -1.08815  -1.03044  -0.93867  -0.92882
 Alpha  occ. eigenvalues --   -0.92568  -0.92068  -0.91495  -0.90842  -0.88297
 Alpha  occ. eigenvalues --   -0.87787  -0.87393  -0.86128  -0.85205  -0.83947
 Alpha  occ. eigenvalues --   -0.82738  -0.81588  -0.81111  -0.80592  -0.77866
 Alpha  occ. eigenvalues --   -0.77839  -0.77104  -0.76939  -0.76398  -0.76339
 Alpha  occ. eigenvalues --   -0.75795  -0.74546  -0.73650  -0.70257  -0.69543
 Alpha  occ. eigenvalues --   -0.68796  -0.67201  -0.65710  -0.64760  -0.64091
 Alpha  occ. eigenvalues --   -0.62961  -0.61941  -0.61469  -0.61143  -0.59246
 Alpha  occ. eigenvalues --   -0.58767  -0.58486  -0.58146  -0.57767  -0.57306
 Alpha  occ. eigenvalues --   -0.56637  -0.56227  -0.55264  -0.55170  -0.54398
 Alpha  occ. eigenvalues --   -0.53757  -0.53463  -0.52976  -0.52013  -0.51844
 Alpha  occ. eigenvalues --   -0.51287  -0.51189  -0.50660  -0.50335  -0.50024
 Alpha  occ. eigenvalues --   -0.49499  -0.49024  -0.48848  -0.48800  -0.48624
 Alpha  occ. eigenvalues --   -0.48230  -0.48156  -0.48028  -0.47536  -0.47081
 Alpha  occ. eigenvalues --   -0.46577  -0.46444  -0.46342  -0.45987  -0.45348
 Alpha  occ. eigenvalues --   -0.45098  -0.45065  -0.44854  -0.44606  -0.44142
 Alpha  occ. eigenvalues --   -0.43943  -0.43768  -0.43579  -0.42945  -0.42636
 Alpha  occ. eigenvalues --   -0.42499  -0.42245  -0.41815  -0.41680  -0.41574
 Alpha  occ. eigenvalues --   -0.41142  -0.40859  -0.40684  -0.40367  -0.39900
 Alpha  occ. eigenvalues --   -0.39775  -0.39671  -0.39334  -0.38811  -0.38686
 Alpha  occ. eigenvalues --   -0.38512  -0.38364  -0.37822  -0.37343  -0.37196
 Alpha  occ. eigenvalues --   -0.35803  -0.35682  -0.35065  -0.34458  -0.33022
 Alpha  occ. eigenvalues --   -0.32742  -0.32361  -0.32013  -0.31611  -0.30824
 Alpha  occ. eigenvalues --   -0.29380  -0.28148  -0.25042  -0.19638
 Alpha virt. eigenvalues --   -0.06503  -0.00513   0.02735   0.06604   0.06900
 Alpha virt. eigenvalues --    0.09026   0.09747   0.10827   0.11238   0.11999
 Alpha virt. eigenvalues --    0.12595   0.13144   0.13648   0.13745   0.14029

 Mulliken charges:
               1
     1  O   -0.504418
     2  O   -0.602734
     3  O   -0.569212
     4  O   -0.547616
     5  C    0.126731
     6  C    0.247336
     7  C    0.031173
     8  C   -0.192822
     9  C   -0.154999
    10  C    0.124629
    11  C   -0.303880
    12  C   -0.101023
    13  C   -0.275250
    14  C   -0.281291
    15  C   -0.083209
    16  C    0.066186
    17  C   -0.370616
    18  C   -0.068178
    19  C   -0.061656
    20  C    0.047213
    21  C    0.225665
    22  C   -0.192500
    23  C    0.171475
    24  C   -0.182095
    25  C   -0.114640
    26  C   -0.311000
    27  C   -0.309105
    28  C   -0.264751
    29  C   -0.123243
    30  C    0.215673
    31  C    0.089597
    32  C   -0.315347
    33  C   -0.399756
    34  C   -0.114658
    35  C    0.085936
    36  C   -0.363771
    37  C   -0.124392
    38  C   -0.068884
    39  C   -0.084241
    40  C   -0.096663
    41  C   -0.102525
    42  C   -0.109885
    43  C    0.110221
    44  C   -0.338649
    45  H    0.116413
    46  H    0.118933
    47  H    0.111623
    48  H    0.114577
    49  H    0.097580
    50  H    0.088280
    51  H    0.091660
    52  H    0.123824
    53  H    0.115146
    54  H    0.106958
    55  H    0.110057
    56  H    0.061237
    57  H    0.131272
    58  H    0.092058
    59  H    0.048114
    60  H    0.294998
    61  H    0.081794
    62  H    0.134665
    63  H    0.112986
    64  H    0.100748
    65  H    0.084891
    66  H    0.080158
    67  H    0.075599
    68  H    0.096165
    69  H    0.080304
    70  H    0.114100
    71  H    0.113086
    72  H    0.104717
    73  H    0.095202
    74  H    0.109329
    75  H    0.110753
    76  H    0.113112
    77  H    0.087961
    78  H    0.117464
    79  H    0.090248
    80  H    0.108988
    81  H    0.072833
    82  H    0.296639
    83  H    0.308304
    84  H    0.107754
    85  H    0.126683
    86  H    0.126983
    87  H    0.118669
    88  H    0.066504
    89  H    0.116026
    90  H    0.116553
    91  H    0.124863
    92  H    0.072994
    93  H    0.080083
    94  H    0.061643
    95  H    0.082162
    96  H    0.068466
    97  H    0.074798
    98  H    0.101708
    99  H    0.108880
   100  H    0.123626
 Sum of Mulliken charges =  -0.00000

 Dipole moment (field-independent basis, Debye):
    X=              3.6350    Y=              0.9335    Z=              1.9859  Tot=              4.2460
 Quadrupole moment (field-independent basis, Debye-Ang):
   XX=           -259.8284   YY=           -258.5698   ZZ=           -282.8680
   XY=              0.3259   XZ=             42.6432   YZ=             -1.4772

 Normal termination of Gaussian 16 at Mon Jul 29 12:00:35 2019.
