 Gaussian 16, Revision A.03,
 Gaussian 16:  ES64L-G16RevA.03 25-Dec-2016

 -------------------------------------
 # td=(NStates=1) CAM-B3LYP/6-31G(d,p)
 -------------------------------------

 --
 TD
 --
 Symbolic Z-matrix:
 Charge =  0 Multiplicity = 1

                         Standard orientation:
 ---------------------------------------------------------------------
 Center     Atomic      Atomic             Coordinates (Angstroms)
 Number     Number       Type             X           Y           Z
 ---------------------------------------------------------------------
      1          8           0      -11.734102    0.352743   -1.402399
      2          8           0      -13.080302   -2.430467    1.367899
      3          8           0       10.859787   -1.034434   -2.172801
      4          8           0       14.494701   -1.046683    0.195332
      5          6           0      -11.069172   -0.155081   -0.309185
      6          6           0      -11.846490   -1.025275   -1.201489
      7          6           0      -11.648941    0.401390    0.968861
      8          6           0      -13.202836   -1.489151   -0.888240
      9          6           0      -13.209577    0.107280    1.016264
     10          6           0      -13.568178   -1.384841    0.568108
     11          6           0      -11.084088   -1.791086   -2.224338
     12          6           0       -9.650118    0.023490   -0.385406
     13          6           0      -10.939230   -0.218559    2.231526
     14          6           0      -11.519989    2.000462    1.187581
     15          6           0       -8.761322   -0.795167    0.122564
     16          6           0       -7.265347   -0.689735    0.017546
     17          6           0       -6.413939   -1.927895    0.337603
     18          6           0       -6.637113    0.621046   -0.104620
     19          6           0       -5.251007    0.796712   -0.035586
     20          6           0       11.804381    0.144605    1.415300
     21          6           0       11.855063   -0.593671   -1.149165
     22          6           0       12.549172   -1.188582    1.673417
     23          6           0       13.390150   -1.845063    0.402751
     24          6           0       12.478700   -1.855537   -0.784245
     25          6           0       11.123318    0.120571    0.126269
     26          6           0       10.766085    0.353527    2.562195
     27          6           0       12.901668    1.279568    1.655724
     28          6           0       12.745268    0.444203   -1.869835
     29          6           0       -4.639022    2.067284   -0.332655
     30          6           0        9.933257    0.504451   -0.157921
     31          6           0       -3.285190    2.342090   -0.347380
     32          6           0        8.623647    0.948900   -0.414570
     33          6           0       -3.075273    3.918193   -0.602729
     34          6           0       -2.276025    1.447111   -0.325887
     35          6           0        7.493751    0.156166   -0.299519
     36          6           0        7.721097   -1.339210    0.093891
     37          6           0        6.263070    0.685950   -0.519005
     38          6           0       -0.983732    1.786728   -0.302587
     39          6           0        4.948610    0.178490   -0.194558
     40          6           0        0.042501    0.795255   -0.145902
     41          6           0        3.784902    0.823785   -0.393548
     42          6           0        1.330740    1.052096   -0.298977
     43          6           0        2.473884    0.243624   -0.261400
     44          6           0        2.339251   -1.204705    0.101606
     45          1           0      -13.212077   -2.610637   -1.082079
     46          1           0      -13.993760   -1.130718   -1.548151
     47          1           0      -13.616307    0.027674    1.985958
     48          1           0      -13.742141    0.626256    0.326865
     49          1           0      -14.573554   -1.413130    0.792628
     50          1           0      -10.809110   -2.728585   -1.894712
     51          1           0      -11.772703   -2.077958   -3.107193
     52          1           0       -9.952996   -1.377781   -2.533177
     53          1           0       -9.386772    0.916745   -1.183610
     54          1           0       -9.934226   -0.037219    2.067076
     55          1           0      -11.331035    0.312559    3.244341
     56          1           0      -11.071361   -1.214658    2.298922
     57          1           0      -11.999752    2.550322    0.269863
     58          1           0      -12.034176    2.290019    2.144200
     59          1           0      -10.442574    2.298664    1.240164
     60          1           0      -12.080433   -2.345237    1.318007
     61          1           0       -9.441136   -1.812194    0.657848
     62          1           0       -6.119398   -2.717649   -0.567468
     63          1           0       -5.445991   -1.573661    1.013367
     64          1           0       -7.117722   -2.681420    0.742610
     65          1           0       -7.354975    1.462694   -0.350736
     66          1           0       -4.514164    0.197351    0.487997
     67          1           0       13.268403   -1.171091    2.533919
     68          1           0       11.857290   -1.995137    1.765415
     69          1           0       13.521135   -2.808599    0.600319
     70          1           0       13.232853   -2.260204   -1.580396
     71          1           0       11.682201   -2.533619   -0.530650
     72          1           0       11.164891    0.523189    3.525068
     73          1           0       10.285368    1.213418    2.304618
     74          1           0       10.047930   -0.615920    2.560563
     75          1           0       13.741196    1.428208    1.094625
     76          1           0       12.418801    2.294061    1.444416
     77          1           0       13.092387    1.242005    2.741236
     78          1           0       13.132164    0.132378   -2.972998
     79          1           0       12.200582    1.431301   -2.113927
     80          1           0       13.514223    0.698715   -1.018380
     81          1           0       -5.314776    2.841349   -0.713207
     82          1           0       10.426958   -0.252502   -2.437245
     83          1           0       15.172198   -1.018637    0.903270
     84          1           0        8.715687    2.026954   -0.796590
     85          1           0       -2.570314    4.430761    0.150353
     86          1           0       -2.593606    4.380675   -1.447113
     87          1           0       -3.900562    4.268181   -0.861440
     88          1           0       -2.634989    0.316478   -0.046024
     89          1           0        6.670788   -1.885375    0.291777
     90          1           0        8.345645   -1.906125   -0.569713
     91          1           0        8.239388   -1.400040    0.969158
     92          1           0        6.192838    1.767756   -1.039726
     93          1           0       -0.607752    2.753132   -0.379697
     94          1           0        4.856842   -0.838895    0.154339
     95          1           0       -0.273298   -0.159587    0.228587
     96          1           0        3.922520    1.919200   -0.448405
     97          1           0        1.547767    2.135328   -0.973871
     98          1           0        1.338493   -1.626673    0.632700
     99          1           0        2.420474   -1.973252   -0.772070
    100          1           0        3.060400   -1.484644    0.979372
 ---------------------------------------------------------------------

 SCF Done:  E(RCAM-B3LYP) =  -1857.24594100     A.U. after   17 cycles

 Excitation energies and oscillator strengths:

 Excited State   1:      Singlet-A      1.8692 eV  663.29 nm  f=3.1251  <S**2>=0.000
     163 ->166         0.12316
     164 ->165         0.70358
     164 <-165        -0.12388
 This state for optimization and/or second-order correction.
 Total Energy, E(TD-HF/TD-DFT) =  -1857.17724832
 Copying the excited state density for this state as the 1-particle RhoCI density.

 The electronic state is 1-A.
 Alpha  occ. eigenvalues --  -19.22094 -19.21915 -19.21814 -19.19748 -10.32201
 Alpha  occ. eigenvalues --  -10.32096 -10.31148 -10.30177 -10.29674 -10.29358
 Alpha  occ. eigenvalues --  -10.29311 -10.28800 -10.28686 -10.28284 -10.28212
 Alpha  occ. eigenvalues --  -10.28132 -10.28046 -10.27852 -10.27761 -10.27648
 Alpha  occ. eigenvalues --  -10.27420 -10.27211 -10.27119 -10.27110 -10.27093
 Alpha  occ. eigenvalues --  -10.26810 -10.26713 -10.26688 -10.26326 -10.26214
 Alpha  occ. eigenvalues --  -10.26110 -10.26019 -10.25969 -10.25888 -10.25883
 Alpha  occ. eigenvalues --  -10.25537 -10.25443 -10.25372 -10.25084 -10.25018
 Alpha  occ. eigenvalues --  -10.24727 -10.24181 -10.23556 -10.23435  -1.18783
 Alpha  occ. eigenvalues --   -1.10972  -1.09822  -1.07926  -0.93189  -0.92709
 Alpha  occ. eigenvalues --   -0.91637  -0.91112  -0.90409  -0.89153  -0.87984
 Alpha  occ. eigenvalues --   -0.87324  -0.87069  -0.85548  -0.84524  -0.83176
 Alpha  occ. eigenvalues --   -0.81895  -0.80726  -0.80144  -0.79228  -0.76916
 Alpha  occ. eigenvalues --   -0.76643  -0.76529  -0.76190  -0.75793  -0.75081
 Alpha  occ. eigenvalues --   -0.75002  -0.74428  -0.72802  -0.71156  -0.70613
 Alpha  occ. eigenvalues --   -0.69270  -0.67280  -0.65854  -0.65743  -0.64261
 Alpha  occ. eigenvalues --   -0.63496  -0.62432  -0.61271  -0.60360  -0.60143
 Alpha  occ. eigenvalues --   -0.59181  -0.58759  -0.57689  -0.57361  -0.55889
 Alpha  occ. eigenvalues --   -0.55688  -0.55075  -0.54751  -0.54505  -0.53763
 Alpha  occ. eigenvalues --   -0.53648  -0.53227  -0.52814  -0.51995  -0.51613
 Alpha  occ. eigenvalues --   -0.51318  -0.51213  -0.50695  -0.50095  -0.49911
 Alpha  occ. eigenvalues --   -0.49192  -0.48898  -0.48521  -0.48115  -0.47880
 Alpha  occ. eigenvalues --   -0.47800  -0.47484  -0.47157  -0.47029  -0.46771
 Alpha  occ. eigenvalues --   -0.46435  -0.46155  -0.45910  -0.45126  -0.44949
 Alpha  occ. eigenvalues --   -0.44805  -0.44240  -0.43938  -0.43750  -0.43520
 Alpha  occ. eigenvalues --   -0.43343  -0.43335  -0.43203  -0.42800  -0.42654
 Alpha  occ. eigenvalues --   -0.42502  -0.42227  -0.41822  -0.41725  -0.41561
 Alpha  occ. eigenvalues --   -0.41085  -0.40627  -0.40377  -0.40223  -0.39848
 Alpha  occ. eigenvalues --   -0.39474  -0.39336  -0.39261  -0.39035  -0.38644
 Alpha  occ. eigenvalues --   -0.38303  -0.38046  -0.37854  -0.37596  -0.37144
 Alpha  occ. eigenvalues --   -0.36391  -0.36241  -0.35479  -0.34780  -0.34013
 Alpha  occ. eigenvalues --   -0.32395  -0.32280  -0.32092  -0.30909  -0.30783
 Alpha  occ. eigenvalues --   -0.30497  -0.27483  -0.24240  -0.18759
 Alpha virt. eigenvalues --   -0.07200  -0.01062   0.02487   0.06409   0.07277
 Alpha virt. eigenvalues --    0.07726   0.09958   0.10291   0.10515   0.11628
 Alpha virt. eigenvalues --    0.11913   0.12302   0.13055   0.13594   0.13683

 Mulliken charges:
               1
     1  O   -0.492676
     2  O   -0.538702
     3  O   -0.565049
     4  O   -0.544846
     5  C    0.186037
     6  C    0.283452
     7  C    0.016345
     8  C   -0.230677
     9  C   -0.193828
    10  C    0.129346
    11  C   -0.344811
    12  C   -0.090697
    13  C   -0.309058
    14  C   -0.306318
    15  C   -0.087782
    16  C    0.054404
    17  C   -0.352465
    18  C   -0.108077
    19  C   -0.069652
    20  C    0.018090
    21  C    0.242138
    22  C   -0.198398
    23  C    0.165517
    24  C   -0.174537
    25  C   -0.107526
    26  C   -0.293236
    27  C   -0.309298
    28  C   -0.303365
    29  C   -0.139847
    30  C    0.128326
    31  C    0.090031
    32  C   -0.237680
    33  C   -0.366665
    34  C   -0.101759
    35  C    0.130391
    36  C   -0.367830
    37  C   -0.125054
    38  C   -0.070570
    39  C   -0.078791
    40  C   -0.070719
    41  C   -0.105650
    42  C   -0.120243
    43  C    0.110768
    44  C   -0.381087
    45  H    0.102039
    46  H    0.123841
    47  H    0.102341
    48  H    0.112920
    49  H    0.099910
    50  H    0.118461
    51  H    0.104056
    52  H    0.107774
    53  H    0.106783
    54  H    0.129741
    55  H    0.086708
    56  H    0.079745
    57  H    0.103645
    58  H    0.108359
    59  H    0.098171
    60  H    0.301951
    61  H    0.053925
    62  H    0.099439
    63  H    0.108863
    64  H    0.117195
    65  H    0.098874
    66  H    0.091507
    67  H    0.072580
    68  H    0.083261
    69  H    0.088584
    70  H    0.107335
    71  H    0.119166
    72  H    0.102080
    73  H    0.121318
    74  H    0.087030
    75  H    0.121484
    76  H    0.084041
    77  H    0.100880
    78  H    0.102431
    79  H    0.083071
    80  H    0.122290
    81  H    0.087597
    82  H    0.293720
    83  H    0.314178
    84  H    0.115734
    85  H    0.125171
    86  H    0.107687
    87  H    0.110199
    88  H    0.070433
    89  H    0.088703
    90  H    0.145659
    91  H    0.128855
    92  H    0.068962
    93  H    0.093361
    94  H    0.077714
    95  H    0.081391
    96  H    0.086839
    97  H    0.051793
    98  H    0.097671
    99  H    0.124107
   100  H    0.110476
 Sum of Mulliken charges =  -0.00000

 Dipole moment (field-independent basis, Debye):
    X=              3.7542    Y=              0.0100    Z=              2.0823  Tot=              4.2930
 Quadrupole moment (field-independent basis, Debye-Ang):
   XX=           -250.0601   YY=           -259.8964   ZZ=           -277.4752
   XY=             -1.0459   XZ=             36.2050   YZ=             -4.2024

 Normal termination of Gaussian 16 at Thu Aug  1 14:19:47 2019.
