 Gaussian 16, Revision A.03,
 Gaussian 16:  ES64L-G16RevA.03 25-Dec-2016

 -------------------------------------
 # td=(NStates=1) CAM-B3LYP/6-31G(d,p)
 -------------------------------------

 --
 TD
 --
 Symbolic Z-matrix:
 Charge =  0 Multiplicity = 1

                         Standard orientation:
 ---------------------------------------------------------------------
 Center     Atomic      Atomic             Coordinates (Angstroms)
 Number     Number       Type             X           Y           Z
 ---------------------------------------------------------------------
      1          8           0      -11.803399    0.278968   -1.462312
      2          8           0      -12.968321   -2.529833    1.407821
      3          8           0       10.705912   -1.191409   -2.034894
      4          8           0       14.558667   -0.789568   -0.052370
      5          6           0      -11.000622   -0.192069   -0.249799
      6          6           0      -11.741655   -1.095516   -1.196064
      7          6           0      -11.668551    0.365353    1.055983
      8          6           0      -13.179181   -1.657237   -0.850022
      9          6           0      -13.135311   -0.072941    1.089496
     10          6           0      -13.419223   -1.485070    0.625555
     11          6           0      -11.051470   -1.953445   -2.270928
     12          6           0       -9.507564    0.035177   -0.411504
     13          6           0      -10.927854   -0.236633    2.266060
     14          6           0      -11.531146    1.888465    1.081364
     15          6           0       -8.635797   -0.895061   -0.030932
     16          6           0       -7.238194   -0.570970   -0.036796
     17          6           0       -6.288214   -1.793128    0.193750
     18          6           0       -6.616549    0.648970   -0.267884
     19          6           0       -5.234081    0.880381   -0.302244
     20          6           0       11.849296    0.032026    1.327503
     21          6           0       11.785102   -0.820059   -1.225645
     22          6           0       12.716021   -1.266549    1.457324
     23          6           0       13.510135   -1.673226    0.308885
     24          6           0       12.560380   -1.948787   -0.902381
     25          6           0       11.135433   -0.021023   -0.012174
     26          6           0       10.853530    0.055587    2.494167
     27          6           0       12.650012    1.308806    1.424096
     28          6           0       12.471163    0.301520   -2.001686
     29          6           0       -4.748377    2.111102   -0.443986
     30          6           0        9.973469    0.369608   -0.140783
     31          6           0       -3.427605    2.503372   -0.531429
     32          6           0        8.661526    0.906360   -0.106743
     33          6           0       -3.065488    3.943727   -0.623024
     34          6           0       -2.343153    1.707585   -0.429325
     35          6           0        7.475395    0.101402   -0.006666
     36          6           0        7.553982   -1.361409    0.129631
     37          6           0        6.266929    0.781821   -0.089401
     38          6           0       -0.962696    1.972951   -0.413938
     39          6           0        4.907369    0.297649    0.179131
     40          6           0        0.047624    0.937408   -0.227881
     41          6           0        3.685229    0.974549   -0.010183
     42          6           0        1.319991    1.276724   -0.227680
     43          6           0        2.404536    0.417593    0.057670
     44          6           0        2.259260   -1.097103    0.453816
     45          1           0      -13.273242   -2.672641   -1.214119
     46          1           0      -13.847563   -1.063058   -1.427230
     47          1           0      -13.537741   -0.073945    2.040443
     48          1           0      -13.820030    0.682345    0.353800
     49          1           0      -14.545111   -1.468736    0.631172
     50          1           0      -10.773539   -3.096840   -1.915232
     51          1           0      -11.717008   -1.937906   -3.157243
     52          1           0      -10.131053   -1.391246   -2.690262
     53          1           0       -9.136129    0.921459   -0.737705
     54          1           0       -9.775354    0.058709    2.335405
     55          1           0      -11.606780    0.085447    3.224074
     56          1           0      -10.825968   -1.284426    2.512412
     57          1           0      -11.986718    2.260307    0.248767
     58          1           0      -12.191627    2.323605    1.869443
     59          1           0      -10.587225    2.218205    1.254806
     60          1           0      -12.026586   -2.445091    1.283786
     61          1           0       -8.711870   -1.742166    0.521824
     62          1           0       -5.931308   -2.179316   -0.932140
     63          1           0       -5.480411   -1.609479    0.897541
     64          1           0       -6.924406   -2.666515    0.730832
     65          1           0       -7.374307    1.571277   -0.276372
     66          1           0       -4.432379    0.086430   -0.329136
     67          1           0       13.515717   -1.201333    2.274857
     68          1           0       12.050047   -2.018948    1.682862
     69          1           0       13.995347   -2.529741    0.650393
     70          1           0       13.149533   -2.116237   -1.753332
     71          1           0       11.879964   -2.785639   -0.672257
     72          1           0       11.314993    0.081061    3.582523
     73          1           0       10.428113    1.138141    2.507447
     74          1           0        9.990538   -0.681417    2.332166
     75          1           0       13.492954    1.538187    0.468647
     76          1           0       11.970656    2.130300    1.209828
     77          1           0       13.128304    1.262725    2.431591
     78          1           0       12.876446    0.108654   -2.933436
     79          1           0       11.743560    1.277073   -2.204045
     80          1           0       13.394528    0.694284   -1.633055
     81          1           0       -5.394642    3.016983   -0.432494
     82          1           0       10.099499   -0.409117   -2.235034
     83          1           0       15.279056   -0.933358    0.669373
     84          1           0        8.556597    1.947988   -0.397499
     85          1           0       -2.445295    4.243737    0.245198
     86          1           0       -2.621389    4.338016   -1.655119
     87          1           0       -3.896451    4.662424   -0.332394
     88          1           0       -2.721888    0.643944   -0.116418
     89          1           0        6.591965   -1.950146    0.137263
     90          1           0        8.403902   -1.898077   -0.311752
     91          1           0        7.878121   -1.439612    1.340764
     92          1           0        6.214157    1.767505   -0.452810
     93          1           0       -0.647703    3.032656   -0.401764
     94          1           0        4.931239   -0.617520    0.505154
     95          1           0       -0.307117   -0.063334    0.008903
     96          1           0        3.834002    1.943405   -0.364430
     97          1           0        1.429999    2.230514   -0.519797
     98          1           0        0.970116   -1.313484    0.543471
     99          1           0        2.761938   -1.720718   -0.451883
    100          1           0        2.664794   -1.168045    1.374252
 ---------------------------------------------------------------------

 SCF Done:  E(RCAM-B3LYP) =  -1857.30650730     A.U. after   16 cycles

 Excitation energies and oscillator strengths:

 Excited State   1:      Singlet-A      1.9371 eV  640.05 nm  f=3.3230  <S**2>=0.000
     163 ->166        -0.13011
     164 ->165         0.69989
     164 <-165        -0.11337
 This state for optimization and/or second-order correction.
 Total Energy, E(TD-HF/TD-DFT) =  -1857.23531962
 Copying the excited state density for this state as the 1-particle RhoCI density.

 The electronic state is 1-A.
 Alpha  occ. eigenvalues --  -19.22765 -19.21835 -19.21349 -19.20567 -10.32172
 Alpha  occ. eigenvalues --  -10.31982 -10.31871 -10.30589 -10.29781 -10.28573
 Alpha  occ. eigenvalues --  -10.28446 -10.28317 -10.28154 -10.28079 -10.28076
 Alpha  occ. eigenvalues --  -10.27928 -10.27427 -10.27073 -10.27044 -10.26957
 Alpha  occ. eigenvalues --  -10.26889 -10.26778 -10.26702 -10.26550 -10.26368
 Alpha  occ. eigenvalues --  -10.26221 -10.26140 -10.26099 -10.26013 -10.25887
 Alpha  occ. eigenvalues --  -10.25849 -10.25838 -10.25833 -10.25741 -10.25736
 Alpha  occ. eigenvalues --  -10.25632 -10.25629 -10.25503 -10.25289 -10.25109
 Alpha  occ. eigenvalues --  -10.24767 -10.24294 -10.23963 -10.23261  -1.13128
 Alpha  occ. eigenvalues --   -1.11733  -1.10344  -1.09722  -0.93814  -0.92884
 Alpha  occ. eigenvalues --   -0.92085  -0.91536  -0.90868  -0.90336  -0.88092
 Alpha  occ. eigenvalues --   -0.87383  -0.86179  -0.85582  -0.85201  -0.82645
 Alpha  occ. eigenvalues --   -0.81727  -0.80704  -0.80054  -0.78304  -0.77413
 Alpha  occ. eigenvalues --   -0.77026  -0.76919  -0.75869  -0.75574  -0.75330
 Alpha  occ. eigenvalues --   -0.74415  -0.74153  -0.72567  -0.70505  -0.69735
 Alpha  occ. eigenvalues --   -0.69046  -0.66725  -0.66133  -0.65054  -0.64219
 Alpha  occ. eigenvalues --   -0.63967  -0.63073  -0.61767  -0.61148  -0.59427
 Alpha  occ. eigenvalues --   -0.59100  -0.59021  -0.58254  -0.57548  -0.56910
 Alpha  occ. eigenvalues --   -0.55588  -0.55440  -0.55295  -0.54363  -0.54147
 Alpha  occ. eigenvalues --   -0.53577  -0.53401  -0.53237  -0.53131  -0.53090
 Alpha  occ. eigenvalues --   -0.51904  -0.50841  -0.50514  -0.50246  -0.49711
 Alpha  occ. eigenvalues --   -0.49370  -0.49290  -0.48948  -0.48525  -0.48458
 Alpha  occ. eigenvalues --   -0.48038  -0.47660  -0.46859  -0.46779  -0.46493
 Alpha  occ. eigenvalues --   -0.46338  -0.45917  -0.45577  -0.45150  -0.45068
 Alpha  occ. eigenvalues --   -0.44805  -0.44658  -0.44276  -0.43962  -0.43698
 Alpha  occ. eigenvalues --   -0.43690  -0.43544  -0.43305  -0.43112  -0.42324
 Alpha  occ. eigenvalues --   -0.42177  -0.41806  -0.41536  -0.41352  -0.41133
 Alpha  occ. eigenvalues --   -0.40912  -0.40609  -0.40357  -0.40238  -0.39861
 Alpha  occ. eigenvalues --   -0.39691  -0.39442  -0.39354  -0.39340  -0.38950
 Alpha  occ. eigenvalues --   -0.38944  -0.38039  -0.37648  -0.37477  -0.36824
 Alpha  occ. eigenvalues --   -0.36684  -0.35910  -0.35141  -0.34072  -0.33918
 Alpha  occ. eigenvalues --   -0.32830  -0.32638  -0.32143  -0.31466  -0.31071
 Alpha  occ. eigenvalues --   -0.30614  -0.27381  -0.24056  -0.18637
 Alpha virt. eigenvalues --   -0.06723  -0.00978   0.02414   0.06652   0.08251
 Alpha virt. eigenvalues --    0.08763   0.09540   0.10604   0.10930   0.11758
 Alpha virt. eigenvalues --    0.11980   0.12563   0.12780   0.13706   0.13983

 Mulliken charges:
               1
     1  O   -0.514766
     2  O   -0.520351
     3  O   -0.585964
     4  O   -0.548398
     5  C    0.158895
     6  C    0.252060
     7  C    0.033379
     8  C   -0.191184
     9  C   -0.178481
    10  C    0.123890
    11  C   -0.329268
    12  C   -0.111961
    13  C   -0.322664
    14  C   -0.304025
    15  C   -0.009562
    16  C    0.028946
    17  C   -0.353457
    18  C   -0.106918
    19  C   -0.081013
    20  C    0.026864
    21  C    0.305879
    22  C   -0.164241
    23  C    0.142031
    24  C   -0.203272
    25  C   -0.135263
    26  C   -0.304116
    27  C   -0.281354
    28  C   -0.313841
    29  C   -0.093101
    30  C    0.150514
    31  C    0.116219
    32  C   -0.246851
    33  C   -0.392978
    34  C   -0.114342
    35  C    0.159248
    36  C   -0.381326
    37  C   -0.134064
    38  C   -0.126853
    39  C   -0.077317
    40  C   -0.062094
    41  C   -0.096865
    42  C   -0.076328
    43  C    0.068935
    44  C   -0.334881
    45  H    0.102846
    46  H    0.119786
    47  H    0.110087
    48  H    0.081902
    49  H    0.087027
    50  H    0.087553
    51  H    0.117340
    52  H    0.110338
    53  H    0.107222
    54  H    0.098115
    55  H    0.086740
    56  H    0.103694
    57  H    0.134094
    58  H    0.096517
    59  H    0.109578
    60  H    0.302211
    61  H    0.077511
    62  H    0.108188
    63  H    0.127150
    64  H    0.076228
    65  H    0.074038
    66  H    0.098377
    67  H    0.062246
    68  H    0.106813
    69  H    0.083131
    70  H    0.121827
    71  H    0.119869
    72  H    0.088711
    73  H    0.099370
    74  H    0.104161
    75  H    0.089105
    76  H    0.108121
    77  H    0.094198
    78  H    0.108829
    79  H    0.064153
    80  H    0.129219
    81  H    0.077053
    82  H    0.312123
    83  H    0.312023
    84  H    0.112742
    85  H    0.121586
    86  H    0.111721
    87  H    0.091680
    88  H    0.051956
    89  H    0.121124
    90  H    0.149024
    91  H    0.086144
    92  H    0.070608
    93  H    0.093130
    94  H    0.050500
    95  H    0.081342
    96  H    0.075923
    97  H    0.076809
    98  H    0.071270
    99  H    0.120218
   100  H    0.146969
 Sum of Mulliken charges =  -0.00000

 Dipole moment (field-independent basis, Debye):
    X=              5.5299    Y=             -0.4329    Z=              2.4220  Tot=              6.0525
 Quadrupole moment (field-independent basis, Debye-Ang):
   XX=           -256.7458   YY=           -262.5902   ZZ=           -277.6225
   XY=            -14.7853   XZ=             22.6525   YZ=             -2.6362

 Normal termination of Gaussian 16 at Tue Jul 30 21:54:15 2019.
