 Gaussian 16, Revision A.03,
 Gaussian 16:  ES64L-G16RevA.03 25-Dec-2016

 -------------------------------------
 # td=(NStates=1) CAM-B3LYP/6-31G(d,p)
 -------------------------------------

 --
 TD
 --
 Symbolic Z-matrix:
 Charge =  0 Multiplicity = 1

                         Standard orientation:
 ---------------------------------------------------------------------
 Center     Atomic      Atomic             Coordinates (Angstroms)
 Number     Number       Type             X           Y           Z
 ---------------------------------------------------------------------
      1          8           0      -11.737435    0.154667   -1.544299
      2          8           0      -13.165652   -2.185371    1.599569
      3          8           0       10.656075   -1.296966   -1.928413
      4          8           0       14.567152   -0.936197    0.056417
      5          6           0      -11.054059   -0.200682   -0.294806
      6          6           0      -11.718358   -1.210244   -1.091864
      7          6           0      -11.732322    0.541740    0.958014
      8          6           0      -13.129828   -1.757726   -0.785993
      9          6           0      -13.236821    0.205709    0.880646
     10          6           0      -13.630801   -1.222765    0.562953
     11          6           0      -10.757935   -2.162290   -1.931425
     12          6           0       -9.643564    0.045146   -0.342109
     13          6           0      -11.110944   -0.018828    2.149594
     14          6           0      -11.598956    2.022924    0.739282
     15          6           0       -8.688257   -0.743203    0.320005
     16          6           0       -7.266871   -0.642487    0.240047
     17          6           0       -6.412273   -1.842483    0.509993
     18          6           0       -6.605181    0.542425   -0.204378
     19          6           0       -5.236073    0.750132   -0.277112
     20          6           0       11.882000    0.260882    1.357261
     21          6           0       11.729138   -0.693798   -1.188904
     22          6           0       12.652089   -1.053488    1.699555
     23          6           0       13.425548   -1.682733    0.531973
     24          6           0       12.553454   -1.957688   -0.549749
     25          6           0       11.099283    0.081320    0.086312
     26          6           0       10.933138    0.577386    2.490164
     27          6           0       12.881296    1.490137    1.277266
     28          6           0       12.652656    0.201571   -1.986336
     29          6           0       -4.717367    2.017979   -0.483081
     30          6           0        9.908127    0.521031   -0.153363
     31          6           0       -3.306173    2.403091   -0.634465
     32          6           0        8.663460    0.988273   -0.233713
     33          6           0       -3.062471    3.909011   -0.817675
     34          6           0       -2.309860    1.523254   -0.331251
     35          6           0        7.451085    0.155140   -0.129056
     36          6           0        7.632827   -1.336135    0.069078
     37          6           0        6.261392    0.730290   -0.232974
     38          6           0       -0.930918    1.775654   -0.369584
     39          6           0        4.946842    0.108088   -0.096606
     40          6           0        0.010684    0.710457   -0.310269
     41          6           0        3.710536    0.787805   -0.207441
     42          6           0        1.364809    1.021919   -0.257906
     43          6           0        2.499994    0.152467   -0.174559
     44          6           0        2.350631   -1.295087    0.080025
     45          1           0      -13.225429   -2.694023   -0.937995
     46          1           0      -13.816043   -1.283582   -1.523021
     47          1           0      -13.685259    0.608620    2.021264
     48          1           0      -13.702664    0.997747    0.117372
     49          1           0      -14.673363   -1.348380    0.654229
     50          1           0      -10.718542   -3.020236   -1.430283
     51          1           0      -11.353002   -2.487646   -2.755121
     52          1           0      -10.123830   -1.343551   -2.438483
     53          1           0       -9.178159    0.928943   -0.803043
     54          1           0      -10.103877    0.523308    2.266349
     55          1           0      -11.712313    0.082807    2.987113
     56          1           0      -10.894804   -1.072338    2.286457
     57          1           0      -12.143477    2.456832   -0.161533
     58          1           0      -12.155182    2.396810    1.705898
     59          1           0      -10.561468    2.427397    0.843013
     60          1           0      -12.336536   -2.461526    1.555611
     61          1           0       -9.121923   -1.578514    0.905516
     62          1           0       -6.154046   -2.222997   -0.579297
     63          1           0       -5.639201   -1.505956    1.114972
     64          1           0       -6.956727   -2.672516    1.007949
     65          1           0       -7.180151    1.434305   -0.281625
     66          1           0       -4.465159    0.085804   -0.101244
     67          1           0       13.372380   -0.853404    2.590376
     68          1           0       12.143879   -1.977269    2.134409
     69          1           0       13.814225   -2.802969    0.559224
     70          1           0       13.137388   -2.495037   -1.355477
     71          1           0       11.826369   -2.740161   -0.445766
     72          1           0       11.558754    0.636376    3.448502
     73          1           0       10.401443    1.532058    2.289438
     74          1           0       10.123785   -0.218366    2.558206
     75          1           0       13.371772    1.382467    0.330459
     76          1           0       12.074042    2.242884    1.270359
     77          1           0       13.428785    1.433560    2.067333
     78          1           0       12.904936   -0.316128   -2.989395
     79          1           0       12.097747    1.113439   -2.233479
     80          1           0       13.666031    0.457552   -1.646689
     81          1           0       -5.462473    2.859360   -0.519374
     82          1           0       10.029082   -0.491953   -2.140812
     83          1           0       14.969419   -0.557854    0.884320
     84          1           0        8.488052    2.086306   -0.431788
     85          1           0       -2.342593    4.243735    0.100525
     86          1           0       -2.564223    3.986449   -1.682243
     87          1           0       -4.016702    4.457578   -0.935155
     88          1           0       -2.507047    0.397635   -0.125848
     89          1           0        6.753600   -1.860946    0.186964
     90          1           0        8.202990   -1.721381   -0.763455
     91          1           0        8.224283   -1.480245    1.012807
     92          1           0        6.304159    1.813252   -0.230884
     93          1           0       -0.633155    2.859248   -0.064468
     94          1           0        5.083037   -0.976039   -0.040034
     95          1           0       -0.447000   -0.314728   -0.396187
     96          1           0        4.085860    1.828243   -0.397587
     97          1           0        1.685531    1.949367   -0.757433
     98          1           0        1.234616   -1.489409    0.013574
     99          1           0        2.810967   -1.878826   -0.538275
    100          1           0        2.760349   -1.470327    1.122273
 ---------------------------------------------------------------------

 SCF Done:  E(RCAM-B3LYP) =  -1857.34888048     A.U. after   15 cycles

 Excitation energies and oscillator strengths:

 Excited State   1:      Singlet-A      2.1091 eV  587.86 nm  f=3.1285  <S**2>=0.000
     163 ->166         0.14434
     164 ->165         0.69278
 This state for optimization and/or second-order correction.
 Total Energy, E(TD-HF/TD-DFT) =  -1857.27137302
 Copying the excited state density for this state as the 1-particle RhoCI density.

 The electronic state is 1-A.
 Alpha  occ. eigenvalues --  -19.22062 -19.21912 -19.21594 -19.19302 -10.32421
 Alpha  occ. eigenvalues --  -10.32215 -10.31221 -10.31206 -10.31047 -10.28755
 Alpha  occ. eigenvalues --  -10.28047 -10.27747 -10.27709 -10.27629 -10.27559
 Alpha  occ. eigenvalues --  -10.27425 -10.27378 -10.27303 -10.27192 -10.27171
 Alpha  occ. eigenvalues --  -10.27023 -10.26882 -10.26747 -10.26608 -10.26524
 Alpha  occ. eigenvalues --  -10.26464 -10.26396 -10.26230 -10.26215 -10.26092
 Alpha  occ. eigenvalues --  -10.26076 -10.26006 -10.25815 -10.25785 -10.25458
 Alpha  occ. eigenvalues --  -10.25395 -10.25198 -10.25086 -10.24912 -10.24558
 Alpha  occ. eigenvalues --  -10.24514 -10.24375 -10.24185 -10.23980  -1.14199
 Alpha  occ. eigenvalues --   -1.09320  -1.08770  -1.08206  -0.93378  -0.92285
 Alpha  occ. eigenvalues --   -0.92039  -0.91499  -0.90851  -0.90068  -0.87316
 Alpha  occ. eigenvalues --   -0.86945  -0.86702  -0.85564  -0.84760  -0.83051
 Alpha  occ. eigenvalues --   -0.82291  -0.81184  -0.80569  -0.78912  -0.77691
 Alpha  occ. eigenvalues --   -0.77279  -0.77081  -0.76394  -0.76312  -0.76122
 Alpha  occ. eigenvalues --   -0.75947  -0.74670  -0.72991  -0.70693  -0.69361
 Alpha  occ. eigenvalues --   -0.68168  -0.66747  -0.65879  -0.64954  -0.64018
 Alpha  occ. eigenvalues --   -0.63044  -0.61780  -0.60833  -0.60103  -0.59801
 Alpha  occ. eigenvalues --   -0.59004  -0.57797  -0.57600  -0.57327  -0.56488
 Alpha  occ. eigenvalues --   -0.55628  -0.55527  -0.55169  -0.54818  -0.53945
 Alpha  occ. eigenvalues --   -0.53612  -0.52692  -0.52365  -0.52158  -0.51848
 Alpha  occ. eigenvalues --   -0.51559  -0.51200  -0.50933  -0.50494  -0.50212
 Alpha  occ. eigenvalues --   -0.50030  -0.49777  -0.49424  -0.49232  -0.48938
 Alpha  occ. eigenvalues --   -0.48607  -0.48286  -0.48063  -0.47896  -0.47134
 Alpha  occ. eigenvalues --   -0.47019  -0.46083  -0.45604  -0.45388  -0.45220
 Alpha  occ. eigenvalues --   -0.44891  -0.44641  -0.44504  -0.44287  -0.44240
 Alpha  occ. eigenvalues --   -0.43650  -0.43605  -0.43276  -0.42930  -0.42678
 Alpha  occ. eigenvalues --   -0.42531  -0.42306  -0.42064  -0.41940  -0.41208
 Alpha  occ. eigenvalues --   -0.40933  -0.40707  -0.40459  -0.40413  -0.40178
 Alpha  occ. eigenvalues --   -0.39656  -0.39381  -0.39067  -0.38951  -0.38533
 Alpha  occ. eigenvalues --   -0.38174  -0.37994  -0.37431  -0.37110  -0.36831
 Alpha  occ. eigenvalues --   -0.36565  -0.35690  -0.35331  -0.35058  -0.33644
 Alpha  occ. eigenvalues --   -0.32855  -0.32269  -0.31924  -0.31471  -0.30806
 Alpha  occ. eigenvalues --   -0.29804  -0.27754  -0.23563  -0.19256
 Alpha virt. eigenvalues --   -0.05966  -0.01225   0.03072   0.06124   0.07187
 Alpha virt. eigenvalues --    0.09521   0.10133   0.10704   0.11965   0.12355
 Alpha virt. eigenvalues --    0.12532   0.12851   0.13051   0.13176   0.14328

 Mulliken charges:
               1
     1  O   -0.519062
     2  O   -0.569511
     3  O   -0.569628
     4  O   -0.552377
     5  C    0.214602
     6  C    0.198297
     7  C    0.047414
     8  C   -0.185339
     9  C   -0.172843
    10  C    0.157938
    11  C   -0.333425
    12  C   -0.117027
    13  C   -0.299666
    14  C   -0.308115
    15  C   -0.084789
    16  C    0.053531
    17  C   -0.354310
    18  C   -0.117462
    19  C   -0.029293
    20  C   -0.010031
    21  C    0.250743
    22  C   -0.207619
    23  C    0.165098
    24  C   -0.203230
    25  C   -0.064699
    26  C   -0.293778
    27  C   -0.280053
    28  C   -0.315259
    29  C   -0.144962
    30  C    0.130470
    31  C    0.077459
    32  C   -0.289726
    33  C   -0.358850
    34  C   -0.122546
    35  C    0.120539
    36  C   -0.364116
    37  C   -0.123798
    38  C   -0.091378
    39  C   -0.111556
    40  C   -0.101662
    41  C   -0.095920
    42  C   -0.132108
    43  C    0.081244
    44  C   -0.347488
    45  H    0.104484
    46  H    0.118501
    47  H    0.063579
    48  H    0.098548
    49  H    0.111987
    50  H    0.116583
    51  H    0.108173
    52  H    0.143634
    53  H    0.104676
    54  H    0.101437
    55  H    0.112772
    56  H    0.089773
    57  H    0.128761
    58  H    0.086722
    59  H    0.101882
    60  H    0.284729
    61  H    0.067024
    62  H    0.123669
    63  H    0.134444
    64  H    0.104465
    65  H    0.079789
    66  H    0.075011
    67  H    0.068739
    68  H    0.108786
    69  H    0.073322
    70  H    0.103818
    71  H    0.124473
    72  H    0.087791
    73  H    0.108604
    74  H    0.104851
    75  H    0.123991
    76  H    0.105366
    77  H    0.103967
    78  H    0.100888
    79  H    0.087444
    80  H    0.147915
    81  H    0.071572
    82  H    0.306980
    83  H    0.308083
    84  H    0.108773
    85  H    0.107655
    86  H    0.143714
    87  H    0.112340
    88  H    0.076996
    89  H    0.110784
    90  H    0.137003
    91  H    0.114809
    92  H    0.067510
    93  H    0.087627
    94  H    0.069948
    95  H    0.094474
    96  H    0.090222
    97  H    0.099251
    98  H    0.099369
    99  H    0.135862
   100  H    0.120721
 Sum of Mulliken charges =  -0.00000

 Dipole moment (field-independent basis, Debye):
    X=              1.6742    Y=             -0.0069    Z=              1.8913  Tot=              2.5259
 Quadrupole moment (field-independent basis, Debye-Ang):
   XX=           -280.5893   YY=           -257.9342   ZZ=           -278.0267
   XY=             14.2295   XZ=             34.1422   YZ=             -2.0478

 Normal termination of Gaussian 16 at Tue Jul 30 10:35:56 2019.
