 Gaussian 16, Revision A.03,
 Gaussian 16:  ES64L-G16RevA.03 25-Dec-2016

 -------------------------------------
 # td=(NStates=1) CAM-B3LYP/6-31G(d,p)
 -------------------------------------

 --
 TD
 --
 Symbolic Z-matrix:
 Charge =  0 Multiplicity = 1

                         Standard orientation:
 ---------------------------------------------------------------------
 Center     Atomic      Atomic             Coordinates (Angstroms)
 Number     Number       Type             X           Y           Z
 ---------------------------------------------------------------------
      1          8           0      -11.698621    0.068353   -1.520384
      2          8           0      -13.107030   -2.209187    1.710326
      3          8           0       10.481298   -0.871264   -2.087304
      4          8           0       14.538921   -1.132281   -0.171711
      5          6           0      -11.025697   -0.261553   -0.319857
      6          6           0      -11.683538   -1.293821   -1.131476
      7          6           0      -11.659347    0.383345    0.948078
      8          6           0      -13.062054   -1.882362   -0.738256
      9          6           0      -13.180096    0.087764    0.826952
     10          6           0      -13.539441   -1.397119    0.704343
     11          6           0      -10.796490   -2.191566   -2.040269
     12          6           0       -9.534387    0.030526   -0.449438
     13          6           0      -10.991087   -0.077911    2.183288
     14          6           0      -11.600286    1.932458    0.767582
     15          6           0       -8.570874   -0.747982    0.046455
     16          6           0       -7.177627   -0.590505   -0.087357
     17          6           0       -6.204700   -1.757531    0.224861
     18          6           0       -6.600899    0.653961   -0.411375
     19          6           0       -5.192411    0.933186   -0.434175
     20          6           0       11.933827    0.025904    1.316508
     21          6           0       11.541528   -0.566846   -1.225955
     22          6           0       12.661420   -1.272815    1.403377
     23          6           0       13.359626   -1.859416    0.173334
     24          6           0       12.350145   -1.911300   -1.026480
     25          6           0       10.990058   -0.022980    0.107753
     26          6           0       11.101382    0.218954    2.529336
     27          6           0       12.886717    1.211375    1.232960
     28          6           0       12.437110    0.428011   -2.017515
     29          6           0       -4.704130    2.152083   -0.609896
     30          6           0        9.820026    0.455585    0.155875
     31          6           0       -3.357782    2.548928   -0.463685
     32          6           0        8.628110    0.861773   -0.171178
     33          6           0       -3.002814    3.935199   -0.672658
     34          6           0       -2.288026    1.656369   -0.393623
     35          6           0        7.422815    0.120781    0.036269
     36          6           0        7.668210   -1.434045    0.195886
     37          6           0        6.221449    0.691409    0.097163
     38          6           0       -0.993375    1.976546   -0.283453
     39          6           0        4.872224    0.052920    0.310578
     40          6           0        0.090555    0.977725   -0.064048
     41          6           0        3.760547    0.857369    0.174156
     42          6           0        1.390569    1.333575   -0.020362
     43          6           0        2.442511    0.443016    0.163752
     44          6           0        2.142505   -1.014717    0.412474
     45          1           0      -13.025939   -3.125213   -0.706139
     46          1           0      -13.569354   -1.676786   -1.702886
     47          1           0      -13.639593    0.553750    1.911757
     48          1           0      -13.470787    0.770486    0.068916
     49          1           0      -14.689267   -1.407329    0.786308
     50          1           0      -10.572568   -2.995128   -1.462311
     51          1           0      -11.501715   -2.477094   -2.895387
     52          1           0       -9.999192   -1.497648   -2.730034
     53          1           0       -9.259359    0.841645   -1.099683
     54          1           0       -9.953333    0.488240    2.371383
     55          1           0      -11.628854    0.109630    3.006000
     56          1           0      -10.852099   -1.142212    2.241277
     57          1           0      -12.006759    2.141372   -0.272349
     58          1           0      -12.052931    2.423976    1.629515
     59          1           0      -10.537566    2.405921    1.012395
     60          1           0      -12.323205   -2.574949    1.460257
     61          1           0       -8.819624   -1.722002    0.684281
     62          1           0       -5.628364   -1.980181   -0.673017
     63          1           0       -5.542486   -1.475739    0.981956
     64          1           0       -6.631221   -2.821657    0.421029
     65          1           0       -7.403842    1.566888   -0.263957
     66          1           0       -4.600625   -0.069789   -0.483872
     67          1           0       13.380313   -1.174170    2.321075
     68          1           0       11.924066   -2.102152    1.517654
     69          1           0       13.709573   -2.914546    0.280716
     70          1           0       12.819821   -2.269652   -1.969761
     71          1           0       11.545579   -2.738913   -0.756401
     72          1           0       11.727461    0.160070    3.366447
     73          1           0       10.600026    1.159399    2.587824
     74          1           0       10.240769   -0.480121    2.481649
     75          1           0       13.459886    1.266509    0.088125
     76          1           0       12.411898    2.425890    1.272630
     77          1           0       13.419228    1.260063    2.075228
     78          1           0       12.735341   -0.010278   -2.932653
     79          1           0       12.037796    1.572605   -2.089619
     80          1           0       13.383343    0.683729   -1.561410
     81          1           0       -5.405436    3.035758   -0.597340
     82          1           0        9.907038   -0.071717   -2.161555
     83          1           0       15.090754   -1.087097    0.680237
     84          1           0        8.437198    1.887262   -0.267985
     85          1           0       -2.433253    4.503523    0.170400
     86          1           0       -2.287000    3.992292   -1.605761
     87          1           0       -3.901771    4.647806   -0.744877
     88          1           0       -2.594261    0.664337   -0.094557
     89          1           0        6.569578   -1.818000   -0.074967
     90          1           0        8.561036   -1.791559   -0.418941
     91          1           0        7.895575   -1.662502    1.300529
     92          1           0        6.197102    1.644616   -0.086409
     93          1           0       -0.644239    3.171746   -0.573461
     94          1           0        4.800143   -1.084384    0.344626
     95          1           0       -0.529957   -0.073568   -0.007331
     96          1           0        3.943566    1.921303   -0.141042
     97          1           0        1.499484    2.332935   -0.263782
     98          1           0        1.036352   -1.300385    0.605952
     99          1           0        2.509600   -1.673670   -0.455013
    100          1           0        2.607896   -1.376045    1.277367
 ---------------------------------------------------------------------

 SCF Done:  E(RCAM-B3LYP) =  -1857.32747132     A.U. after   15 cycles

 Excitation energies and oscillator strengths:

 Excited State   1:      Singlet-A      1.9543 eV  634.41 nm  f=2.8820  <S**2>=0.000
     163 ->166         0.11158
     164 ->165         0.70586
     164 <-165        -0.12872
 This state for optimization and/or second-order correction.
 Total Energy, E(TD-HF/TD-DFT) =  -1857.25565147
 Copying the excited state density for this state as the 1-particle RhoCI density.

 The electronic state is 1-A.
 Alpha  occ. eigenvalues --  -19.22491 -19.22457 -19.21546 -19.20682 -10.32671
 Alpha  occ. eigenvalues --  -10.32470 -10.32456 -10.31635 -10.31413 -10.28728
 Alpha  occ. eigenvalues --  -10.28070 -10.28031 -10.27961 -10.27627 -10.27491
 Alpha  occ. eigenvalues --  -10.27320 -10.27252 -10.27131 -10.27033 -10.26989
 Alpha  occ. eigenvalues --  -10.26913 -10.26875 -10.26844 -10.26837 -10.26795
 Alpha  occ. eigenvalues --  -10.26779 -10.26704 -10.26601 -10.26432 -10.26368
 Alpha  occ. eigenvalues --  -10.26357 -10.26143 -10.26089 -10.25983 -10.25914
 Alpha  occ. eigenvalues --  -10.25824 -10.25797 -10.25772 -10.25592 -10.25005
 Alpha  occ. eigenvalues --  -10.24934 -10.24499 -10.24489 -10.23604  -1.16791
 Alpha  occ. eigenvalues --   -1.14127  -1.09958  -1.08736  -0.94161  -0.92860
 Alpha  occ. eigenvalues --   -0.92164  -0.91268  -0.90933  -0.90265  -0.87392
 Alpha  occ. eigenvalues --   -0.86151  -0.85746  -0.85539  -0.84643  -0.82925
 Alpha  occ. eigenvalues --   -0.81763  -0.80727  -0.80210  -0.78760  -0.76832
 Alpha  occ. eigenvalues --   -0.76457  -0.76262  -0.75958  -0.75377  -0.75042
 Alpha  occ. eigenvalues --   -0.74911  -0.74159  -0.72796  -0.70952  -0.69798
 Alpha  occ. eigenvalues --   -0.68742  -0.67309  -0.65478  -0.64877  -0.64141
 Alpha  occ. eigenvalues --   -0.63083  -0.61401  -0.60552  -0.60354  -0.60223
 Alpha  occ. eigenvalues --   -0.58532  -0.57862  -0.57670  -0.57162  -0.56505
 Alpha  occ. eigenvalues --   -0.55959  -0.55376  -0.55090  -0.54791  -0.54651
 Alpha  occ. eigenvalues --   -0.54317  -0.53389  -0.53041  -0.52452  -0.51740
 Alpha  occ. eigenvalues --   -0.51531  -0.51283  -0.50736  -0.50628  -0.49820
 Alpha  occ. eigenvalues --   -0.49527  -0.49385  -0.48499  -0.48337  -0.48254
 Alpha  occ. eigenvalues --   -0.47814  -0.47462  -0.47372  -0.46703  -0.46560
 Alpha  occ. eigenvalues --   -0.46404  -0.45956  -0.45761  -0.45479  -0.45441
 Alpha  occ. eigenvalues --   -0.44984  -0.44318  -0.44190  -0.44043  -0.43667
 Alpha  occ. eigenvalues --   -0.43612  -0.43249  -0.42645  -0.42402  -0.42311
 Alpha  occ. eigenvalues --   -0.42278  -0.41829  -0.41398  -0.40877  -0.40798
 Alpha  occ. eigenvalues --   -0.40612  -0.40476  -0.40221  -0.40117  -0.39834
 Alpha  occ. eigenvalues --   -0.39539  -0.39480  -0.39355  -0.38944  -0.38396
 Alpha  occ. eigenvalues --   -0.38190  -0.37956  -0.37602  -0.37550  -0.36458
 Alpha  occ. eigenvalues --   -0.36234  -0.35980  -0.35227  -0.34962  -0.34106
 Alpha  occ. eigenvalues --   -0.32571  -0.32242  -0.32154  -0.31996  -0.31720
 Alpha  occ. eigenvalues --   -0.30457  -0.27711  -0.25104  -0.18844
 Alpha virt. eigenvalues --   -0.06917  -0.00382   0.02874   0.06761   0.07954
 Alpha virt. eigenvalues --    0.09687   0.10166   0.10293   0.10940   0.12471
 Alpha virt. eigenvalues --    0.12886   0.13142   0.13514   0.13672   0.13888

 Mulliken charges:
               1
     1  O   -0.503881
     2  O   -0.503252
     3  O   -0.564612
     4  O   -0.553123
     5  C    0.193417
     6  C    0.219793
     7  C    0.023925
     8  C   -0.235270
     9  C   -0.169407
    10  C    0.171442
    11  C   -0.311538
    12  C   -0.109536
    13  C   -0.292452
    14  C   -0.319639
    15  C   -0.064163
    16  C    0.078837
    17  C   -0.389351
    18  C   -0.131577
    19  C   -0.069467
    20  C    0.020409
    21  C    0.268372
    22  C   -0.181455
    23  C    0.161534
    24  C   -0.204492
    25  C   -0.023165
    26  C   -0.301217
    27  C   -0.268036
    28  C   -0.315465
    29  C   -0.109390
    30  C    0.119813
    31  C    0.122788
    32  C   -0.298404
    33  C   -0.391783
    34  C   -0.117111
    35  C    0.123411
    36  C   -0.364479
    37  C   -0.103644
    38  C   -0.084740
    39  C   -0.106236
    40  C   -0.087917
    41  C   -0.108834
    42  C   -0.111286
    43  C    0.117697
    44  C   -0.379809
    45  H    0.073680
    46  H    0.134015
    47  H    0.056604
    48  H    0.122124
    49  H    0.092178
    50  H    0.117767
    51  H    0.098189
    52  H    0.116109
    53  H    0.111757
    54  H    0.092035
    55  H    0.112994
    56  H    0.082324
    57  H    0.126885
    58  H    0.109595
    59  H    0.077690
    60  H    0.298813
    61  H    0.064979
    62  H    0.131748
    63  H    0.140551
    64  H    0.098879
    65  H    0.076975
    66  H    0.092756
    67  H    0.068095
    68  H    0.102206
    69  H    0.084468
    70  H    0.119423
    71  H    0.099137
    72  H    0.093753
    73  H    0.116128
    74  H    0.103487
    75  H    0.097882
    76  H    0.052598
    77  H    0.106116
    78  H    0.120215
    79  H    0.071951
    80  H    0.128084
    81  H    0.083286
    82  H    0.309377
    83  H    0.307638
    84  H    0.099766
    85  H    0.112423
    86  H    0.121120
    87  H    0.094816
    88  H    0.074774
    89  H    0.087688
    90  H    0.136461
    91  H    0.111261
    92  H    0.060736
    93  H    0.063170
    94  H    0.095024
    95  H    0.085461
    96  H    0.084650
    97  H    0.088575
    98  H    0.101842
    99  H    0.113392
   100  H    0.129644
 Sum of Mulliken charges =  -0.00000

 Dipole moment (field-independent basis, Debye):
    X=              1.2250    Y=             -0.8812    Z=              1.7361  Tot=              2.3003
 Quadrupole moment (field-independent basis, Debye-Ang):
   XX=           -274.6844   YY=           -256.1946   ZZ=           -279.9394
   XY=             11.0285   XZ=             32.9449   YZ=             -1.8630

 Normal termination of Gaussian 16 at Sun Jul 28 23:28:05 2019.
