 Gaussian 16, Revision A.03,
 Gaussian 16:  ES64L-G16RevA.03 25-Dec-2016

 -------------------------------------
 # td=(NStates=1) CAM-B3LYP/6-31G(d,p)
 -------------------------------------

 --
 TD
 --
 Symbolic Z-matrix:
 Charge =  0 Multiplicity = 1

                         Standard orientation:
 ---------------------------------------------------------------------
 Center     Atomic      Atomic             Coordinates (Angstroms)
 Number     Number       Type             X           Y           Z
 ---------------------------------------------------------------------
      1          8           0      -11.828143    0.464121   -1.354500
      2          8           0      -12.749932   -2.570670    1.238762
      3          8           0       10.753076   -1.013017   -2.117506
      4          8           0       14.512267   -0.907183    0.062316
      5          6           0      -11.139048    0.005342   -0.210487
      6          6           0      -11.803289   -0.896095   -1.224362
      7          6           0      -11.775938    0.343514    1.132578
      8          6           0      -13.159565   -1.559329   -0.928831
      9          6           0      -13.234008   -0.088304    1.137931
     10          6           0      -13.462790   -1.520501    0.479431
     11          6           0      -10.950487   -1.603763   -2.222010
     12          6           0       -9.589800    0.102710   -0.319562
     13          6           0      -11.099389   -0.171975    2.441676
     14          6           0      -11.740099    1.830617    1.331608
     15          6           0       -8.660521   -0.795773    0.099514
     16          6           0       -7.195411   -0.659346    0.060191
     17          6           0       -6.445274   -2.012213    0.187895
     18          6           0       -6.639518    0.609473   -0.025399
     19          6           0       -5.169892    0.787001   -0.353698
     20          6           0       11.898175    0.076826    1.393384
     21          6           0       11.789249   -0.551248   -1.148514
     22          6           0       12.696702   -1.128884    1.650437
     23          6           0       13.403584   -1.780400    0.395645
     24          6           0       12.449658   -1.903958   -0.815880
     25          6           0       11.097136    0.079311    0.005794
     26          6           0       10.982019    0.302276    2.641665
     27          6           0       12.854907    1.347894    1.408609
     28          6           0       12.672173    0.431250   -1.826418
     29          6           0       -4.678722    2.070008   -0.341022
     30          6           0        9.838763    0.458515    0.003386
     31          6           0       -3.366173    2.472760   -0.499290
     32          6           0        8.590023    0.964639   -0.196585
     33          6           0       -3.099963    3.902255   -0.532937
     34          6           0       -2.272407    1.520005   -0.519246
     35          6           0        7.364541    0.109657   -0.076374
     36          6           0        7.656550   -1.348645    0.295707
     37          6           0        6.173260    0.683705   -0.151067
     38          6           0       -0.932481    1.872498   -0.483891
     39          6           0        4.857600    0.029387   -0.084455
     40          6           0        0.033233    0.762530   -0.540485
     41          6           0        3.767220    0.846845   -0.280405
     42          6           0        1.412732    1.097736   -0.396892
     43          6           0        2.475599    0.261130   -0.272426
     44          6           0        2.410624   -1.308893   -0.070437
     45          1           0      -13.229419   -2.559660   -1.293054
     46          1           0      -13.859668   -1.106455   -1.519246
     47          1           0      -13.878238   -0.079610    2.029311
     48          1           0      -13.703913    0.613405    0.502407
     49          1           0      -14.359635   -1.720807    0.701288
     50          1           0      -10.710531   -2.557667   -1.856469
     51          1           0      -11.657358   -1.930950   -3.039399
     52          1           0      -10.047515   -0.920073   -2.537256
     53          1           0       -9.242251    1.198403   -0.750281
     54          1           0      -10.101556    0.153630    2.437220
     55          1           0      -11.618032   -0.034559    3.482357
     56          1           0      -11.119930   -1.119518    2.528301
     57          1           0      -12.178318    2.513319    0.470870
     58          1           0      -12.402584    2.261939    2.008219
     59          1           0      -10.914452    2.440393    1.624673
     60          1           0      -11.874090   -2.860620    0.837639
     61          1           0       -9.085351   -1.707677    0.501364
     62          1           0       -6.388245   -2.520839   -0.895158
     63          1           0       -5.236448   -1.929875    0.594691
     64          1           0       -7.342758   -2.661370    0.655873
     65          1           0       -7.212920    1.592653    0.101595
     66          1           0       -4.705195   -0.236797   -0.401051
     67          1           0       13.358363   -0.905944    2.511312
     68          1           0       12.051305   -1.736665    2.168410
     69          1           0       13.709498   -2.857205    0.418816
     70          1           0       13.137069   -2.098257   -1.724185
     71          1           0       11.748444   -2.665696   -0.498983
     72          1           0       11.722562    0.179067    3.634022
     73          1           0       10.411643    1.177094    2.464611
     74          1           0       10.361766   -0.461947    2.711609
     75          1           0       13.776131    1.089556    0.732242
     76          1           0       12.377642    2.402835    0.960245
     77          1           0       13.252218    1.282443    2.467755
     78          1           0       13.014893   -0.118058   -2.882515
     79          1           0       12.116600    1.295494   -2.104891
     80          1           0       13.609621    0.806011   -1.364499
     81          1           0       -5.453113    2.807907   -0.139100
     82          1           0       10.181533   -0.349592   -2.350769
     83          1           0       15.098473   -0.834046    0.981906
     84          1           0        8.399786    1.823944   -0.524428
     85          1           0       -2.543122    4.325167    0.388076
     86          1           0       -2.429885    4.233089   -1.355711
     87          1           0       -3.898654    4.415244   -0.661776
     88          1           0       -2.659497    0.475370   -0.579272
     89          1           0        6.846409   -2.060841    0.178797
     90          1           0        8.339389   -1.767153   -0.409212
     91          1           0        8.188784   -1.536780    1.323489
     92          1           0        6.050500    1.766335   -0.542878
     93          1           0       -0.708870    2.956220   -0.275008
     94          1           0        4.707882   -0.948952    0.130621
     95          1           0       -0.248126   -0.162830   -0.499035
     96          1           0        3.840851    1.986493   -0.581546
     97          1           0        1.749403    2.086508   -0.540646
     98          1           0        1.310656   -1.657655    0.304367
     99          1           0        2.795608   -1.842443   -0.950650
    100          1           0        3.100665   -1.549329    0.923672
 ---------------------------------------------------------------------

 SCF Done:  E(RCAM-B3LYP) =  -1857.26517171     A.U. after   15 cycles

 Excitation energies and oscillator strengths:

 Excited State   1:      Singlet-A      2.1262 eV  583.12 nm  f=2.7112  <S**2>=0.000
     163 ->166         0.11708
     164 ->165         0.70135
     164 <-165        -0.10883
 This state for optimization and/or second-order correction.
 Total Energy, E(TD-HF/TD-DFT) =  -1857.18703481
 Copying the excited state density for this state as the 1-particle RhoCI density.

 The electronic state is 1-A.
 Alpha  occ. eigenvalues --  -19.23084 -19.22883 -19.20828 -19.19295 -10.32400
 Alpha  occ. eigenvalues --  -10.31929 -10.31804 -10.31716 -10.30284 -10.28935
 Alpha  occ. eigenvalues --  -10.28733 -10.28215 -10.27988 -10.27947 -10.27791
 Alpha  occ. eigenvalues --  -10.27674 -10.27339 -10.27331 -10.27290 -10.27169
 Alpha  occ. eigenvalues --  -10.27080 -10.27049 -10.27025 -10.26870 -10.26783
 Alpha  occ. eigenvalues --  -10.26607 -10.26339 -10.26320 -10.26261 -10.26208
 Alpha  occ. eigenvalues --  -10.26200 -10.26118 -10.25570 -10.25569 -10.25568
 Alpha  occ. eigenvalues --  -10.25409 -10.25241 -10.24884 -10.24699 -10.24684
 Alpha  occ. eigenvalues --  -10.24499 -10.24307 -10.23312 -10.22514  -1.18239
 Alpha  occ. eigenvalues --   -1.08414  -1.07778  -1.06731  -0.92846  -0.92144
 Alpha  occ. eigenvalues --   -0.91627  -0.91016  -0.90044  -0.89703  -0.87818
 Alpha  occ. eigenvalues --   -0.87016  -0.86763  -0.84941  -0.84119  -0.82637
 Alpha  occ. eigenvalues --   -0.82059  -0.80612  -0.80123  -0.77941  -0.76884
 Alpha  occ. eigenvalues --   -0.76876  -0.76457  -0.76399  -0.75853  -0.75288
 Alpha  occ. eigenvalues --   -0.74565  -0.74132  -0.73324  -0.70931  -0.69689
 Alpha  occ. eigenvalues --   -0.68955  -0.66377  -0.65532  -0.64807  -0.64087
 Alpha  occ. eigenvalues --   -0.63414  -0.62938  -0.60894  -0.60242  -0.59956
 Alpha  occ. eigenvalues --   -0.58357  -0.58283  -0.57756  -0.57130  -0.57071
 Alpha  occ. eigenvalues --   -0.56075  -0.55653  -0.54979  -0.54842  -0.54319
 Alpha  occ. eigenvalues --   -0.53631  -0.53296  -0.52784  -0.52328  -0.51954
 Alpha  occ. eigenvalues --   -0.51472  -0.50869  -0.50439  -0.50008  -0.49629
 Alpha  occ. eigenvalues --   -0.49408  -0.48898  -0.48654  -0.48102  -0.48015
 Alpha  occ. eigenvalues --   -0.47712  -0.47591  -0.47267  -0.46665  -0.46586
 Alpha  occ. eigenvalues --   -0.46254  -0.45774  -0.45620  -0.45347  -0.44853
 Alpha  occ. eigenvalues --   -0.44712  -0.44632  -0.44267  -0.44148  -0.43498
 Alpha  occ. eigenvalues --   -0.43317  -0.43026  -0.42857  -0.42692  -0.42391
 Alpha  occ. eigenvalues --   -0.42169  -0.41850  -0.41675  -0.41258  -0.40957
 Alpha  occ. eigenvalues --   -0.40916  -0.40674  -0.40242  -0.40001  -0.39816
 Alpha  occ. eigenvalues --   -0.39316  -0.39185  -0.39086  -0.38885  -0.38426
 Alpha  occ. eigenvalues --   -0.38410  -0.37963  -0.37546  -0.37369  -0.37165
 Alpha  occ. eigenvalues --   -0.36478  -0.35757  -0.35193  -0.34133  -0.33567
 Alpha  occ. eigenvalues --   -0.32890  -0.32437  -0.32307  -0.31223  -0.30823
 Alpha  occ. eigenvalues --   -0.29724  -0.27739  -0.24725  -0.19315
 Alpha virt. eigenvalues --   -0.05999   0.00207   0.03007   0.06588   0.07120
 Alpha virt. eigenvalues --    0.08870   0.09143   0.09672   0.10749   0.11693
 Alpha virt. eigenvalues --    0.12227   0.12765   0.13290   0.13352   0.13980

 Mulliken charges:
               1
     1  O   -0.479700
     2  O   -0.583741
     3  O   -0.572024
     4  O   -0.548528
     5  C    0.194151
     6  C    0.241637
     7  C    0.049984
     8  C   -0.220188
     9  C   -0.220591
    10  C    0.199316
    11  C   -0.326721
    12  C   -0.128878
    13  C   -0.297284
    14  C   -0.326544
    15  C   -0.080143
    16  C    0.083407
    17  C   -0.354615
    18  C   -0.123438
    19  C   -0.061643
    20  C    0.002766
    21  C    0.243856
    22  C   -0.196258
    23  C    0.146292
    24  C   -0.175677
    25  C   -0.066457
    26  C   -0.285539
    27  C   -0.284453
    28  C   -0.297744
    29  C   -0.135114
    30  C    0.122854
    31  C    0.098154
    32  C   -0.217192
    33  C   -0.380441
    34  C   -0.096193
    35  C    0.104832
    36  C   -0.381229
    37  C   -0.124744
    38  C   -0.091427
    39  C   -0.078941
    40  C   -0.074112
    41  C   -0.110519
    42  C   -0.122492
    43  C    0.115139
    44  C   -0.368618
    45  H    0.103717
    46  H    0.127673
    47  H    0.102612
    48  H    0.109172
    49  H    0.088943
    50  H    0.104675
    51  H    0.097109
    52  H    0.125297
    53  H    0.088547
    54  H    0.106788
    55  H    0.088783
    56  H    0.108056
    57  H    0.079887
    58  H    0.111273
    59  H    0.104635
    60  H    0.303179
    61  H    0.071980
    62  H    0.114058
    63  H    0.107970
    64  H    0.110070
    65  H    0.090832
    66  H    0.082961
    67  H    0.079683
    68  H    0.103157
    69  H    0.085779
    70  H    0.118692
    71  H    0.122001
    72  H    0.064398
    73  H    0.120463
    74  H    0.115211
    75  H    0.105376
    76  H    0.083077
    77  H    0.083179
    78  H    0.084336
    79  H    0.100106
    80  H    0.142425
    81  H    0.088245
    82  H    0.288979
    83  H    0.310586
    84  H    0.082438
    85  H    0.110011
    86  H    0.117980
    87  H    0.115623
    88  H    0.076777
    89  H    0.102965
    90  H    0.139935
    91  H    0.107558
    92  H    0.071903
    93  H    0.101524
    94  H    0.084822
    95  H    0.077088
    96  H    0.085437
    97  H    0.073759
    98  H    0.094300
    99  H    0.138418
   100  H    0.104348
 Sum of Mulliken charges =  -0.00000

 Dipole moment (field-independent basis, Debye):
    X=              1.4362    Y=             -0.6973    Z=              1.2749  Tot=              2.0431
 Quadrupole moment (field-independent basis, Debye-Ang):
   XX=           -263.9032   YY=           -256.5727   ZZ=           -279.0034
   XY=              1.1401   XZ=             33.3575   YZ=             -1.0493

 Normal termination of Gaussian 16 at Tue Jul 30 22:19:33 2019.
