 Gaussian 16, Revision A.03,
 Gaussian 16:  ES64L-G16RevA.03 25-Dec-2016

 -------------------------------------
 # td=(NStates=1) CAM-B3LYP/6-31G(d,p)
 -------------------------------------

 --
 TD
 --
 Symbolic Z-matrix:
 Charge =  0 Multiplicity = 1

                         Standard orientation:
 ---------------------------------------------------------------------
 Center     Atomic      Atomic             Coordinates (Angstroms)
 Number     Number       Type             X           Y           Z
 ---------------------------------------------------------------------
      1          8           0      -11.795307    0.132541   -1.501918
      2          8           0      -13.006161   -2.368145    1.450272
      3          8           0       10.847720   -0.958564   -2.137783
      4          8           0       14.480736   -0.821381    0.016594
      5          6           0      -11.127827   -0.168863   -0.296511
      6          6           0      -11.623467   -1.203926   -1.208058
      7          6           0      -11.847226    0.462659    0.909671
      8          6           0      -12.949864   -1.862750   -0.920956
      9          6           0      -13.318644   -0.048323    0.821328
     10          6           0      -13.549741   -1.485631    0.461623
     11          6           0      -10.611270   -1.970595   -2.087978
     12          6           0       -9.711535    0.132451   -0.300665
     13          6           0      -11.182654    0.135936    2.303951
     14          6           0      -11.842051    1.902773    0.709431
     15          6           0       -8.706658   -0.612512    0.215442
     16          6           0       -7.196571   -0.537746    0.152912
     17          6           0       -6.292514   -1.764465    0.449566
     18          6           0       -6.636157    0.650612   -0.005318
     19          6           0       -5.225258    0.888799   -0.167420
     20          6           0       11.857918   -0.059735    1.486008
     21          6           0       11.725149   -0.533485   -1.172662
     22          6           0       12.591085   -1.398110    1.438612
     23          6           0       13.528626   -1.734479    0.236283
     24          6           0       12.574776   -1.742990   -1.003985
     25          6           0       11.065178    0.088725    0.041648
     26          6           0       10.849729    0.105324    2.612645
     27          6           0       12.808323    1.154934    1.656532
     28          6           0       12.607115    0.561641   -1.741419
     29          6           0       -4.737246    2.137367   -0.419804
     30          6           0        9.853449    0.462602    0.006949
     31          6           0       -3.358957    2.477918   -0.405932
     32          6           0        8.676241    0.953236   -0.193140
     33          6           0       -2.991077    3.917982   -0.717594
     34          6           0       -2.306075    1.633450   -0.208391
     35          6           0        7.460845    0.113049   -0.127737
     36          6           0        7.691908   -1.382662   -0.012667
     37          6           0        6.250362    0.605681   -0.226803
     38          6           0       -0.969321    1.848457   -0.236168
     39          6           0        4.952089    0.025896   -0.188760
     40          6           0        0.003245    0.829692   -0.060697
     41          6           0        3.799216    0.806371   -0.257530
     42          6           0        1.410593    1.185577   -0.128180
     43          6           0        2.406007    0.279011   -0.104026
     44          6           0        2.333100   -1.160055    0.079640
     45          1           0      -12.896088   -2.920614   -0.942999
     46          1           0      -13.553943   -1.522595   -1.856099
     47          1           0      -13.698140   -0.070988    1.987340
     48          1           0      -13.917865    0.644775    0.276205
     49          1           0      -14.581578   -1.598337    0.704979
     50          1           0      -10.196437   -2.898287   -1.576721
     51          1           0      -11.209986   -2.294567   -2.951885
     52          1           0       -9.841832   -1.404195   -2.293467
     53          1           0       -9.564734    1.201138   -0.756940
     54          1           0      -10.122088    0.480585    2.499304
     55          1           0      -12.023910    0.379445    3.290094
     56          1           0      -11.075186   -1.012320    2.314428
     57          1           0      -12.363742    2.106269   -0.345665
     58          1           0      -12.533271    2.472099    1.576918
     59          1           0      -10.754017    2.073628    0.874520
     60          1           0      -12.133245   -2.880063    1.178868
     61          1           0       -9.051204   -1.648597    0.722333
     62          1           0       -5.766788   -2.328098   -0.364717
     63          1           0       -5.402545   -1.731083    1.070151
     64          1           0       -6.962108   -2.557353    1.052814
     65          1           0       -7.138559    1.653068   -0.230546
     66          1           0       -4.575445    0.125973   -0.005227
     67          1           0       13.173997   -1.285380    2.480185
     68          1           0       11.698877   -2.274996    1.435357
     69          1           0       13.810998   -2.693701    0.429263
     70          1           0       13.268090   -1.763359   -2.004591
     71          1           0       11.877432   -2.676856   -0.986007
     72          1           0       11.233149    0.025878    3.615306
     73          1           0       10.399061    1.024162    2.496594
     74          1           0       10.116684   -0.719936    2.435189
     75          1           0       13.754589    1.302150    0.845789
     76          1           0       12.279798    2.145694    1.617981
     77          1           0       13.158216    1.226568    2.584002
     78          1           0       13.074159    0.225888   -2.682316
     79          1           0       12.041570    1.478089   -2.074852
     80          1           0       13.513188    0.731341   -1.107782
     81          1           0       -5.359538    2.943051   -0.788444
     82          1           0       10.041544   -0.409843   -2.052669
     83          1           0       15.068797   -0.578736    0.826518
     84          1           0        8.587142    1.812477   -0.609468
     85          1           0       -2.674650    4.328795    0.091896
     86          1           0       -2.235788    4.021823   -1.536219
     87          1           0       -3.908274    4.551031   -1.278406
     88          1           0       -2.436937    0.588208    0.124780
     89          1           0        6.728457   -1.796678   -0.401058
     90          1           0        8.566910   -1.698435   -0.514580
     91          1           0        7.653251   -1.596803    1.265316
     92          1           0        6.118071    1.778845   -0.286161
     93          1           0       -0.618203    2.849276   -0.524185
     94          1           0        4.927274   -1.129513   -0.310312
     95          1           0       -0.383626   -0.182861   -0.007925
     96          1           0        3.945372    1.768812   -0.458497
     97          1           0        1.679528    2.259193   -0.078586
     98          1           0        1.247758   -1.566031   -0.246848
     99          1           0        2.794501   -1.584117   -0.652646
    100          1           0        2.440371   -1.412411    1.173329
 ---------------------------------------------------------------------

 SCF Done:  E(RCAM-B3LYP) =  -1857.29397688     A.U. after   15 cycles

 Excitation energies and oscillator strengths:

 Excited State   1:      Singlet-A      2.4564 eV  504.73 nm  f=2.9405  <S**2>=0.000
     163 ->166         0.13752
     164 ->165         0.69297
 This state for optimization and/or second-order correction.
 Total Energy, E(TD-HF/TD-DFT) =  -1857.20370421
 Copying the excited state density for this state as the 1-particle RhoCI density.

 The electronic state is 1-A.
 Alpha  occ. eigenvalues --  -19.23258 -19.22618 -19.21239 -19.20609 -10.32135
 Alpha  occ. eigenvalues --  -10.31010 -10.30737 -10.30632 -10.30360 -10.29001
 Alpha  occ. eigenvalues --  -10.28682 -10.28582 -10.28006 -10.27773 -10.27322
 Alpha  occ. eigenvalues --  -10.27251 -10.27211 -10.27122 -10.27002 -10.26913
 Alpha  occ. eigenvalues --  -10.26824 -10.26816 -10.26667 -10.26577 -10.26552
 Alpha  occ. eigenvalues --  -10.26404 -10.26394 -10.26350 -10.26248 -10.26113
 Alpha  occ. eigenvalues --  -10.26013 -10.25854 -10.25829 -10.25762 -10.25671
 Alpha  occ. eigenvalues --  -10.25627 -10.25617 -10.25593 -10.25360 -10.25274
 Alpha  occ. eigenvalues --  -10.25000 -10.24733 -10.24253 -10.22841  -1.18472
 Alpha  occ. eigenvalues --   -1.12566  -1.11194  -1.07619  -0.92921  -0.92667
 Alpha  occ. eigenvalues --   -0.91941  -0.91290  -0.90868  -0.90159  -0.87380
 Alpha  occ. eigenvalues --   -0.86464  -0.86174  -0.86097  -0.85010  -0.83181
 Alpha  occ. eigenvalues --   -0.82256  -0.80787  -0.80617  -0.79323  -0.77595
 Alpha  occ. eigenvalues --   -0.76896  -0.76574  -0.76241  -0.75904  -0.74530
 Alpha  occ. eigenvalues --   -0.74350  -0.73748  -0.73231  -0.70766  -0.70199
 Alpha  occ. eigenvalues --   -0.68810  -0.67323  -0.65106  -0.64350  -0.64100
 Alpha  occ. eigenvalues --   -0.63858  -0.62726  -0.61574  -0.60493  -0.60232
 Alpha  occ. eigenvalues --   -0.59663  -0.58893  -0.58562  -0.57704  -0.56598
 Alpha  occ. eigenvalues --   -0.56507  -0.55655  -0.55275  -0.54857  -0.54603
 Alpha  occ. eigenvalues --   -0.53594  -0.53282  -0.52698  -0.52516  -0.52141
 Alpha  occ. eigenvalues --   -0.51258  -0.51227  -0.51037  -0.50617  -0.49974
 Alpha  occ. eigenvalues --   -0.49873  -0.49376  -0.48908  -0.48693  -0.48297
 Alpha  occ. eigenvalues --   -0.47931  -0.47771  -0.47533  -0.47422  -0.47129
 Alpha  occ. eigenvalues --   -0.47051  -0.46452  -0.46233  -0.45605  -0.45484
 Alpha  occ. eigenvalues --   -0.44912  -0.44575  -0.44206  -0.44011  -0.43800
 Alpha  occ. eigenvalues --   -0.43596  -0.43333  -0.43013  -0.42238  -0.41914
 Alpha  occ. eigenvalues --   -0.41642  -0.41235  -0.40951  -0.40944  -0.40617
 Alpha  occ. eigenvalues --   -0.40200  -0.39985  -0.39681  -0.39631  -0.39611
 Alpha  occ. eigenvalues --   -0.39452  -0.39029  -0.38924  -0.38771  -0.38612
 Alpha  occ. eigenvalues --   -0.38207  -0.38128  -0.37922  -0.37293  -0.36964
 Alpha  occ. eigenvalues --   -0.36316  -0.36010  -0.34939  -0.34578  -0.33703
 Alpha  occ. eigenvalues --   -0.32795  -0.32572  -0.32324  -0.31322  -0.30874
 Alpha  occ. eigenvalues --   -0.30349  -0.28363  -0.25121  -0.20543
 Alpha virt. eigenvalues --   -0.05334  -0.00209   0.03380   0.07037   0.07864
 Alpha virt. eigenvalues --    0.08722   0.09147   0.09387   0.11597   0.12027
 Alpha virt. eigenvalues --    0.12378   0.12798   0.13148   0.13285   0.13586

 Mulliken charges:
               1
     1  O   -0.488102
     2  O   -0.572900
     3  O   -0.565265
     4  O   -0.529745
     5  C    0.203720
     6  C    0.222069
     7  C    0.041355
     8  C   -0.219907
     9  C   -0.183204
    10  C    0.187436
    11  C   -0.309470
    12  C   -0.123227
    13  C   -0.288353
    14  C   -0.281710
    15  C   -0.091489
    16  C    0.077768
    17  C   -0.383659
    18  C   -0.088478
    19  C   -0.043428
    20  C    0.027186
    21  C    0.271960
    22  C   -0.203156
    23  C    0.207391
    24  C   -0.197331
    25  C   -0.091392
    26  C   -0.301788
    27  C   -0.305252
    28  C   -0.305005
    29  C   -0.118412
    30  C    0.159895
    31  C    0.075522
    32  C   -0.243675
    33  C   -0.371010
    34  C   -0.106615
    35  C    0.071677
    36  C   -0.337029
    37  C   -0.101120
    38  C   -0.072018
    39  C   -0.091896
    40  C   -0.105962
    41  C   -0.110297
    42  C   -0.124654
    43  C    0.102380
    44  C   -0.355252
    45  H    0.100210
    46  H    0.107607
    47  H    0.076006
    48  H    0.104793
    49  H    0.104471
    50  H    0.093956
    51  H    0.108295
    52  H    0.134196
    53  H    0.107395
    54  H    0.108655
    55  H    0.070200
    56  H    0.091106
    57  H    0.109704
    58  H    0.077457
    59  H    0.096393
    60  H    0.306890
    61  H    0.056888
    62  H    0.122672
    63  H    0.131532
    64  H    0.091037
    65  H    0.083001
    66  H    0.077079
    67  H    0.060943
    68  H    0.073929
    69  H    0.089101
    70  H    0.098613
    71  H    0.099870
    72  H    0.100903
    73  H    0.123663
    74  H    0.101848
    75  H    0.079921
    76  H    0.100645
    77  H    0.105651
    78  H    0.097475
    79  H    0.079730
    80  H    0.130861
    81  H    0.086150
    82  H    0.300356
    83  H    0.318462
    84  H    0.099050
    85  H    0.145439
    86  H    0.121373
    87  H    0.076468
    88  H    0.065903
    89  H    0.104807
    90  H    0.125427
    91  H    0.087427
    92  H    0.060174
    93  H    0.075684
    94  H    0.083400
    95  H    0.091410
    96  H    0.074806
    97  H    0.091594
    98  H    0.075801
    99  H    0.137370
   100  H    0.138646
 Sum of Mulliken charges =  -0.00000

 Dipole moment (field-independent basis, Debye):
    X=              3.2002    Y=             -0.8524    Z=              1.5534  Tot=              3.6580
 Quadrupole moment (field-independent basis, Debye-Ang):
   XX=           -282.9995   YY=           -259.0875   ZZ=           -280.4381
   XY=             12.9377   XZ=             44.5968   YZ=             -1.3870

 Normal termination of Gaussian 16 at Wed Jul 31 15:40:17 2019.
