 Gaussian 16, Revision A.03,
 Gaussian 16:  ES64L-G16RevA.03 25-Dec-2016

 -------------------------------------
 # td=(NStates=1) CAM-B3LYP/6-31G(d,p)
 -------------------------------------

 --
 TD
 --
 Symbolic Z-matrix:
 Charge =  0 Multiplicity = 1

                         Standard orientation:
 ---------------------------------------------------------------------
 Center     Atomic      Atomic             Coordinates (Angstroms)
 Number     Number       Type             X           Y           Z
 ---------------------------------------------------------------------
      1          8           0      -11.687107    0.152892   -1.623961
      2          8           0      -13.081904   -2.308075    1.568311
      3          8           0       10.603270   -1.029072   -2.020689
      4          8           0       14.454978   -0.895913   -0.094166
      5          6           0      -11.102665   -0.169643   -0.367863
      6          6           0      -11.671584   -1.259584   -1.157768
      7          6           0      -11.815057    0.463134    0.854417
      8          6           0      -13.088272   -1.831759   -0.874894
      9          6           0      -13.349012    0.104567    0.757064
     10          6           0      -13.631533   -1.416608    0.525082
     11          6           0      -10.892706   -2.226123   -2.031303
     12          6           0       -9.606858    0.108738   -0.402393
     13          6           0      -11.109700    0.143275    2.248917
     14          6           0      -11.684763    1.951465    0.703754
     15          6           0       -8.663994   -0.836168    0.087733
     16          6           0       -7.262086   -0.557856    0.183409
     17          6           0       -6.314893   -1.644270    0.775264
     18          6           0       -6.645126    0.619903   -0.135363
     19          6           0       -5.219891    0.808498    0.105845
     20          6           0       11.898651    0.084733    1.355688
     21          6           0       11.687811   -0.548137   -1.274004
     22          6           0       12.553681   -1.337700    1.459074
     23          6           0       13.372014   -1.736558    0.224821
     24          6           0       12.548895   -1.836123   -1.030315
     25          6           0       11.083927    0.020521    0.044155
     26          6           0       11.106987    0.208105    2.655526
     27          6           0       12.946159    1.208053    1.470020
     28          6           0       12.429335    0.522549   -2.012522
     29          6           0       -4.675892    2.010866   -0.399490
     30          6           0        9.856650    0.582664    0.003612
     31          6           0       -3.376289    2.467779   -0.661513
     32          6           0        8.584368    0.885601   -0.087881
     33          6           0       -3.032057    3.922636   -0.858193
     34          6           0       -2.317747    1.540228   -0.303568
     35          6           0        7.519987    0.001240   -0.053776
     36          6           0        7.711576   -1.481074    0.010911
     37          6           0        6.297241    0.704197   -0.065072
     38          6           0       -0.996599    1.865991   -0.289880
     39          6           0        5.001800    0.091236    0.005195
     40          6           0        0.034351    0.886052   -0.134929
     41          6           0        3.879119    0.829093   -0.046252
     42          6           0        1.453459    1.244668   -0.009040
     43          6           0        2.507105    0.307971   -0.061728
     44          6           0        2.331192   -1.180493    0.156829
     45          1           0      -13.167394   -2.861128   -0.817961
     46          1           0      -13.686507   -1.300037   -1.639440
     47          1           0      -13.868699    0.415046    1.603428
     48          1           0      -13.747574    0.545718   -0.140096
     49          1           0      -14.712956   -1.472299    0.639780
     50          1           0      -10.592896   -3.072010   -1.496756
     51          1           0      -11.461984   -2.753208   -2.887951
     52          1           0       -9.997890   -1.748112   -2.442883
     53          1           0       -9.377466    1.036578   -0.727066
     54          1           0      -10.291186    0.844618    2.364012
     55          1           0      -11.939237    0.550694    2.982182
     56          1           0      -10.742584   -0.984541    2.372970
     57          1           0      -12.244831    2.372504   -0.249553
     58          1           0      -12.304978    2.717951    1.493786
     59          1           0      -10.676811    2.308068    0.779278
     60          1           0      -12.148418   -2.425102    1.484397
     61          1           0       -8.766272   -2.062794    0.308750
     62          1           0       -5.526612   -2.033739    0.121865
     63          1           0       -5.680854   -1.449894    1.616010
     64          1           0       -7.097019   -2.372140    1.123957
     65          1           0       -7.139656    1.622067   -0.441711
     66          1           0       -4.521365    0.230516    0.499392
     67          1           0       13.144790   -1.249439    2.402151
     68          1           0       11.783636   -2.115762    1.761992
     69          1           0       13.746390   -2.774436    0.214599
     70          1           0       13.165826   -2.246110   -1.804163
     71          1           0       11.696778   -2.589021   -0.832517
     72          1           0       11.695877    0.294841    3.549064
     73          1           0       10.589978    1.096406    2.697965
     74          1           0       10.375423   -0.483133    2.497353
     75          1           0       13.737003    1.059520    0.791732
     76          1           0       12.320382    2.202551    1.221420
     77          1           0       13.430265    1.220486    2.446301
     78          1           0       12.604585    0.301286   -3.022911
     79          1           0       11.906744    1.527736   -2.061156
     80          1           0       13.373568    1.009093   -1.304994
     81          1           0       -5.222065    2.813522   -0.623735
     82          1           0       10.109619   -0.030092   -2.226203
     83          1           0       15.208683   -1.158704    0.551780
     84          1           0        8.221376    1.954475   -0.315781
     85          1           0       -2.556338    4.390405    0.069820
     86          1           0       -2.195852    3.980410   -1.560194
     87          1           0       -3.934776    4.420131   -1.242625
     88          1           0       -2.516170    0.401560   -0.261671
     89          1           0        6.842030   -1.944899   -0.263323
     90          1           0        8.522402   -1.788224   -0.728319
     91          1           0        8.177110   -1.619640    0.900237
     92          1           0        6.198351    1.658455   -0.167918
     93          1           0       -0.621687    2.892690   -0.324098
     94          1           0        4.973579   -0.937310   -0.018245
     95          1           0       -0.424101   -0.290034   -0.059594
     96          1           0        4.133952    1.852462   -0.107077
     97          1           0        1.544179    2.305560   -0.331291
     98          1           0        1.331223   -1.576612    0.354445
     99          1           0        2.850029   -1.715286   -0.534921
    100          1           0        3.081009   -1.460314    0.932129
 ---------------------------------------------------------------------

 SCF Done:  E(RCAM-B3LYP) =  -1857.32789607     A.U. after   15 cycles

 Excitation energies and oscillator strengths:

 Excited State   1:      Singlet-A      2.0001 eV  619.88 nm  f=2.8049  <S**2>=0.000
     163 ->166         0.12447
     164 ->165         0.69955
     164 <-165        -0.10914
 This state for optimization and/or second-order correction.
 Total Energy, E(TD-HF/TD-DFT) =  -1857.25439208
 Copying the excited state density for this state as the 1-particle RhoCI density.

 The electronic state is 1-A.
 Alpha  occ. eigenvalues --  -19.22855 -19.22368 -19.21537 -19.20262 -10.32235
 Alpha  occ. eigenvalues --  -10.32167 -10.31581 -10.30876 -10.30449 -10.29317
 Alpha  occ. eigenvalues --  -10.29253 -10.28754 -10.27908 -10.27801 -10.27715
 Alpha  occ. eigenvalues --  -10.27640 -10.27625 -10.27203 -10.27090 -10.27042
 Alpha  occ. eigenvalues --  -10.26745 -10.26693 -10.26524 -10.26460 -10.26439
 Alpha  occ. eigenvalues --  -10.26431 -10.26343 -10.26215 -10.26067 -10.25973
 Alpha  occ. eigenvalues --  -10.25755 -10.25586 -10.25532 -10.25515 -10.25473
 Alpha  occ. eigenvalues --  -10.25382 -10.25380 -10.25305 -10.25193 -10.24944
 Alpha  occ. eigenvalues --  -10.24647 -10.24508 -10.24017 -10.22704  -1.13885
 Alpha  occ. eigenvalues --   -1.10404  -1.09159  -1.07376  -0.93262  -0.92149
 Alpha  occ. eigenvalues --   -0.91672  -0.90778  -0.90124  -0.89392  -0.87212
 Alpha  occ. eigenvalues --   -0.86302  -0.85871  -0.85378  -0.83803  -0.83166
 Alpha  occ. eigenvalues --   -0.81687  -0.80740  -0.80122  -0.79170  -0.78407
 Alpha  occ. eigenvalues --   -0.76828  -0.76245  -0.75903  -0.75798  -0.75729
 Alpha  occ. eigenvalues --   -0.74060  -0.73829  -0.72747  -0.70685  -0.69435
 Alpha  occ. eigenvalues --   -0.68235  -0.67089  -0.65829  -0.64599  -0.64229
 Alpha  occ. eigenvalues --   -0.63933  -0.63423  -0.61525  -0.60837  -0.59427
 Alpha  occ. eigenvalues --   -0.58241  -0.57779  -0.57268  -0.56358  -0.56163
 Alpha  occ. eigenvalues --   -0.56048  -0.55667  -0.55311  -0.54802  -0.54161
 Alpha  occ. eigenvalues --   -0.53664  -0.52926  -0.52574  -0.51926  -0.51822
 Alpha  occ. eigenvalues --   -0.51485  -0.50606  -0.50191  -0.49734  -0.49583
 Alpha  occ. eigenvalues --   -0.49415  -0.49197  -0.49102  -0.48673  -0.47748
 Alpha  occ. eigenvalues --   -0.47676  -0.47640  -0.47415  -0.47076  -0.47034
 Alpha  occ. eigenvalues --   -0.46714  -0.46475  -0.46120  -0.45828  -0.45472
 Alpha  occ. eigenvalues --   -0.45308  -0.45156  -0.44561  -0.44079  -0.44029
 Alpha  occ. eigenvalues --   -0.43553  -0.43497  -0.43222  -0.43160  -0.42806
 Alpha  occ. eigenvalues --   -0.42584  -0.41897  -0.41702  -0.41433  -0.40823
 Alpha  occ. eigenvalues --   -0.40727  -0.40400  -0.40166  -0.40125  -0.39761
 Alpha  occ. eigenvalues --   -0.39515  -0.39456  -0.39186  -0.39021  -0.38624
 Alpha  occ. eigenvalues --   -0.38156  -0.37802  -0.37376  -0.37272  -0.36956
 Alpha  occ. eigenvalues --   -0.36220  -0.35607  -0.35184  -0.34738  -0.34131
 Alpha  occ. eigenvalues --   -0.32955  -0.32312  -0.31769  -0.31278  -0.31032
 Alpha  occ. eigenvalues --   -0.29585  -0.27170  -0.23946  -0.19168
 Alpha virt. eigenvalues --   -0.06447  -0.00887   0.02270   0.05246   0.06592
 Alpha virt. eigenvalues --    0.09260   0.10181   0.10489   0.10944   0.11390
 Alpha virt. eigenvalues --    0.12352   0.12590   0.12946   0.13953   0.14221

 Mulliken charges:
               1
     1  O   -0.513120
     2  O   -0.567030
     3  O   -0.553159
     4  O   -0.537459
     5  C    0.222597
     6  C    0.221988
     7  C    0.024658
     8  C   -0.219068
     9  C   -0.189720
    10  C    0.142310
    11  C   -0.343697
    12  C   -0.114779
    13  C   -0.283391
    14  C   -0.309509
    15  C   -0.084637
    16  C    0.067890
    17  C   -0.365749
    18  C   -0.107634
    19  C   -0.046799
    20  C   -0.005610
    21  C    0.267097
    22  C   -0.179397
    23  C    0.138609
    24  C   -0.185986
    25  C   -0.049230
    26  C   -0.291968
    27  C   -0.297074
    28  C   -0.313001
    29  C   -0.086200
    30  C    0.080081
    31  C    0.043490
    32  C   -0.274258
    33  C   -0.368042
    34  C   -0.111891
    35  C    0.129094
    36  C   -0.366754
    37  C   -0.104804
    38  C   -0.077998
    39  C   -0.058206
    40  C   -0.087007
    41  C   -0.117178
    42  C   -0.151387
    43  C    0.111274
    44  C   -0.378972
    45  H    0.116539
    46  H    0.127925
    47  H    0.099121
    48  H    0.112951
    49  H    0.101717
    50  H    0.114077
    51  H    0.105195
    52  H    0.128406
    53  H    0.112488
    54  H    0.115572
    55  H    0.099497
    56  H    0.077880
    57  H    0.108799
    58  H    0.066680
    59  H    0.108215
    60  H    0.300994
    61  H    0.072898
    62  H    0.120849
    63  H    0.125424
    64  H    0.084318
    65  H    0.087560
    66  H    0.072786
    67  H    0.076265
    68  H    0.095869
    69  H    0.076955
    70  H    0.116129
    71  H    0.104601
    72  H    0.103485
    73  H    0.107190
    74  H    0.101606
    75  H    0.127192
    76  H    0.083918
    77  H    0.092109
    78  H    0.120858
    79  H    0.086761
    80  H    0.110350
    81  H    0.048599
    82  H    0.300506
    83  H    0.312855
    84  H    0.102808
    85  H    0.127240
    86  H    0.125965
    87  H    0.111301
    88  H    0.082676
    89  H    0.115345
    90  H    0.143205
    91  H    0.137405
    92  H    0.057591
    93  H    0.081437
    94  H    0.060960
    95  H    0.066260
    96  H    0.078202
    97  H    0.094594
    98  H    0.122429
    99  H    0.136497
   100  H    0.122570
 Sum of Mulliken charges =  -0.00000

 Dipole moment (field-independent basis, Debye):
    X=              6.4082    Y=             -0.3370    Z=              1.1067  Tot=              6.5118
 Quadrupole moment (field-independent basis, Debye-Ang):
   XX=           -266.2924   YY=           -255.8058   ZZ=           -281.2972
   XY=            -10.2488   XZ=             25.1401   YZ=             -1.2633

 Normal termination of Gaussian 16 at Wed Jul 31 02:29:17 2019.
