 Gaussian 16, Revision A.03,
 Gaussian 16:  ES64L-G16RevA.03 25-Dec-2016

 -------------------------------------
 # td=(NStates=1) CAM-B3LYP/6-31G(d,p)
 -------------------------------------

 --
 TD
 --
 Symbolic Z-matrix:
 Charge =  0 Multiplicity = 1

                         Standard orientation:
 ---------------------------------------------------------------------
 Center     Atomic      Atomic             Coordinates (Angstroms)
 Number     Number       Type             X           Y           Z
 ---------------------------------------------------------------------
      1          8           0      -11.776503    0.256684   -1.482427
      2          8           0      -12.895506   -2.453074    1.430040
      3          8           0       10.351010   -0.961587   -2.063434
      4          8           0       14.491458   -0.979437   -0.402285
      5          6           0      -11.032711   -0.128675   -0.351406
      6          6           0      -11.638444   -1.247397   -1.253774
      7          6           0      -11.742911    0.372666    0.909564
      8          6           0      -13.113035   -1.705060   -0.909906
      9          6           0      -13.278307    0.009428    0.965691
     10          6           0      -13.463828   -1.472233    0.564159
     11          6           0      -10.922765   -1.985884   -2.381267
     12          6           0       -9.562568    0.078412   -0.474160
     13          6           0      -11.034937    0.005646    2.136240
     14          6           0      -11.565120    1.920171    0.956766
     15          6           0       -8.668041   -0.776621    0.093721
     16          6           0       -7.267428   -0.555397    0.147170
     17          6           0       -6.479141   -1.746404    0.656502
     18          6           0       -6.683152    0.648039   -0.202832
     19          6           0       -5.299531    0.879964   -0.120645
     20          6           0       12.000641   -0.093065    1.316517
     21          6           0       11.507032   -0.616651   -1.289744
     22          6           0       12.835403   -1.270208    1.502796
     23          6           0       13.433494   -1.846804    0.106545
     24          6           0       12.343664   -1.879771   -1.081046
     25          6           0       11.127547   -0.066365    0.124889
     26          6           0       11.138349    0.220507    2.605738
     27          6           0       12.977258    1.266013    1.227106
     28          6           0       12.388263    0.503880   -2.060189
     29          6           0       -4.742078    2.161925   -0.306139
     30          6           0        9.882281    0.430798    0.154696
     31          6           0       -3.386824    2.470422   -0.352628
     32          6           0        8.651445    1.012669   -0.019166
     33          6           0       -3.032746    3.870531   -0.754823
     34          6           0       -2.335208    1.498192   -0.198646
     35          6           0        7.438767    0.122035    0.085506
     36          6           0        7.657398   -1.345521    0.492767
     37          6           0        6.235678    0.782011    0.031099
     38          6           0       -0.986651    1.834297   -0.355491
     39          6           0        4.968935    0.092095    0.000778
     40          6           0        0.028339    0.873616   -0.168840
     41          6           0        3.810652    0.796083   -0.195816
     42          6           0        1.386019    1.139525   -0.206897
     43          6           0        2.510842    0.322369    0.008645
     44          6           0        2.268363   -1.164679    0.434558
     45          1           0      -13.130475   -2.781525   -1.112289
     46          1           0      -13.654872   -1.160275   -1.613067
     47          1           0      -13.702964    0.200044    2.037780
     48          1           0      -13.848380    0.678957    0.294219
     49          1           0      -14.464432   -1.742611    0.498931
     50          1           0      -10.606253   -2.820735   -1.907775
     51          1           0      -11.310529   -2.073848   -3.427505
     52          1           0       -9.817179   -1.369591   -2.613636
     53          1           0       -9.256845    0.961211   -0.951144
     54          1           0      -10.030898    0.589137    2.197180
     55          1           0      -11.776613    0.474210    3.110775
     56          1           0      -11.012283   -1.146612    2.254537
     57          1           0      -11.955410    2.247627    0.099292
     58          1           0      -12.165828    2.240581    2.017854
     59          1           0      -10.488516    2.300967    0.952910
     60          1           0      -11.944493   -2.488603    1.210785
     61          1           0       -9.012227   -1.802224    0.360514
     62          1           0       -5.912680   -2.267137   -0.241270
     63          1           0       -5.694472   -1.580092    1.332451
     64          1           0       -7.239177   -2.471886    1.175827
     65          1           0       -7.303940    1.518576   -0.508495
     66          1           0       -4.432919   -0.065561   -0.211089
     67          1           0       13.681317   -1.054896    2.349599
     68          1           0       12.345745   -1.948849    2.151772
     69          1           0       13.838309   -2.696329    0.421734
     70          1           0       12.925780   -1.931285   -2.059840
     71          1           0       11.690962   -2.593299   -0.863238
     72          1           0       11.632114    0.052577    3.467551
     73          1           0       10.476109    1.115012    2.567948
     74          1           0       10.497389   -0.698170    2.585919
     75          1           0       13.577188    1.353236    0.295855
     76          1           0       12.319093    2.231580    1.161850
     77          1           0       13.602066    1.282789    1.984440
     78          1           0       12.281158    0.151910   -3.146819
     79          1           0       11.816501    1.542848   -2.027084
     80          1           0       13.544980    0.513297   -1.655228
     81          1           0       -5.543852    2.968980   -0.522446
     82          1           0        9.811411   -0.067206   -1.917728
     83          1           0       14.992102   -0.648702    0.243242
     84          1           0        8.544251    1.959408   -0.334205
     85          1           0       -2.341041    4.454290    0.038370
     86          1           0       -2.250342    3.820122   -1.472922
     87          1           0       -3.782707    4.611283   -0.954972
     88          1           0       -2.733062    0.594339    0.135822
     89          1           0        6.803834   -1.963511    0.505320
     90          1           0        8.489273   -1.704213   -0.183050
     91          1           0        8.467403   -1.395995    1.444118
     92          1           0        6.237303    1.824544   -0.248780
     93          1           0       -0.631363    2.801834   -0.833739
     94          1           0        4.953324   -0.885574    0.198012
     95          1           0       -0.365551   -0.071559   -0.001048
     96          1           0        3.916778    1.891554   -0.178852
     97          1           0        1.654260    2.059704   -0.529417
     98          1           0        1.259877   -1.560270    0.242313
     99          1           0        2.906095   -1.724298   -0.234295
    100          1           0        2.651389   -1.089797    1.529627
 ---------------------------------------------------------------------

 SCF Done:  E(RCAM-B3LYP) =  -1857.29783224     A.U. after   15 cycles

 Excitation energies and oscillator strengths:

 Excited State   1:      Singlet-A      1.9221 eV  645.06 nm  f=2.9114  <S**2>=0.000
     163 ->166         0.12309
     164 ->165         0.70154
     164 <-165        -0.11551
 This state for optimization and/or second-order correction.
 Total Energy, E(TD-HF/TD-DFT) =  -1857.22719805
 Copying the excited state density for this state as the 1-particle RhoCI density.

 The electronic state is 1-A.
 Alpha  occ. eigenvalues --  -19.22183 -19.21888 -19.21646 -19.20998 -10.32648
 Alpha  occ. eigenvalues --  -10.32624 -10.32616 -10.32528 -10.30107 -10.29045
 Alpha  occ. eigenvalues --  -10.28482 -10.28276 -10.28007 -10.27919 -10.27856
 Alpha  occ. eigenvalues --  -10.27679 -10.27539 -10.27529 -10.27399 -10.27216
 Alpha  occ. eigenvalues --  -10.27108 -10.27063 -10.26979 -10.26903 -10.26882
 Alpha  occ. eigenvalues --  -10.26832 -10.26701 -10.26590 -10.26423 -10.26363
 Alpha  occ. eigenvalues --  -10.26340 -10.26104 -10.26101 -10.26047 -10.25988
 Alpha  occ. eigenvalues --  -10.25937 -10.25800 -10.25796 -10.25588 -10.25472
 Alpha  occ. eigenvalues --  -10.25199 -10.25010 -10.24996 -10.24939  -1.12800
 Alpha  occ. eigenvalues --   -1.11285  -1.09606  -1.08802  -0.93436  -0.92308
 Alpha  occ. eigenvalues --   -0.91946  -0.91175  -0.90453  -0.89889  -0.87402
 Alpha  occ. eigenvalues --   -0.86395  -0.85685  -0.85445  -0.84531  -0.82808
 Alpha  occ. eigenvalues --   -0.81904  -0.80867  -0.79645  -0.78304  -0.76877
 Alpha  occ. eigenvalues --   -0.76800  -0.76469  -0.76108  -0.75880  -0.75133
 Alpha  occ. eigenvalues --   -0.74475  -0.73850  -0.73097  -0.71491  -0.69867
 Alpha  occ. eigenvalues --   -0.69020  -0.67045  -0.65938  -0.65430  -0.64067
 Alpha  occ. eigenvalues --   -0.63407  -0.62664  -0.61525  -0.60280  -0.59678
 Alpha  occ. eigenvalues --   -0.59140  -0.58403  -0.57854  -0.57768  -0.56753
 Alpha  occ. eigenvalues --   -0.56359  -0.55831  -0.54435  -0.53999  -0.53850
 Alpha  occ. eigenvalues --   -0.53636  -0.53276  -0.52607  -0.52208  -0.51955
 Alpha  occ. eigenvalues --   -0.51761  -0.51360  -0.50786  -0.50399  -0.49962
 Alpha  occ. eigenvalues --   -0.49807  -0.49325  -0.49243  -0.48588  -0.48390
 Alpha  occ. eigenvalues --   -0.47771  -0.47662  -0.47470  -0.46737  -0.46665
 Alpha  occ. eigenvalues --   -0.46530  -0.46029  -0.45699  -0.45550  -0.45265
 Alpha  occ. eigenvalues --   -0.45087  -0.44887  -0.44602  -0.44406  -0.44280
 Alpha  occ. eigenvalues --   -0.43709  -0.43321  -0.42960  -0.42926  -0.42899
 Alpha  occ. eigenvalues --   -0.42626  -0.42102  -0.41904  -0.41727  -0.41330
 Alpha  occ. eigenvalues --   -0.41273  -0.40941  -0.40663  -0.40643  -0.40069
 Alpha  occ. eigenvalues --   -0.39691  -0.39521  -0.39316  -0.38790  -0.38536
 Alpha  occ. eigenvalues --   -0.38127  -0.37881  -0.37832  -0.37516  -0.37042
 Alpha  occ. eigenvalues --   -0.35984  -0.35618  -0.34945  -0.34358  -0.34039
 Alpha  occ. eigenvalues --   -0.33502  -0.32437  -0.31985  -0.31165  -0.31053
 Alpha  occ. eigenvalues --   -0.29528  -0.27884  -0.24445  -0.18828
 Alpha virt. eigenvalues --   -0.06678  -0.01022   0.02726   0.05537   0.06167
 Alpha virt. eigenvalues --    0.09176   0.09594   0.10195   0.11046   0.11274
 Alpha virt. eigenvalues --    0.11921   0.12246   0.13529   0.13671   0.13820

 Mulliken charges:
               1
     1  O   -0.528221
     2  O   -0.544896
     3  O   -0.562679
     4  O   -0.535545
     5  C    0.242961
     6  C    0.156364
     7  C    0.010031
     8  C   -0.205372
     9  C   -0.177416
    10  C    0.161303
    11  C   -0.329770
    12  C   -0.111915
    13  C   -0.244630
    14  C   -0.292765
    15  C   -0.079762
    16  C    0.102838
    17  C   -0.372579
    18  C   -0.119543
    19  C   -0.073271
    20  C    0.027097
    21  C    0.238793
    22  C   -0.245556
    23  C    0.169575
    24  C   -0.178719
    25  C   -0.005181
    26  C   -0.313427
    27  C   -0.301771
    28  C   -0.318047
    29  C   -0.134388
    30  C    0.046422
    31  C    0.108152
    32  C   -0.242047
    33  C   -0.384365
    34  C   -0.101943
    35  C    0.110703
    36  C   -0.373720
    37  C   -0.114901
    38  C   -0.093841
    39  C   -0.064526
    40  C   -0.069057
    41  C   -0.124644
    42  C   -0.112786
    43  C    0.077675
    44  C   -0.360013
    45  H    0.099591
    46  H    0.136144
    47  H    0.093604
    48  H    0.111571
    49  H    0.105126
    50  H    0.124275
    51  H    0.133446
    52  H    0.088817
    53  H    0.103648
    54  H    0.108612
    55  H    0.053395
    56  H    0.064165
    57  H    0.124311
    58  H    0.077825
    59  H    0.094086
    60  H    0.301999
    61  H    0.074570
    62  H    0.109191
    63  H    0.132911
    64  H    0.097418
    65  H    0.089595
    66  H    0.073171
    67  H    0.070084
    68  H    0.109697
    69  H    0.101313
    70  H    0.122047
    71  H    0.117743
    72  H    0.105554
    73  H    0.124166
    74  H    0.092255
    75  H    0.102053
    76  H    0.088498
    77  H    0.103873
    78  H    0.108974
    79  H    0.075541
    80  H    0.138590
    81  H    0.084539
    82  H    0.312313
    83  H    0.293272
    84  H    0.110787
    85  H    0.094550
    86  H    0.130619
    87  H    0.116485
    88  H    0.078585
    89  H    0.117849
    90  H    0.140233
    91  H    0.103247
    92  H    0.079908
    93  H    0.087587
    94  H    0.076036
    95  H    0.074737
    96  H    0.084396
    97  H    0.063070
    98  H    0.114112
    99  H    0.121840
   100  H    0.123363
 Sum of Mulliken charges =  -0.00000

 Dipole moment (field-independent basis, Debye):
    X=              4.4557    Y=             -0.1953    Z=              1.5194  Tot=              4.7117
 Quadrupole moment (field-independent basis, Debye-Ang):
   XX=           -264.9026   YY=           -260.6595   ZZ=           -281.5299
   XY=              1.5787   XZ=             47.4883   YZ=             -3.1248

 Normal termination of Gaussian 16 at Thu Aug  1 20:40:16 2019.
