 Gaussian 16, Revision A.03,
 Gaussian 16:  ES64L-G16RevA.03 25-Dec-2016

 -------------------------------------
 # td=(NStates=1) CAM-B3LYP/6-31G(d,p)
 -------------------------------------

 --
 TD
 --
 Symbolic Z-matrix:
 Charge =  0 Multiplicity = 1

                         Standard orientation:
 ---------------------------------------------------------------------
 Center     Atomic      Atomic             Coordinates (Angstroms)
 Number     Number       Type             X           Y           Z
 ---------------------------------------------------------------------
      1          8           0      -11.802579    0.466292   -1.407097
      2          8           0      -12.904371   -2.474397    1.411773
      3          8           0       10.422256   -1.195780   -2.021625
      4          8           0       14.447922   -0.973838   -0.151245
      5          6           0      -10.977815   -0.097002   -0.186522
      6          6           0      -11.814169   -0.952459   -1.219952
      7          6           0      -11.542791    0.249906    1.091084
      8          6           0      -13.074505   -1.593686   -0.844974
      9          6           0      -13.126638   -0.095425    1.115018
     10          6           0      -13.493395   -1.449398    0.552247
     11          6           0      -11.053821   -1.678621   -2.290112
     12          6           0       -9.477231    0.099981   -0.493944
     13          6           0      -10.887986   -0.314215    2.390217
     14          6           0      -11.570405    1.739262    1.171574
     15          6           0       -8.546540   -0.827651    0.051006
     16          6           0       -7.160879   -0.706123   -0.088352
     17          6           0       -6.231545   -2.042264   -0.078945
     18          6           0       -6.534401    0.600789   -0.062140
     19          6           0       -5.183798    0.897086   -0.270542
     20          6           0       11.925033    0.042176    1.356565
     21          6           0       11.579136   -0.646998   -1.229872
     22          6           0       12.706846   -1.217325    1.567691
     23          6           0       13.402069   -1.738482    0.319853
     24          6           0       12.369306   -1.884238   -0.805815
     25          6           0       11.037207    0.049907    0.041684
     26          6           0       11.023010    0.322529    2.543395
     27          6           0       12.904856    1.264475    1.306026
     28          6           0       12.417222    0.368362   -2.182111
     29          6           0       -4.674164    2.175391   -0.364478
     30          6           0        9.884785    0.568531    0.036368
     31          6           0       -3.361057    2.555071   -0.484335
     32          6           0        8.657615    1.092328   -0.139810
     33          6           0       -3.126016    4.122528   -0.620994
     34          6           0       -2.332928    1.634354   -0.366105
     35          6           0        7.373896    0.113491   -0.015987
     36          6           0        7.603000   -1.341201    0.319547
     37          6           0        6.193274    0.815360   -0.133841
     38          6           0       -1.000318    1.859858   -0.305573
     39          6           0        4.894136    0.190428    0.006969
     40          6           0        0.006858    0.916338   -0.184089
     41          6           0        3.719238    0.859873   -0.164528
     42          6           0        1.446223    1.043794   -0.182927
     43          6           0        2.468110    0.195852   -0.075910
     44          6           0        2.223276   -1.275320    0.271763
     45          1           0      -12.934287   -2.595023   -1.199372
     46          1           0      -13.697152   -1.125675   -1.459847
     47          1           0      -13.502672    0.014692    2.102903
     48          1           0      -13.546415    0.748024    0.475176
     49          1           0      -14.632282   -1.475548    0.594020
     50          1           0      -10.707819   -2.838218   -1.987521
     51          1           0      -11.559763   -1.390145   -3.274731
     52          1           0      -10.059230   -1.291926   -2.421000
     53          1           0       -9.138505    0.984937   -0.867228
     54          1           0       -9.705655   -0.093364    2.334944
     55          1           0      -11.147263    0.324850    3.200737
     56          1           0      -11.385098   -1.368137    2.764929
     57          1           0      -12.068621    2.184258    0.270821
     58          1           0      -11.782627    2.244542    2.238571
     59          1           0      -10.450839    2.362948    1.011088
     60          1           0      -11.992149   -3.082120    0.712929
     61          1           0       -8.910531   -1.940285    0.332655
     62          1           0       -5.854157   -2.364801   -0.844354
     63          1           0       -5.511397   -1.816850    0.547788
     64          1           0       -6.837639   -2.769377    0.425457
     65          1           0       -7.582529    1.288855    0.066617
     66          1           0       -4.653464   -0.061783   -0.565500
     67          1           0       13.669067   -1.079559    2.353420
     68          1           0       12.183937   -1.926215    1.771767
     69          1           0       13.913110   -2.800111    0.594284
     70          1           0       12.762258   -2.474286   -1.717952
     71          1           0       11.590122   -2.465846   -0.171385
     72          1           0       11.608428    0.389806    3.438794
     73          1           0       10.472645    1.230357    2.685677
     74          1           0       10.106375   -0.353867    2.862207
     75          1           0       13.688947    1.108020    0.490671
     76          1           0       12.192565    2.157797    1.056426
     77          1           0       13.326472    1.366147    2.312158
     78          1           0       12.539408   -0.179494   -3.099168
     79          1           0       11.811525    1.306549   -2.429088
     80          1           0       13.546017    0.317810   -1.772940
     81          1           0       -5.406749    3.045628   -0.308842
     82          1           0        9.807392   -0.432756   -2.251123
     83          1           0       15.180743   -0.964345    0.618991
     84          1           0        8.571099    2.251345   -0.376394
     85          1           0       -2.492283    4.545467    0.082765
     86          1           0       -2.437038    4.063266   -1.455286
     87          1           0       -3.847379    4.664041   -0.914961
     88          1           0       -2.770019    0.705683   -0.454547
     89          1           0        6.535939   -1.721855    0.380798
     90          1           0        7.950898   -2.116507   -0.529225
     91          1           0        8.019300   -1.611925    1.338977
     92          1           0        6.222728    1.846188   -0.526778
     93          1           0       -0.625338    2.992560   -0.012827
     94          1           0        4.604293   -0.899251    0.216653
     95          1           0       -0.154695   -0.125228    0.137454
     96          1           0        3.854768    2.018523   -0.248883
     97          1           0        1.664569    2.084305   -0.112090
     98          1           0        1.175007   -1.466629   -0.094032
     99          1           0        2.845643   -1.752467   -0.463406
    100          1           0        2.256363   -1.744777    1.389466
 ---------------------------------------------------------------------

 SCF Done:  E(RCAM-B3LYP) =  -1857.11879506     A.U. after   15 cycles

 Excitation energies and oscillator strengths:

 Excited State   1:      Singlet-A      2.0716 eV  598.50 nm  f=2.7911  <S**2>=0.000
     163 ->166        -0.12443
     164 ->165         0.69992
     164 <-165        -0.10764
 This state for optimization and/or second-order correction.
 Total Energy, E(TD-HF/TD-DFT) =  -1857.04266583
 Copying the excited state density for this state as the 1-particle RhoCI density.

 The electronic state is 1-A.
 Alpha  occ. eigenvalues --  -19.23556 -19.23162 -19.21728 -19.20272 -10.32707
 Alpha  occ. eigenvalues --  -10.32176 -10.32077 -10.31802 -10.30922 -10.29399
 Alpha  occ. eigenvalues --  -10.28582 -10.28444 -10.28347 -10.28185 -10.27986
 Alpha  occ. eigenvalues --  -10.27935 -10.27751 -10.27582 -10.27514 -10.27512
 Alpha  occ. eigenvalues --  -10.27294 -10.27226 -10.27199 -10.27035 -10.27032
 Alpha  occ. eigenvalues --  -10.26812 -10.26569 -10.26549 -10.26546 -10.26454
 Alpha  occ. eigenvalues --  -10.26443 -10.26390 -10.25950 -10.25576 -10.25463
 Alpha  occ. eigenvalues --  -10.25348 -10.25326 -10.25294 -10.25174 -10.24982
 Alpha  occ. eigenvalues --  -10.24463 -10.24349 -10.23730 -10.23355  -1.11195
 Alpha  occ. eigenvalues --   -1.10917  -1.05737  -1.05293  -0.93047  -0.92819
 Alpha  occ. eigenvalues --   -0.92202  -0.91094  -0.90019  -0.89231  -0.88411
 Alpha  occ. eigenvalues --   -0.87068  -0.85899  -0.85401  -0.84292  -0.82816
 Alpha  occ. eigenvalues --   -0.82143  -0.80668  -0.80200  -0.79180  -0.77843
 Alpha  occ. eigenvalues --   -0.76584  -0.76381  -0.76027  -0.75653  -0.75345
 Alpha  occ. eigenvalues --   -0.74871  -0.73914  -0.73351  -0.70714  -0.69007
 Alpha  occ. eigenvalues --   -0.68122  -0.66542  -0.65470  -0.64583  -0.62890
 Alpha  occ. eigenvalues --   -0.62755  -0.61473  -0.60039  -0.59889  -0.58256
 Alpha  occ. eigenvalues --   -0.58026  -0.57522  -0.57147  -0.56712  -0.56414
 Alpha  occ. eigenvalues --   -0.55895  -0.55039  -0.54975  -0.54020  -0.53828
 Alpha  occ. eigenvalues --   -0.53563  -0.53192  -0.52634  -0.51910  -0.51592
 Alpha  occ. eigenvalues --   -0.50825  -0.50724  -0.50487  -0.50234  -0.49367
 Alpha  occ. eigenvalues --   -0.48968  -0.48597  -0.48447  -0.48307  -0.47925
 Alpha  occ. eigenvalues --   -0.47612  -0.47409  -0.47312  -0.47028  -0.46861
 Alpha  occ. eigenvalues --   -0.46308  -0.46202  -0.45936  -0.45850  -0.44904
 Alpha  occ. eigenvalues --   -0.44408  -0.43953  -0.43851  -0.43748  -0.43580
 Alpha  occ. eigenvalues --   -0.43410  -0.43273  -0.43008  -0.42915  -0.42267
 Alpha  occ. eigenvalues --   -0.41885  -0.41333  -0.41175  -0.41147  -0.41137
 Alpha  occ. eigenvalues --   -0.40762  -0.40524  -0.40259  -0.39872  -0.39427
 Alpha  occ. eigenvalues --   -0.39182  -0.38864  -0.38834  -0.38355  -0.38172
 Alpha  occ. eigenvalues --   -0.37874  -0.37765  -0.37701  -0.36930  -0.36458
 Alpha  occ. eigenvalues --   -0.36384  -0.35066  -0.34827  -0.34028  -0.32701
 Alpha  occ. eigenvalues --   -0.32354  -0.32233  -0.31894  -0.30948  -0.30462
 Alpha  occ. eigenvalues --   -0.29950  -0.27920  -0.24384  -0.19658
 Alpha virt. eigenvalues --   -0.06618  -0.00664   0.02577   0.03049   0.06659
 Alpha virt. eigenvalues --    0.07124   0.08210   0.09464   0.10319   0.10635
 Alpha virt. eigenvalues --    0.11813   0.12454   0.12549   0.12751   0.13085

 Mulliken charges:
               1
     1  O   -0.533543
     2  O   -0.545108
     3  O   -0.577834
     4  O   -0.529444
     5  C    0.176784
     6  C    0.258558
     7  C    0.041819
     8  C   -0.202316
     9  C   -0.183331
    10  C    0.178850
    11  C   -0.330635
    12  C   -0.109252
    13  C   -0.327317
    14  C   -0.304663
    15  C   -0.092828
    16  C    0.032432
    17  C   -0.354877
    18  C   -0.092004
    19  C   -0.106604
    20  C    0.019032
    21  C    0.246664
    22  C   -0.129309
    23  C    0.152514
    24  C   -0.199320
    25  C   -0.101369
    26  C   -0.320366
    27  C   -0.297518
    28  C   -0.332243
    29  C   -0.118864
    30  C    0.211142
    31  C    0.065304
    32  C   -0.308435
    33  C   -0.361528
    34  C   -0.061182
    35  C    0.091299
    36  C   -0.374028
    37  C   -0.103230
    38  C   -0.104860
    39  C   -0.096683
    40  C   -0.098555
    41  C   -0.103507
    42  C   -0.116487
    43  C    0.097623
    44  C   -0.370662
    45  H    0.105622
    46  H    0.130735
    47  H    0.107619
    48  H    0.105337
    49  H    0.088304
    50  H    0.068187
    51  H    0.115584
    52  H    0.131359
    53  H    0.117550
    54  H    0.096303
    55  H    0.108147
    56  H    0.123753
    57  H    0.136497
    58  H    0.094563
    59  H    0.040218
    60  H    0.276975
    61  H    0.076069
    62  H    0.128832
    63  H    0.131906
    64  H    0.104546
    65  H    0.069046
    66  H    0.104090
    67  H    0.048539
    68  H    0.098392
    69  H    0.053192
    70  H    0.112770
    71  H    0.105191
    72  H    0.094435
    73  H    0.116352
    74  H    0.083744
    75  H    0.123573
    76  H    0.092456
    77  H    0.096173
    78  H    0.120410
    79  H    0.098887
    80  H    0.132443
    81  H    0.094959
    82  H    0.307274
    83  H    0.309396
    84  H    0.105679
    85  H    0.129206
    86  H    0.124941
    87  H    0.114208
    88  H    0.074914
    89  H    0.105298
    90  H    0.134913
    91  H    0.127360
    92  H    0.096597
    93  H    0.076613
    94  H    0.084077
    95  H    0.072310
    96  H    0.083467
    97  H    0.069093
    98  H    0.115041
    99  H    0.128821
   100  H    0.123914
 Sum of Mulliken charges =  -0.00000

 Dipole moment (field-independent basis, Debye):
    X=              2.8215    Y=             -0.9689    Z=              1.3159  Tot=              3.2605
 Quadrupole moment (field-independent basis, Debye-Ang):
   XX=           -266.6667   YY=           -258.4820   ZZ=           -278.4421
   XY=              6.5117   XZ=             35.7858   YZ=             -0.6650

 Normal termination of Gaussian 16 at Thu Aug  1 09:54:38 2019.
