 Gaussian 16, Revision A.03,
 Gaussian 16:  ES64L-G16RevA.03 25-Dec-2016

 -------------------------------------
 # td=(NStates=1) CAM-B3LYP/6-31G(d,p)
 -------------------------------------

 --
 TD
 --
 Symbolic Z-matrix:
 Charge =  0 Multiplicity = 1

                         Standard orientation:
 ---------------------------------------------------------------------
 Center     Atomic      Atomic             Coordinates (Angstroms)
 Number     Number       Type             X           Y           Z
 ---------------------------------------------------------------------
      1          8           0      -11.660946    0.301887   -1.602593
      2          8           0      -13.157629   -2.358371    1.379083
      3          8           0       10.599705   -0.944395   -2.075264
      4          8           0       14.521789   -1.019315   -0.074305
      5          6           0      -11.047857   -0.270891   -0.362863
      6          6           0      -11.679327   -1.158981   -1.297302
      7          6           0      -11.807323    0.319963    0.928451
      8          6           0      -13.042153   -1.705418   -1.031017
      9          6           0      -13.369865   -0.017202    0.921332
     10          6           0      -13.576067   -1.386278    0.364076
     11          6           0      -10.664761   -1.992085   -2.251673
     12          6           0       -9.616846    0.059829   -0.338581
     13          6           0      -11.112242   -0.359517    2.264029
     14          6           0      -11.616230    1.699724    1.000698
     15          6           0       -8.588002   -0.761128    0.107370
     16          6           0       -7.268266   -0.589896    0.200168
     17          6           0       -6.281914   -1.693609    0.596923
     18          6           0       -6.594627    0.661058   -0.076612
     19          6           0       -5.130014    0.864580   -0.051764
     20          6           0       11.852198   -0.139074    1.343759
     21          6           0       11.653877   -0.540431   -1.181475
     22          6           0       12.613326   -1.401127    1.460042
     23          6           0       13.339769   -1.878215    0.183322
     24          6           0       12.545186   -1.838387   -1.001624
     25          6           0       11.001008   -0.105094    0.061312
     26          6           0       11.035130    0.011951    2.610906
     27          6           0       12.880940    1.084717    1.271761
     28          6           0       12.462016    0.565174   -1.896615
     29          6           0       -4.647295    2.186639   -0.371691
     30          6           0        9.783208    0.459576    0.032752
     31          6           0       -3.332183    2.577448   -0.359574
     32          6           0        8.612457    0.980923   -0.144478
     33          6           0       -3.036901    3.976332   -0.632034
     34          6           0       -2.238355    1.710802   -0.111726
     35          6           0        7.419798    0.145494   -0.056347
     36          6           0        7.566051   -1.300294    0.156066
     37          6           0        6.197619    0.826999   -0.136103
     38          6           0       -0.948431    1.915843   -0.295459
     39          6           0        4.969054    0.333794   -0.034394
     40          6           0        0.005528    0.917296   -0.240513
     41          6           0        3.791692    0.943862   -0.005514
     42          6           0        1.324485    1.305711   -0.135029
     43          6           0        2.506854    0.427257   -0.032855
     44          6           0        2.317790   -1.144974    0.013357
     45          1           0      -12.995541   -2.821406   -1.063905
     46          1           0      -13.761868   -1.472188   -2.004785
     47          1           0      -13.848066    0.047884    1.936813
     48          1           0      -13.830214    0.567455    0.220479
     49          1           0      -14.491892   -1.636721    0.303474
     50          1           0      -10.155510   -2.867887   -1.691646
     51          1           0      -11.369494   -2.435499   -3.099234
     52          1           0       -9.758351   -1.383555   -2.653268
     53          1           0       -9.314232    1.209846   -0.550525
     54          1           0      -10.172805    0.069726    2.387272
     55          1           0      -11.938513    0.144477    3.128969
     56          1           0      -10.982499   -1.353662    2.392907
     57          1           0      -11.906717    2.124816    0.035607
     58          1           0      -12.195558    2.171506    1.788245
     59          1           0      -10.675373    2.109316    1.335018
     60          1           0      -12.306615   -2.732883    1.091358
     61          1           0       -9.053124   -1.740774    0.456012
     62          1           0       -5.487142   -2.169859   -0.180742
     63          1           0       -5.664731   -1.328270    1.445062
     64          1           0       -6.824748   -2.553797    0.910053
     65          1           0       -7.103531    1.474122   -0.107028
     66          1           0       -4.502310    0.029926    0.214195
     67          1           0       13.504938   -1.285689    2.293561
     68          1           0       12.017437   -2.195237    1.788466
     69          1           0       13.678216   -2.971626    0.289931
     70          1           0       13.264106   -2.143488   -1.931308
     71          1           0       11.746395   -2.588341   -1.072136
     72          1           0       11.601424   -0.116774    3.560238
     73          1           0       10.676737    1.023592    2.352408
     74          1           0       10.145982   -0.665787    2.550159
     75          1           0       13.635468    0.938730    0.460058
     76          1           0       12.480037    2.147705    1.393226
     77          1           0       13.440119    0.980498    2.399079
     78          1           0       12.626588    0.029574   -2.796773
     79          1           0       11.916712    1.483160   -1.914934
     80          1           0       13.284858    0.930490   -1.397145
     81          1           0       -5.384887    2.801496   -0.737188
     82          1           0       10.224626   -0.101136   -2.262246
     83          1           0       15.268428   -0.989951    0.647711
     84          1           0        8.734952    2.023043   -0.452910
     85          1           0       -2.416847    4.361340    0.233620
     86          1           0       -2.688793    4.196289   -1.599239
     87          1           0       -3.917772    4.687722   -0.436343
     88          1           0       -2.580459    0.684192    0.215773
     89          1           0        6.442831   -1.662071    0.300704
     90          1           0        8.395368   -1.799992   -0.510116
     91          1           0        7.865961   -1.331551    1.209889
     92          1           0        6.224690    1.891946   -0.217105
     93          1           0       -0.700016    2.960659   -0.313358
     94          1           0        5.159291   -0.895911    0.076964
     95          1           0       -0.490712    0.008357   -0.376978
     96          1           0        3.691927    2.076300    0.072998
     97          1           0        1.509426    2.609809   -0.197952
     98          1           0        1.206068   -1.183404    0.505773
     99          1           0        2.501484   -1.754533   -0.962834
    100          1           0        3.174945   -1.594655    0.691832
 ---------------------------------------------------------------------

 SCF Done:  E(RCAM-B3LYP) =  -1857.24658207     A.U. after   17 cycles

 Excitation energies and oscillator strengths:

 Excited State   1:      Singlet-A      1.6584 eV  747.61 nm  f=3.0485  <S**2>=0.000
     163 ->166         0.11355
     164 ->165         0.71103
     164 <-165        -0.15386
 This state for optimization and/or second-order correction.
 Total Energy, E(TD-HF/TD-DFT) =  -1857.18563656
 Copying the excited state density for this state as the 1-particle RhoCI density.

 The electronic state is 1-A.
 Alpha  occ. eigenvalues --  -19.21763 -19.21315 -19.21082 -19.20600 -10.32896
 Alpha  occ. eigenvalues --  -10.31911 -10.31623 -10.31541 -10.29206 -10.28928
 Alpha  occ. eigenvalues --  -10.28500 -10.28490 -10.28326 -10.28227 -10.28073
 Alpha  occ. eigenvalues --  -10.27940 -10.27616 -10.27478 -10.27380 -10.27351
 Alpha  occ. eigenvalues --  -10.27239 -10.27217 -10.27118 -10.26938 -10.26900
 Alpha  occ. eigenvalues --  -10.26727 -10.26666 -10.26511 -10.26449 -10.26351
 Alpha  occ. eigenvalues --  -10.26337 -10.26216 -10.26180 -10.26060 -10.25810
 Alpha  occ. eigenvalues --  -10.25736 -10.25562 -10.25309 -10.25220 -10.24990
 Alpha  occ. eigenvalues --  -10.24710 -10.24504 -10.23359 -10.22726  -1.11858
 Alpha  occ. eigenvalues --   -1.10896  -1.08068  -1.06840  -0.93791  -0.93089
 Alpha  occ. eigenvalues --   -0.92637  -0.91415  -0.90448  -0.90107  -0.88652
 Alpha  occ. eigenvalues --   -0.86842  -0.86584  -0.85995  -0.84608  -0.83607
 Alpha  occ. eigenvalues --   -0.82055  -0.81262  -0.80252  -0.78912  -0.77909
 Alpha  occ. eigenvalues --   -0.76346  -0.76252  -0.75992  -0.75546  -0.75394
 Alpha  occ. eigenvalues --   -0.74821  -0.74601  -0.72333  -0.71161  -0.70345
 Alpha  occ. eigenvalues --   -0.68709  -0.67405  -0.65712  -0.64719  -0.64305
 Alpha  occ. eigenvalues --   -0.64151  -0.62592  -0.61503  -0.60167  -0.59317
 Alpha  occ. eigenvalues --   -0.58723  -0.57959  -0.57787  -0.56830  -0.56305
 Alpha  occ. eigenvalues --   -0.55967  -0.55061  -0.55029  -0.54415  -0.54269
 Alpha  occ. eigenvalues --   -0.53848  -0.53596  -0.53207  -0.52245  -0.52053
 Alpha  occ. eigenvalues --   -0.51335  -0.51016  -0.50460  -0.50078  -0.49907
 Alpha  occ. eigenvalues --   -0.49635  -0.49095  -0.48998  -0.48591  -0.48175
 Alpha  occ. eigenvalues --   -0.47654  -0.47313  -0.47143  -0.46828  -0.46514
 Alpha  occ. eigenvalues --   -0.46361  -0.45965  -0.45737  -0.45577  -0.45347
 Alpha  occ. eigenvalues --   -0.45134  -0.44739  -0.44470  -0.44296  -0.43860
 Alpha  occ. eigenvalues --   -0.43651  -0.43278  -0.42984  -0.42873  -0.42072
 Alpha  occ. eigenvalues --   -0.41786  -0.41747  -0.41655  -0.41399  -0.40865
 Alpha  occ. eigenvalues --   -0.40407  -0.40093  -0.40029  -0.39817  -0.39532
 Alpha  occ. eigenvalues --   -0.39440  -0.39291  -0.39087  -0.38676  -0.38564
 Alpha  occ. eigenvalues --   -0.38350  -0.38146  -0.37865  -0.36794  -0.36602
 Alpha  occ. eigenvalues --   -0.36333  -0.36121  -0.35327  -0.34976  -0.34605
 Alpha  occ. eigenvalues --   -0.33315  -0.32265  -0.32210  -0.31620  -0.31235
 Alpha  occ. eigenvalues --   -0.29011  -0.27819  -0.23939  -0.18039
 Alpha virt. eigenvalues --   -0.07873  -0.01405   0.02789   0.06162   0.07032
 Alpha virt. eigenvalues --    0.09337   0.09741   0.09923   0.10522   0.11090
 Alpha virt. eigenvalues --    0.11395   0.12098   0.12539   0.13246   0.13828

 Mulliken charges:
               1
     1  O   -0.515217
     2  O   -0.566175
     3  O   -0.552992
     4  O   -0.579821
     5  C    0.164532
     6  C    0.260982
     7  C    0.041928
     8  C   -0.258122
     9  C   -0.163220
    10  C    0.177041
    11  C   -0.326979
    12  C   -0.098677
    13  C   -0.285820
    14  C   -0.320548
    15  C   -0.096926
    16  C    0.096724
    17  C   -0.371348
    18  C   -0.100260
    19  C   -0.073000
    20  C    0.008193
    21  C    0.199365
    22  C   -0.157539
    23  C    0.158208
    24  C   -0.186331
    25  C   -0.034786
    26  C   -0.296419
    27  C   -0.300798
    28  C   -0.295215
    29  C   -0.126095
    30  C    0.112837
    31  C    0.107839
    32  C   -0.262826
    33  C   -0.396720
    34  C   -0.116133
    35  C    0.073268
    36  C   -0.372292
    37  C   -0.059720
    38  C   -0.065763
    39  C   -0.065735
    40  C   -0.056947
    41  C   -0.120074
    42  C   -0.138142
    43  C    0.087309
    44  C   -0.348152
    45  H    0.112264
    46  H    0.113196
    47  H    0.109599
    48  H    0.108645
    49  H    0.098525
    50  H    0.096343
    51  H    0.093975
    52  H    0.136989
    53  H    0.096716
    54  H    0.110166
    55  H    0.055424
    56  H    0.099354
    57  H    0.126143
    58  H    0.099178
    59  H    0.100568
    60  H    0.296498
    61  H    0.064578
    62  H    0.101777
    63  H    0.124906
    64  H    0.104754
    65  H    0.066886
    66  H    0.092893
    67  H    0.060874
    68  H    0.104305
    69  H    0.077964
    70  H    0.103670
    71  H    0.126502
    72  H    0.103133
    73  H    0.107471
    74  H    0.099624
    75  H    0.140771
    76  H    0.097368
    77  H    0.047917
    78  H    0.126373
    79  H    0.084208
    80  H    0.128458
    81  H    0.091255
    82  H    0.303069
    83  H    0.312684
    84  H    0.120239
    85  H    0.120245
    86  H    0.137480
    87  H    0.100236
    88  H    0.063485
    89  H    0.093910
    90  H    0.151720
    91  H    0.137817
    92  H    0.072426
    93  H    0.079898
    94  H    0.046249
    95  H    0.100065
    96  H    0.076562
    97  H    0.069919
    98  H    0.099464
    99  H    0.121754
   100  H    0.104075
 Sum of Mulliken charges =  -0.00000

 Dipole moment (field-independent basis, Debye):
    X=              4.2093    Y=             -0.2874    Z=              1.3188  Tot=              4.4204
 Quadrupole moment (field-independent basis, Debye-Ang):
   XX=           -263.3067   YY=           -255.7157   ZZ=           -281.7224
   XY=              4.2190   XZ=             28.1833   YZ=             -0.5836

 Normal termination of Gaussian 16 at Thu Aug  1 16:22:34 2019.
