 Gaussian 16, Revision A.03,
 Gaussian 16:  ES64L-G16RevA.03 25-Dec-2016

 -------------------------------------
 # td=(NStates=1) CAM-B3LYP/6-31G(d,p)
 -------------------------------------

 --
 TD
 --
 Symbolic Z-matrix:
 Charge =  0 Multiplicity = 1

                         Standard orientation:
 ---------------------------------------------------------------------
 Center     Atomic      Atomic             Coordinates (Angstroms)
 Number     Number       Type             X           Y           Z
 ---------------------------------------------------------------------
      1          8           0      -11.772618    0.597212   -1.331228
      2          8           0      -12.680030   -2.876127    0.901355
      3          8           0       10.593717   -1.033230   -2.051892
      4          8           0       14.564008   -0.959639   -0.282268
      5          6           0      -11.087721   -0.054323   -0.207677
      6          6           0      -11.605961   -0.885470   -1.321507
      7          6           0      -11.812100    0.117651    1.122322
      8          6           0      -12.933424   -1.535261   -1.194536
      9          6           0      -13.385968   -0.492413    1.149990
     10          6           0      -13.393324   -1.768277    0.252042
     11          6           0      -10.888509   -1.378936   -2.585964
     12          6           0       -9.562570    0.282397   -0.283993
     13          6           0      -11.176867   -0.471391    2.278072
     14          6           0      -11.991143    1.562915    1.413320
     15          6           0       -8.667535   -0.695670   -0.028356
     16          6           0       -7.258260   -0.541614   -0.004417
     17          6           0       -6.421171   -1.769264    0.437487
     18          6           0       -6.585501    0.748995   -0.073470
     19          6           0       -5.233365    1.089362   -0.066611
     20          6           0       12.047117    0.107327    1.249278
     21          6           0       11.678600   -0.558571   -1.264903
     22          6           0       12.798756   -1.244365    1.451428
     23          6           0       13.427866   -1.823254    0.194262
     24          6           0       12.473220   -1.934747   -0.907279
     25          6           0       11.112917    0.038992    0.075478
     26          6           0       11.089168    0.198595    2.505281
     27          6           0       12.992830    1.278968    1.350887
     28          6           0       12.502078    0.361952   -2.082471
     29          6           0       -4.752666    2.301570   -0.275463
     30          6           0        9.932194    0.487847    0.023067
     31          6           0       -3.372086    2.660641   -0.360801
     32          6           0        8.647532    0.863042   -0.057530
     33          6           0       -3.029455    4.063745   -0.655052
     34          6           0       -2.330449    1.735853   -0.118431
     35          6           0        7.436325    0.083822    0.077809
     36          6           0        7.610106   -1.409340    0.264030
     37          6           0        6.232750    0.632590   -0.218418
     38          6           0       -0.926595    1.973082   -0.195614
     39          6           0        4.949226    0.151241    0.012265
     40          6           0       -0.092622    0.935420   -0.103641
     41          6           0        3.759595    0.812070   -0.126907
     42          6           0        1.337042    1.207150   -0.063402
     43          6           0        2.417775    0.298421    0.066091
     44          6           0        2.166268   -1.137209    0.386802
     45          1           0      -12.988656   -2.563429   -1.563906
     46          1           0      -13.808565   -0.914419   -1.753407
     47          1           0      -13.724895   -0.705016    2.191149
     48          1           0      -14.133001    0.193100    0.759583
     49          1           0      -14.309364   -2.077616    0.364963
     50          1           0      -10.575260   -2.611708   -2.466387
     51          1           0      -11.665114   -1.283072   -3.361278
     52          1           0      -10.077470   -0.696924   -2.719372
     53          1           0       -9.283626    1.277035   -0.476912
     54          1           0      -10.181657   -0.147227    2.259743
     55          1           0      -11.602858   -0.099487    3.206871
     56          1           0      -11.116942   -1.553760    2.352755
     57          1           0      -12.336257    2.051940    0.398120
     58          1           0      -12.757895    1.840434    2.190801
     59          1           0      -10.867397    1.964751    1.665993
     60          1           0      -11.674238   -2.964086    0.552674
     61          1           0       -9.086854   -1.728077    0.111100
     62          1           0       -5.661397   -2.022746   -0.400415
     63          1           0       -5.832596   -1.585232    1.467878
     64          1           0       -6.932636   -2.799331    0.430080
     65          1           0       -7.327395    1.657417   -0.153865
     66          1           0       -4.713707    0.187007    0.316634
     67          1           0       13.647255   -1.098040    2.306153
     68          1           0       12.203774   -2.044111    2.027863
     69          1           0       13.711262   -2.823907    0.470875
     70          1           0       12.814593   -2.329835   -1.839921
     71          1           0       11.641252   -2.730538   -0.658475
     72          1           0       11.548616    0.041706    3.385343
     73          1           0       10.732489    1.252478    2.626681
     74          1           0       10.303101   -0.638272    2.315793
     75          1           0       13.666985    1.075013    0.433404
     76          1           0       12.509868    2.092470    1.209625
     77          1           0       13.626817    1.283079    2.206767
     78          1           0       12.875222   -0.273366   -2.821252
     79          1           0       11.952145    1.082603   -2.408828
     80          1           0       13.509603    0.553828   -1.674445
     81          1           0       -5.496528    3.117231   -0.386969
     82          1           0        9.961199   -0.439650   -2.051514
     83          1           0       15.026736   -0.844095    0.496800
     84          1           0        8.457444    1.953219   -0.780834
     85          1           0       -2.281816    4.482020    0.119965
     86          1           0       -2.540364    4.132505   -1.703190
     87          1           0       -3.820828    4.709511   -0.630222
     88          1           0       -2.701952    0.688234    0.237709
     89          1           0        6.597899   -1.912282    0.175169
     90          1           0        8.492012   -1.899972   -0.275328
     91          1           0        8.123417   -1.698234    1.276329
     92          1           0        6.258110    1.708900   -0.366323
     93          1           0       -0.488217    2.930604   -0.600005
     94          1           0        4.881181   -0.913724    0.522909
     95          1           0       -0.561624   -0.086820    0.111312
     96          1           0        3.826404    1.869710   -0.417557
     97          1           0        1.612262    2.367770   -0.459744
     98          1           0        1.149381   -1.455723    0.553686
     99          1           0        2.370067   -1.692211   -0.630927
    100          1           0        2.784972   -1.466652    1.287808
 ---------------------------------------------------------------------

 SCF Done:  E(RCAM-B3LYP) =  -1857.34264746     A.U. after   15 cycles

 Excitation energies and oscillator strengths:

 Excited State   1:      Singlet-A      2.2475 eV  551.65 nm  f=2.9417  <S**2>=0.000
     163 ->166         0.15286
     164 ->165         0.68838
 This state for optimization and/or second-order correction.
 Total Energy, E(TD-HF/TD-DFT) =  -1857.26005327
 Copying the excited state density for this state as the 1-particle RhoCI density.

 The electronic state is 1-A.
 Alpha  occ. eigenvalues --  -19.22073 -19.21724 -19.21485 -19.19735 -10.32838
 Alpha  occ. eigenvalues --  -10.32322 -10.32044 -10.31397 -10.29261 -10.29207
 Alpha  occ. eigenvalues --  -10.28716 -10.28437 -10.28354 -10.28287 -10.28207
 Alpha  occ. eigenvalues --  -10.28191 -10.28107 -10.27673 -10.27446 -10.27406
 Alpha  occ. eigenvalues --  -10.27321 -10.27265 -10.27087 -10.27086 -10.27047
 Alpha  occ. eigenvalues --  -10.26973 -10.26864 -10.26837 -10.26828 -10.26774
 Alpha  occ. eigenvalues --  -10.26771 -10.26767 -10.26750 -10.26562 -10.26241
 Alpha  occ. eigenvalues --  -10.25804 -10.25800 -10.25712 -10.25607 -10.25226
 Alpha  occ. eigenvalues --  -10.24399 -10.23554 -10.22363 -10.21806  -1.12770
 Alpha  occ. eigenvalues --   -1.11630  -1.10028  -1.06150  -0.93698  -0.92458
 Alpha  occ. eigenvalues --   -0.91834  -0.91154  -0.90506  -0.89733  -0.88052
 Alpha  occ. eigenvalues --   -0.86990  -0.86662  -0.86213  -0.85218  -0.83674
 Alpha  occ. eigenvalues --   -0.82101  -0.81705  -0.80803  -0.77722  -0.77288
 Alpha  occ. eigenvalues --   -0.76866  -0.76184  -0.75808  -0.75805  -0.75766
 Alpha  occ. eigenvalues --   -0.75184  -0.73956  -0.72931  -0.70457  -0.69996
 Alpha  occ. eigenvalues --   -0.68347  -0.66969  -0.66004  -0.65302  -0.64051
 Alpha  occ. eigenvalues --   -0.63488  -0.62024  -0.60841  -0.59843  -0.59159
 Alpha  occ. eigenvalues --   -0.59058  -0.58582  -0.58241  -0.57711  -0.55484
 Alpha  occ. eigenvalues --   -0.55324  -0.55005  -0.54867  -0.54690  -0.53849
 Alpha  occ. eigenvalues --   -0.52995  -0.52934  -0.52420  -0.52036  -0.51873
 Alpha  occ. eigenvalues --   -0.51377  -0.50645  -0.50301  -0.49966  -0.49808
 Alpha  occ. eigenvalues --   -0.49488  -0.48941  -0.48742  -0.48527  -0.48183
 Alpha  occ. eigenvalues --   -0.47951  -0.47826  -0.47720  -0.47590  -0.46807
 Alpha  occ. eigenvalues --   -0.46434  -0.46259  -0.46178  -0.45883  -0.45337
 Alpha  occ. eigenvalues --   -0.44975  -0.44875  -0.44780  -0.44679  -0.44266
 Alpha  occ. eigenvalues --   -0.43890  -0.43665  -0.42723  -0.42595  -0.42117
 Alpha  occ. eigenvalues --   -0.41605  -0.41477  -0.41365  -0.41268  -0.41006
 Alpha  occ. eigenvalues --   -0.40756  -0.40689  -0.40330  -0.40193  -0.40042
 Alpha  occ. eigenvalues --   -0.40002  -0.39668  -0.39439  -0.39071  -0.38964
 Alpha  occ. eigenvalues --   -0.38301  -0.37977  -0.37888  -0.37740  -0.37357
 Alpha  occ. eigenvalues --   -0.36600  -0.36425  -0.35154  -0.34803  -0.34429
 Alpha  occ. eigenvalues --   -0.33025  -0.32701  -0.32118  -0.31415  -0.30569
 Alpha  occ. eigenvalues --   -0.30206  -0.28024  -0.24143  -0.20227
 Alpha virt. eigenvalues --   -0.05934  -0.01712   0.02633   0.05410   0.06907
 Alpha virt. eigenvalues --    0.07697   0.09968   0.10280   0.10897   0.11208
 Alpha virt. eigenvalues --    0.11798   0.13041   0.13210   0.13475   0.13543

 Mulliken charges:
               1
     1  O   -0.518463
     2  O   -0.573679
     3  O   -0.540246
     4  O   -0.542640
     5  C    0.201754
     6  C    0.208804
     7  C    0.037782
     8  C   -0.212192
     9  C   -0.201492
    10  C    0.178220
    11  C   -0.296674
    12  C   -0.107325
    13  C   -0.302258
    14  C   -0.301218
    15  C   -0.064635
    16  C    0.073378
    17  C   -0.379260
    18  C   -0.131338
    19  C   -0.026628
    20  C    0.014422
    21  C    0.213632
    22  C   -0.209409
    23  C    0.149937
    24  C   -0.192108
    25  C   -0.096980
    26  C   -0.301055
    27  C   -0.291026
    28  C   -0.278415
    29  C   -0.132548
    30  C    0.203156
    31  C    0.098620
    32  C   -0.315321
    33  C   -0.376863
    34  C   -0.133350
    35  C    0.171003
    36  C   -0.386526
    37  C   -0.119783
    38  C   -0.060868
    39  C   -0.088255
    40  C   -0.071174
    41  C   -0.112623
    42  C   -0.144934
    43  C    0.109747
    44  C   -0.367867
    45  H    0.110853
    46  H    0.110820
    47  H    0.102351
    48  H    0.093763
    49  H    0.096704
    50  H    0.070557
    51  H    0.128594
    52  H    0.131735
    53  H    0.109018
    54  H    0.101437
    55  H    0.101678
    56  H    0.101902
    57  H    0.114972
    58  H    0.104916
    59  H    0.064323
    60  H    0.297723
    61  H    0.075660
    62  H    0.114073
    63  H    0.117410
    64  H    0.105462
    65  H    0.066599
    66  H    0.088504
    67  H    0.066982
    68  H    0.100976
    69  H    0.096253
    70  H    0.120507
    71  H    0.098579
    72  H    0.099862
    73  H    0.099036
    74  H    0.092649
    75  H    0.107170
    76  H    0.112527
    77  H    0.101858
    78  H    0.118642
    79  H    0.096788
    80  H    0.133592
    81  H    0.090746
    82  H    0.283028
    83  H    0.300651
    84  H    0.074781
    85  H    0.114984
    86  H    0.116344
    87  H    0.116689
    88  H    0.076311
    89  H    0.111106
    90  H    0.135042
    91  H    0.101494
    92  H    0.081526
    93  H    0.095570
    94  H    0.073678
    95  H    0.091068
    96  H    0.081152
    97  H    0.064745
    98  H    0.117173
    99  H    0.117607
   100  H    0.118525
 Sum of Mulliken charges =  -0.00000

 Dipole moment (field-independent basis, Debye):
    X=              2.7006    Y=             -0.5790    Z=              1.7238  Tot=              3.2558
 Quadrupole moment (field-independent basis, Debye-Ang):
   XX=           -273.2117   YY=           -262.1010   ZZ=           -276.9158
   XY=             -0.5046   XZ=             36.1384   YZ=             -2.4965

 Normal termination of Gaussian 16 at Sun Jul 28 23:24:17 2019.
