 Gaussian 16, Revision A.03,
 Gaussian 16:  ES64L-G16RevA.03 25-Dec-2016

 -------------------------------------
 # td=(NStates=1) CAM-B3LYP/6-31G(d,p)
 -------------------------------------

 --
 TD
 --
 Symbolic Z-matrix:
 Charge =  0 Multiplicity = 1

                         Standard orientation:
 ---------------------------------------------------------------------
 Center     Atomic      Atomic             Coordinates (Angstroms)
 Number     Number       Type             X           Y           Z
 ---------------------------------------------------------------------
      1          8           0      -11.773370    0.477220   -1.399336
      2          8           0      -12.990865   -2.680238    1.224531
      3          8           0       10.553513   -0.970006   -2.073499
      4          8           0       14.482436   -0.960598   -0.150384
      5          6           0      -11.040165   -0.026161   -0.221679
      6          6           0      -11.618933   -1.057168   -1.268359
      7          6           0      -11.791965    0.228296    1.050024
      8          6           0      -12.965224   -1.667166   -1.021706
      9          6           0      -13.215832   -0.217965    0.981360
     10          6           0      -13.461706   -1.635238    0.460967
     11          6           0      -10.705298   -1.676081   -2.283829
     12          6           0       -9.593724    0.201989   -0.328819
     13          6           0      -10.994687   -0.410499    2.236060
     14          6           0      -11.786659    1.838792    1.219809
     15          6           0       -8.706170   -0.692012   -0.049078
     16          6           0       -7.252222   -0.473375    0.044218
     17          6           0       -6.399105   -1.714351    0.209390
     18          6           0       -6.597578    0.737239   -0.178804
     19          6           0       -5.210146    0.974527   -0.172487
     20          6           0       11.935333   -0.070952    1.397728
     21          6           0       11.619329   -0.477008   -1.244433
     22          6           0       12.615919   -1.447278    1.408763
     23          6           0       13.366950   -1.805625    0.154213
     24          6           0       12.441113   -1.805771   -1.094287
     25          6           0       11.027263   -0.066883    0.071195
     26          6           0       11.008890    0.084689    2.685691
     27          6           0       12.840027    1.026527    1.439398
     28          6           0       12.480123    0.677461   -2.006131
     29          6           0       -4.730735    2.237208   -0.326378
     30          6           0        9.842244    0.485530    0.083752
     31          6           0       -3.303268    2.497959   -0.329153
     32          6           0        8.636162    1.016312   -0.092747
     33          6           0       -2.819591    4.023461   -0.527658
     34          6           0       -2.345249    1.522093   -0.198748
     35          6           0        7.444744    0.162027    0.015693
     36          6           0        7.568337   -1.280678    0.224644
     37          6           0        6.241669    0.830349   -0.154028
     38          6           0       -0.974118    1.799274   -0.172000
     39          6           0        5.045753    0.174901   -0.025969
     40          6           0       -0.014312    0.842495    0.017708
     41          6           0        3.788291    0.777162   -0.210238
     42          6           0        1.370692    1.065318   -0.202936
     43          6           0        2.422119    0.195370   -0.169215
     44          6           0        2.260367   -1.155673    0.261917
     45          1           0      -12.882155   -2.744732   -1.297834
     46          1           0      -13.689220   -1.156767   -1.701814
     47          1           0      -13.646895    0.057451    1.963666
     48          1           0      -13.548278    0.465900    0.235065
     49          1           0      -14.600858   -1.869712    0.391106
     50          1           0      -10.397775   -2.763556   -2.052579
     51          1           0      -11.585136   -1.832327   -3.101492
     52          1           0       -9.977183   -0.950054   -2.449432
     53          1           0       -9.093110    1.173917   -0.655711
     54          1           0      -10.063790    0.160337    2.377620
     55          1           0      -11.441907   -0.081481    3.297901
     56          1           0      -10.845051   -1.416931    2.033077
     57          1           0      -12.217608    2.152370    0.200274
     58          1           0      -12.595101    2.384473    2.011616
     59          1           0      -10.793304    2.174449    1.188994
     60          1           0      -12.071876   -2.540009    1.196862
     61          1           0       -8.929434   -1.746639    0.331675
     62          1           0       -5.985045   -2.025718   -0.690293
     63          1           0       -5.566392   -1.654394    0.810039
     64          1           0       -7.024176   -2.573632    0.688179
     65          1           0       -7.308114    1.573061   -0.565309
     66          1           0       -4.657320    0.064864   -0.133911
     67          1           0       13.393310   -1.404188    2.267925
     68          1           0       11.983475   -2.291485    1.559971
     69          1           0       13.711947   -2.781179    0.278023
     70          1           0       13.202989   -1.882143   -2.083367
     71          1           0       11.835794   -2.603916   -1.360791
     72          1           0       11.451391    0.014736    3.677037
     73          1           0       10.504241    1.021562    2.623966
     74          1           0       10.059397   -0.713533    2.602065
     75          1           0       13.662999    0.773915    0.648470
     76          1           0       12.522849    2.127887    1.499761
     77          1           0       13.385157    1.211273    2.451030
     78          1           0       13.034726    0.286378   -2.858782
     79          1           0       11.569650    1.526172   -2.177842
     80          1           0       13.191015    1.104427   -1.277111
     81          1           0       -5.222273    3.213240   -0.444502
     82          1           0       10.134723   -0.235660   -2.265361
     83          1           0       15.106245   -0.854976    0.692823
     84          1           0        8.528360    2.107417   -0.382336
     85          1           0       -2.087700    4.121725    0.351277
     86          1           0       -2.576711    3.968185   -1.709888
     87          1           0       -3.681221    4.820177   -0.468819
     88          1           0       -2.576874    0.558051   -0.122639
     89          1           0        6.683868   -2.066784   -0.093598
     90          1           0        8.549497   -1.677511   -0.310673
     91          1           0        7.856620   -1.580644    1.251995
     92          1           0        6.295870    1.866016   -0.264423
     93          1           0       -0.737277    2.934278   -0.225015
     94          1           0        4.799908   -0.930618    0.561807
     95          1           0       -0.395651   -0.175681    0.138922
     96          1           0        3.851577    1.924603   -0.245251
     97          1           0        1.543824    2.223581   -0.253602
     98          1           0        1.174172   -1.299784    0.129642
     99          1           0        2.911818   -1.926649   -0.509622
    100          1           0        2.506478   -1.475331    1.327627
 ---------------------------------------------------------------------

 SCF Done:  E(RCAM-B3LYP) =  -1857.31236727     A.U. after   15 cycles

 Excitation energies and oscillator strengths:

 Excited State   1:      Singlet-A      2.3372 eV  530.47 nm  f=3.0662  <S**2>=0.000
     163 ->166        -0.14654
     164 ->165         0.68441
 This state for optimization and/or second-order correction.
 Total Energy, E(TD-HF/TD-DFT) =  -1857.22647495
 Copying the excited state density for this state as the 1-particle RhoCI density.

 The electronic state is 1-A.
 Alpha  occ. eigenvalues --  -19.22858 -19.21836 -19.21821 -19.20015 -10.32704
 Alpha  occ. eigenvalues --  -10.32243 -10.32133 -10.31389 -10.30647 -10.28997
 Alpha  occ. eigenvalues --  -10.28492 -10.28027 -10.27903 -10.27771 -10.27660
 Alpha  occ. eigenvalues --  -10.27491 -10.27330 -10.27164 -10.27116 -10.27023
 Alpha  occ. eigenvalues --  -10.27016 -10.26951 -10.26946 -10.26926 -10.26859
 Alpha  occ. eigenvalues --  -10.26798 -10.26755 -10.26721 -10.26643 -10.26545
 Alpha  occ. eigenvalues --  -10.26413 -10.26400 -10.26381 -10.26266 -10.26140
 Alpha  occ. eigenvalues --  -10.26132 -10.25729 -10.25566 -10.25562 -10.25551
 Alpha  occ. eigenvalues --  -10.25414 -10.25043 -10.24795 -10.24226  -1.12735
 Alpha  occ. eigenvalues --   -1.11769  -1.10755  -1.08883  -0.92937  -0.92740
 Alpha  occ. eigenvalues --   -0.91942  -0.91346  -0.90794  -0.90196  -0.87820
 Alpha  occ. eigenvalues --   -0.86896  -0.86139  -0.85425  -0.85114  -0.83205
 Alpha  occ. eigenvalues --   -0.82302  -0.81154  -0.79855  -0.78004  -0.76735
 Alpha  occ. eigenvalues --   -0.76387  -0.76331  -0.75587  -0.75465  -0.75286
 Alpha  occ. eigenvalues --   -0.74764  -0.74250  -0.72696  -0.70738  -0.69912
 Alpha  occ. eigenvalues --   -0.68653  -0.67002  -0.65462  -0.64789  -0.63606
 Alpha  occ. eigenvalues --   -0.63388  -0.61934  -0.61030  -0.59952  -0.59106
 Alpha  occ. eigenvalues --   -0.58708  -0.57948  -0.57625  -0.57427  -0.56914
 Alpha  occ. eigenvalues --   -0.56112  -0.55243  -0.54645  -0.54349  -0.54267
 Alpha  occ. eigenvalues --   -0.53911  -0.53427  -0.53188  -0.52648  -0.51608
 Alpha  occ. eigenvalues --   -0.51043  -0.50939  -0.50675  -0.49751  -0.49726
 Alpha  occ. eigenvalues --   -0.49401  -0.49295  -0.49009  -0.48552  -0.48367
 Alpha  occ. eigenvalues --   -0.48101  -0.47736  -0.47399  -0.47106  -0.46713
 Alpha  occ. eigenvalues --   -0.46570  -0.46237  -0.45849  -0.45444  -0.45304
 Alpha  occ. eigenvalues --   -0.45010  -0.44746  -0.44534  -0.44372  -0.44247
 Alpha  occ. eigenvalues --   -0.43740  -0.43351  -0.43057  -0.42388  -0.42351
 Alpha  occ. eigenvalues --   -0.42033  -0.41539  -0.41486  -0.41254  -0.41035
 Alpha  occ. eigenvalues --   -0.40618  -0.40536  -0.40026  -0.39871  -0.39669
 Alpha  occ. eigenvalues --   -0.39588  -0.39512  -0.39273  -0.38911  -0.38232
 Alpha  occ. eigenvalues --   -0.38125  -0.37555  -0.37300  -0.37063  -0.36578
 Alpha  occ. eigenvalues --   -0.36384  -0.35807  -0.35684  -0.34187  -0.33898
 Alpha  occ. eigenvalues --   -0.32947  -0.32389  -0.32038  -0.31647  -0.30795
 Alpha  occ. eigenvalues --   -0.29850  -0.27970  -0.24099  -0.20039
 Alpha virt. eigenvalues --   -0.05460  -0.00838   0.03150   0.06181   0.07020
 Alpha virt. eigenvalues --    0.09585   0.09640   0.10054   0.10644   0.11123
 Alpha virt. eigenvalues --    0.11640   0.12503   0.12563   0.12663   0.13302

 Mulliken charges:
               1
     1  O   -0.534157
     2  O   -0.512108
     3  O   -0.523629
     4  O   -0.554744
     5  C    0.221891
     6  C    0.201751
     7  C    0.000011
     8  C   -0.226546
     9  C   -0.174901
    10  C    0.139818
    11  C   -0.301335
    12  C   -0.133640
    13  C   -0.297528
    14  C   -0.325150
    15  C   -0.030305
    16  C    0.054216
    17  C   -0.388708
    18  C   -0.109997
    19  C   -0.069500
    20  C    0.045863
    21  C    0.216413
    22  C   -0.182689
    23  C    0.159226
    24  C   -0.195031
    25  C   -0.070798
    26  C   -0.311440
    27  C   -0.319973
    28  C   -0.283842
    29  C   -0.090414
    30  C    0.145328
    31  C    0.017646
    32  C   -0.281945
    33  C   -0.361501
    34  C   -0.060572
    35  C    0.145937
    36  C   -0.397701
    37  C   -0.097730
    38  C   -0.081839
    39  C   -0.089486
    40  C   -0.109696
    41  C   -0.127236
    42  C   -0.112618
    43  C    0.120117
    44  C   -0.364820
    45  H    0.101399
    46  H    0.131190
    47  H    0.097737
    48  H    0.122239
    49  H    0.087447
    50  H    0.111330
    51  H    0.097244
    52  H    0.139228
    53  H    0.101769
    54  H    0.115444
    55  H    0.093045
    56  H    0.080552
    57  H    0.123029
    58  H    0.085078
    59  H    0.110801
    60  H    0.298497
    61  H    0.067033
    62  H    0.139684
    63  H    0.128489
    64  H    0.090923
    65  H    0.070586
    66  H    0.099159
    67  H    0.068452
    68  H    0.113673
    69  H    0.089920
    70  H    0.078727
    71  H    0.136030
    72  H    0.104940
    73  H    0.116468
    74  H    0.069177
    75  H    0.117385
    76  H    0.104229
    77  H    0.076645
    78  H    0.125771
    79  H    0.059263
    80  H    0.130147
    81  H    0.092305
    82  H    0.282737
    83  H    0.311848
    84  H    0.114910
    85  H    0.137085
    86  H    0.131119
    87  H    0.099194
    88  H    0.065099
    89  H    0.105699
    90  H    0.124853
    91  H    0.123166
    92  H    0.083083
    93  H    0.081781
    94  H    0.076773
    95  H    0.081855
    96  H    0.066046
    97  H    0.078869
    98  H    0.104026
    99  H    0.083400
   100  H    0.126785
 Sum of Mulliken charges =  -0.00000

 Dipole moment (field-independent basis, Debye):
    X=              2.7627    Y=              0.3001    Z=              2.1149  Tot=              3.4922
 Quadrupole moment (field-independent basis, Debye-Ang):
   XX=           -278.0409   YY=           -260.2708   ZZ=           -278.2316
   XY=             -0.1724   XZ=             31.8715   YZ=              0.0452

 Normal termination of Gaussian 16 at Tue Jul 30 09:20:57 2019.
