 Gaussian 16, Revision A.03,
 Gaussian 16:  ES64L-G16RevA.03 25-Dec-2016

 -------------------------------------
 # td=(NStates=1) CAM-B3LYP/6-31G(d,p)
 -------------------------------------

 --
 TD
 --
 Symbolic Z-matrix:
 Charge =  0 Multiplicity = 1

                         Standard orientation:
 ---------------------------------------------------------------------
 Center     Atomic      Atomic             Coordinates (Angstroms)
 Number     Number       Type             X           Y           Z
 ---------------------------------------------------------------------
      1          8           0      -11.765671    0.468831   -1.374255
      2          8           0      -13.159779   -2.470977    1.324281
      3          8           0       10.842093   -0.954979   -2.120473
      4          8           0       14.640397   -0.973962    0.117435
      5          6           0      -11.149761    0.012249   -0.261208
      6          6           0      -11.812139   -0.939023   -1.245207
      7          6           0      -11.770998    0.384548    1.159958
      8          6           0      -13.170053   -1.499976   -0.947484
      9          6           0      -13.302130   -0.027721    1.181181
     10          6           0      -13.632246   -1.476419    0.599494
     11          6           0      -10.995321   -1.614374   -2.188264
     12          6           0       -9.693577    0.225138   -0.285751
     13          6           0      -11.098446   -0.300514    2.348731
     14          6           0      -11.645903    1.891307    1.332750
     15          6           0       -8.715397   -0.743011   -0.036451
     16          6           0       -7.199507   -0.683218   -0.080648
     17          6           0       -6.465313   -1.879311    0.139612
     18          6           0       -6.654488    0.566835   -0.262220
     19          6           0       -5.245775    0.730349   -0.243494
     20          6           0       11.955309    0.076370    1.413167
     21          6           0       11.843568   -0.486569   -1.206456
     22          6           0       12.624885   -1.242447    1.703489
     23          6           0       13.433471   -1.769830    0.407903
     24          6           0       12.637466   -1.731346   -0.871406
     25          6           0       11.164920    0.067138    0.042144
     26          6           0       10.846835    0.302118    2.597297
     27          6           0       12.930635    1.315978    1.401103
     28          6           0       12.772478    0.492625   -1.802858
     29          6           0       -4.654571    1.946804   -0.483244
     30          6           0        9.963333    0.559360   -0.041055
     31          6           0       -3.349052    2.436407   -0.481169
     32          6           0        8.699910    0.909724   -0.236763
     33          6           0       -3.045810    3.856456   -0.603326
     34          6           0       -2.375754    1.489489   -0.385695
     35          6           0        7.518844    0.091128   -0.143575
     36          6           0        7.734740   -1.408184    0.083200
     37          6           0        6.235152    0.573049   -0.148264
     38          6           0       -1.008472    1.784905   -0.256150
     39          6           0        4.985912    0.001511   -0.057362
     40          6           0        0.036084    0.815967   -0.237196
     41          6           0        3.818833    0.730366   -0.206019
     42          6           0        1.482923    1.126202   -0.200251
     43          6           0        2.520301    0.234678   -0.143038
     44          6           0        2.134747   -1.281189   -0.013002
     45          1           0      -12.997248   -2.612914   -1.258571
     46          1           0      -13.782433   -1.159038   -1.571784
     47          1           0      -13.843173   -0.003148    2.415259
     48          1           0      -14.143870    0.723688    0.546691
     49          1           0      -14.732207   -1.545922    0.440998
     50          1           0      -10.689729   -2.545169   -1.939857
     51          1           0      -11.725158   -1.681507   -3.157731
     52          1           0      -10.041966   -1.083246   -2.467851
     53          1           0       -9.468996    1.261172   -0.671042
     54          1           0      -10.103073    0.063670    2.320153
     55          1           0      -11.428539    0.064689    3.387015
     56          1           0      -11.241875   -1.414807    2.179619
     57          1           0      -12.143876    2.254594    0.555667
     58          1           0      -12.232129    2.136040    2.383696
     59          1           0      -10.622731    2.101000    1.286750
     60          1           0      -12.054501   -2.569257    1.011172
     61          1           0       -8.945319   -1.764551    0.035278
     62          1           0       -5.980970   -2.149752   -0.942236
     63          1           0       -5.811154   -1.824673    0.920273
     64          1           0       -7.066452   -2.737451    0.495720
     65          1           0       -7.375697    1.553881   -0.476998
     66          1           0       -4.686257   -0.243510   -0.329308
     67          1           0       13.317780   -1.051212    2.669525
     68          1           0       11.929558   -2.014314    1.870368
     69          1           0       13.764774   -2.807115    0.605828
     70          1           0       13.233086   -1.994328   -1.701933
     71          1           0       11.713286   -2.406931   -0.768919
     72          1           0       11.590809    0.424507    3.620498
     73          1           0       10.366712    1.240879    2.487247
     74          1           0       10.097533   -0.500988    2.601678
     75          1           0       13.728074    1.347869    0.571339
     76          1           0       12.200973    2.119126    1.144326
     77          1           0       13.440037    1.293123    2.272996
     78          1           0       13.146223   -0.083239   -2.695128
     79          1           0       12.450562    1.313290   -2.075442
     80          1           0       13.608893    0.775250   -1.036652
     81          1           0       -5.271607    2.753751   -0.752033
     82          1           0       10.261424   -0.281475   -2.363482
     83          1           0       15.055891   -0.613553    0.923025
     84          1           0        8.286116    1.983170   -0.535762
     85          1           0       -2.495446    4.163684    0.304009
     86          1           0       -2.290959    3.879335   -1.473475
     87          1           0       -4.237566    4.404435   -0.866428
     88          1           0       -2.526646    0.409944   -0.316979
     89          1           0        6.933352   -2.012781   -0.310285
     90          1           0        8.805312   -1.667680   -0.313899
     91          1           0        7.780090   -1.622158    1.224803
     92          1           0        6.185098    1.589053   -0.390653
     93          1           0       -0.628423    2.855271   -0.359524
     94          1           0        5.132885   -1.193190   -0.119719
     95          1           0       -0.408301   -0.407052   -0.336603
     96          1           0        3.782241    1.751380   -0.550518
     97          1           0        1.595162    2.219329   -0.197427
     98          1           0        0.901771   -1.227586   -0.228887
     99          1           0        2.917212   -1.828606   -0.702880
    100          1           0        2.161313   -1.411683    1.007317
 ---------------------------------------------------------------------

 SCF Done:  E(RCAM-B3LYP) =  -1857.21207364     A.U. after   15 cycles

 Excitation energies and oscillator strengths:

 Excited State   1:      Singlet-A      2.1555 eV  575.20 nm  f=3.1951  <S**2>=0.000
     163 ->166         0.14621
     164 ->165         0.69159
 This state for optimization and/or second-order correction.
 Total Energy, E(TD-HF/TD-DFT) =  -1857.13286083
 Copying the excited state density for this state as the 1-particle RhoCI density.

 The electronic state is 1-A.
 Alpha  occ. eigenvalues --  -19.23674 -19.22494 -19.21418 -19.20869 -10.32033
 Alpha  occ. eigenvalues --  -10.31680 -10.31609 -10.31337 -10.31326 -10.29653
 Alpha  occ. eigenvalues --  -10.29354 -10.28684 -10.28402 -10.28395 -10.27748
 Alpha  occ. eigenvalues --  -10.27692 -10.27586 -10.27547 -10.27467 -10.27443
 Alpha  occ. eigenvalues --  -10.27396 -10.27311 -10.27295 -10.27273 -10.27198
 Alpha  occ. eigenvalues --  -10.27144 -10.27002 -10.26924 -10.26871 -10.26739
 Alpha  occ. eigenvalues --  -10.26656 -10.26605 -10.26544 -10.25988 -10.25805
 Alpha  occ. eigenvalues --  -10.25668 -10.25536 -10.25334 -10.24994 -10.24971
 Alpha  occ. eigenvalues --  -10.24945 -10.24734 -10.23643 -10.22692  -1.18502
 Alpha  occ. eigenvalues --   -1.11681  -1.10603  -1.08024  -0.93151  -0.93047
 Alpha  occ. eigenvalues --   -0.92223  -0.91443  -0.90486  -0.89808  -0.87581
 Alpha  occ. eigenvalues --   -0.87172  -0.86890  -0.85742  -0.84398  -0.83387
 Alpha  occ. eigenvalues --   -0.82561  -0.80980  -0.80666  -0.77842  -0.77024
 Alpha  occ. eigenvalues --   -0.76825  -0.76772  -0.76189  -0.76165  -0.75490
 Alpha  occ. eigenvalues --   -0.75042  -0.74132  -0.72941  -0.71106  -0.69654
 Alpha  occ. eigenvalues --   -0.68928  -0.67217  -0.65018  -0.64656  -0.63969
 Alpha  occ. eigenvalues --   -0.63456  -0.61678  -0.60126  -0.59603  -0.59286
 Alpha  occ. eigenvalues --   -0.59183  -0.58643  -0.57954  -0.57233  -0.56375
 Alpha  occ. eigenvalues --   -0.55770  -0.55496  -0.54890  -0.54725  -0.54517
 Alpha  occ. eigenvalues --   -0.54360  -0.54153  -0.53893  -0.52672  -0.52415
 Alpha  occ. eigenvalues --   -0.51815  -0.51357  -0.51240  -0.50666  -0.50588
 Alpha  occ. eigenvalues --   -0.50407  -0.49837  -0.49627  -0.49272  -0.48885
 Alpha  occ. eigenvalues --   -0.48565  -0.48122  -0.48009  -0.47039  -0.46852
 Alpha  occ. eigenvalues --   -0.46341  -0.45969  -0.45747  -0.45625  -0.45377
 Alpha  occ. eigenvalues --   -0.45197  -0.44699  -0.44000  -0.43933  -0.43772
 Alpha  occ. eigenvalues --   -0.43621  -0.43031  -0.42876  -0.42821  -0.42333
 Alpha  occ. eigenvalues --   -0.42007  -0.41924  -0.41844  -0.41723  -0.41480
 Alpha  occ. eigenvalues --   -0.41039  -0.40831  -0.40586  -0.40294  -0.40160
 Alpha  occ. eigenvalues --   -0.39927  -0.39607  -0.39131  -0.39000  -0.38344
 Alpha  occ. eigenvalues --   -0.38063  -0.37917  -0.37401  -0.37290  -0.36323
 Alpha  occ. eigenvalues --   -0.36074  -0.35565  -0.34809  -0.34142  -0.33558
 Alpha  occ. eigenvalues --   -0.33132  -0.32332  -0.32235  -0.31608  -0.30583
 Alpha  occ. eigenvalues --   -0.30208  -0.28046  -0.24126  -0.19861
 Alpha virt. eigenvalues --   -0.06245  -0.01428   0.02843   0.05702   0.06112
 Alpha virt. eigenvalues --    0.06758   0.09047   0.09727   0.10033   0.10892
 Alpha virt. eigenvalues --    0.12001   0.12025   0.12493   0.12877   0.13065

 Mulliken charges:
               1
     1  O   -0.486474
     2  O   -0.499067
     3  O   -0.560918
     4  O   -0.567265
     5  C    0.212644
     6  C    0.223819
     7  C   -0.005190
     8  C   -0.215144
     9  C   -0.151797
    10  C    0.172480
    11  C   -0.326531
    12  C   -0.125763
    13  C   -0.274684
    14  C   -0.285394
    15  C   -0.077976
    16  C    0.073206
    17  C   -0.386213
    18  C   -0.082553
    19  C   -0.089019
    20  C    0.002660
    21  C    0.236714
    22  C   -0.191047
    23  C    0.152351
    24  C   -0.176497
    25  C   -0.081224
    26  C   -0.291065
    27  C   -0.295407
    28  C   -0.268929
    29  C   -0.109293
    30  C    0.163761
    31  C    0.108378
    32  C   -0.306004
    33  C   -0.359769
    34  C   -0.090107
    35  C    0.140914
    36  C   -0.382431
    37  C   -0.107207
    38  C   -0.114017
    39  C   -0.085208
    40  C   -0.098373
    41  C   -0.118522
    42  C   -0.138388
    43  C    0.098116
    44  C   -0.336160
    45  H    0.083048
    46  H    0.119576
    47  H    0.047166
    48  H    0.052460
    49  H    0.094387
    50  H    0.114274
    51  H    0.082679
    52  H    0.127119
    53  H    0.106780
    54  H    0.113146
    55  H    0.102067
    56  H    0.067279
    57  H    0.127086
    58  H    0.082007
    59  H    0.102144
    60  H    0.305514
    61  H    0.061291
    62  H    0.114243
    63  H    0.144938
    64  H    0.108721
    65  H    0.079708
    66  H    0.092179
    67  H    0.075483
    68  H    0.114312
    69  H    0.091720
    70  H    0.122301
    71  H    0.109813
    72  H    0.058559
    73  H    0.121831
    74  H    0.116916
    75  H    0.100360
    76  H    0.112718
    77  H    0.102417
    78  H    0.099477
    79  H    0.094187
    80  H    0.117371
    81  H    0.056521
    82  H    0.299383
    83  H    0.305064
    84  H    0.094377
    85  H    0.141076
    86  H    0.129212
    87  H    0.077652
    88  H    0.082030
    89  H    0.113011
    90  H    0.120310
    91  H    0.107878
    92  H    0.061048
    93  H    0.076450
    94  H    0.076048
    95  H    0.067330
    96  H    0.094954
    97  H    0.086199
    98  H    0.085424
    99  H    0.112353
   100  H    0.146999
 Sum of Mulliken charges =  -0.00000

 Dipole moment (field-independent basis, Debye):
    X=              3.3938    Y=              0.0665    Z=              0.9732  Tot=              3.5312
 Quadrupole moment (field-independent basis, Debye-Ang):
   XX=           -301.0113   YY=           -263.7940   ZZ=           -278.0318
   XY=             15.2329   XZ=             36.2295   YZ=             -1.5816

 Normal termination of Gaussian 16 at Mon Jul 29 22:07:29 2019.
