 Gaussian 16, Revision A.03,
 Gaussian 16:  ES64L-G16RevA.03 25-Dec-2016

 -------------------------------------
 # td=(NStates=1) CAM-B3LYP/6-31G(d,p)
 -------------------------------------

 --
 TD
 --
 Symbolic Z-matrix:
 Charge =  0 Multiplicity = 1

                         Standard orientation:
 ---------------------------------------------------------------------
 Center     Atomic      Atomic             Coordinates (Angstroms)
 Number     Number       Type             X           Y           Z
 ---------------------------------------------------------------------
      1          8           0      -11.608254    0.417116   -1.526236
      2          8           0      -13.345430   -2.595145    1.221832
      3          8           0       10.543352   -0.691630   -2.121217
      4          8           0       14.417404   -1.265281   -0.376076
      5          6           0      -10.984161   -0.086573   -0.338548
      6          6           0      -11.687038   -1.012894   -1.252705
      7          6           0      -11.816216    0.301208    0.944333
      8          6           0      -12.986873   -1.721289   -1.022249
      9          6           0      -13.353063    0.027114    0.769321
     10          6           0      -13.667158   -1.485392    0.291725
     11          6           0      -10.710606   -1.846636   -2.236885
     12          6           0       -9.567392    0.155883   -0.381617
     13          6           0      -11.153346   -0.305076    2.155516
     14          6           0      -11.732115    1.838501    1.098568
     15          6           0       -8.704106   -0.699949    0.121248
     16          6           0       -7.195032   -0.627542    0.223983
     17          6           0       -6.534531   -1.914599    0.480750
     18          6           0       -6.486866    0.560513   -0.052362
     19          6           0       -5.103369    0.838867   -0.100671
     20          6           0       12.004707   -0.012363    1.366126
     21          6           0       11.599142   -0.439812   -1.307128
     22          6           0       12.780953   -1.391718    1.292413
     23          6           0       13.301762   -1.911525   -0.031473
     24          6           0       12.341524   -1.753287   -1.198756
     25          6           0       11.168805    0.110418    0.028263
     26          6           0       11.171674    0.025057    2.579671
     27          6           0       13.107478    1.077505    1.359065
     28          6           0       12.525822    0.661155   -1.907660
     29          6           0       -4.719201    2.098624   -0.311974
     30          6           0        9.943276    0.589909    0.166313
     31          6           0       -3.421852    2.556674   -0.312535
     32          6           0        8.687928    0.928291    0.044391
     33          6           0       -3.143185    3.974910   -0.620099
     34          6           0       -2.279859    1.645221   -0.106848
     35          6           0        7.484403    0.028513    0.098110
     36          6           0        7.724858   -1.391271    0.239504
     37          6           0        6.247369    0.613178    0.042510
     38          6           0       -0.979943    1.974025   -0.168774
     39          6           0        4.901172    0.089729    0.131098
     40          6           0        0.011771    0.948900   -0.067141
     41          6           0        3.796299    0.913483   -0.005355
     42          6           0        1.364724    1.280406   -0.138337
     43          6           0        2.438184    0.362686    0.012266
     44          6           0        2.287911   -1.131908    0.434536
     45          1           0      -12.720381   -2.829377   -1.501972
     46          1           0      -13.544466   -1.342247   -1.994443
     47          1           0      -13.847407    0.094130    1.712506
     48          1           0      -13.531136    0.544906   -0.020961
     49          1           0      -14.644917   -1.604298    0.393602
     50          1           0      -10.484126   -2.794307   -1.639035
     51          1           0      -11.245873   -1.905532   -3.148179
     52          1           0       -9.730521   -1.273203   -2.571998
     53          1           0       -9.299679    1.248664   -0.484619
     54          1           0      -10.258154    0.386084    2.456135
     55          1           0      -11.824327   -0.476482    2.812291
     56          1           0      -10.741162   -1.446506    1.933031
     57          1           0      -12.098771    2.258792    0.269880
     58          1           0      -12.319665    2.293328    1.819415
     59          1           0      -10.835656    2.174201    1.152292
     60          1           0      -12.289731   -2.490471    1.339207
     61          1           0       -9.241983   -1.661754    0.497681
     62          1           0       -5.768228   -2.031584   -0.339056
     63          1           0       -5.705314   -1.932390    1.304184
     64          1           0       -7.335736   -2.627555    0.542014
     65          1           0       -6.978636    1.461713   -0.394239
     66          1           0       -4.464634    0.003459    0.198682
     67          1           0       13.840178   -1.507019    1.936244
     68          1           0       11.951150   -2.051274    1.765233
     69          1           0       13.539959   -3.035595    0.166552
     70          1           0       12.742446   -2.060162   -2.067354
     71          1           0       11.342430   -2.306223   -0.864798
     72          1           0       11.795077    0.103151    3.405232
     73          1           0       10.717864    1.094382    2.656659
     74          1           0       10.226671   -0.762172    2.718738
     75          1           0       13.826852    0.864507    0.351028
     76          1           0       12.557620    1.972105    1.327920
     77          1           0       13.858619    1.044573    2.242128
     78          1           0       12.648218    0.538745   -3.011242
     79          1           0       11.871029    1.491601   -1.880195
     80          1           0       13.354415    0.907246   -1.360654
     81          1           0       -5.588234    2.931972   -0.615899
     82          1           0        9.981053    0.139946   -2.357247
     83          1           0       15.046332   -1.279928    0.388664
     84          1           0        8.595311    2.116713   -0.037911
     85          1           0       -2.693576    4.625973    0.279659
     86          1           0       -2.072722    4.055909   -1.212987
     87          1           0       -4.068718    4.672270   -1.206819
     88          1           0       -2.536443    0.633010    0.001339
     89          1           0        6.654688   -1.990846    0.348796
     90          1           0        8.092275   -1.784935   -0.650843
     91          1           0        8.358724   -1.552411    1.110975
     92          1           0        6.196348    1.781385   -0.027341
     93          1           0       -0.799553    3.029352   -0.499356
     94          1           0        5.016140   -1.048845    0.291366
     95          1           0       -0.047272   -0.199334    0.333252
     96          1           0        3.917987    1.854013   -0.598008
     97          1           0        1.632295    2.172215   -0.216458
     98          1           0        1.275289   -1.635696    0.350761
     99          1           0        2.902446   -1.609642   -0.334741
    100          1           0        2.735925   -1.388654    1.432916
 ---------------------------------------------------------------------

 SCF Done:  E(RCAM-B3LYP) =  -1857.20669786     A.U. after   15 cycles

 Excitation energies and oscillator strengths:

 Excited State   1:      Singlet-A      1.9190 eV  646.08 nm  f=2.7402  <S**2>=0.000
     163 ->166         0.11237
     164 ->165         0.70646
     164 <-165        -0.12948
 This state for optimization and/or second-order correction.
 Total Energy, E(TD-HF/TD-DFT) =  -1857.13617514
 Copying the excited state density for this state as the 1-particle RhoCI density.

 The electronic state is 1-A.
 Alpha  occ. eigenvalues --  -19.22406 -19.22063 -19.21605 -19.21435 -10.32035
 Alpha  occ. eigenvalues --  -10.31689 -10.31103 -10.30698 -10.30214 -10.29501
 Alpha  occ. eigenvalues --  -10.28722 -10.28643 -10.28385 -10.28345 -10.28185
 Alpha  occ. eigenvalues --  -10.28061 -10.27963 -10.27903 -10.27800 -10.27575
 Alpha  occ. eigenvalues --  -10.27420 -10.27336 -10.27317 -10.27309 -10.27173
 Alpha  occ. eigenvalues --  -10.27062 -10.26968 -10.26799 -10.26656 -10.26360
 Alpha  occ. eigenvalues --  -10.26278 -10.26222 -10.26180 -10.26146 -10.26126
 Alpha  occ. eigenvalues --  -10.25907 -10.25818 -10.25562 -10.25548 -10.24921
 Alpha  occ. eigenvalues --  -10.24656 -10.24504 -10.22714 -10.21129  -1.14126
 Alpha  occ. eigenvalues --   -1.13441  -1.11450  -1.06196  -0.92863  -0.92682
 Alpha  occ. eigenvalues --   -0.91664  -0.91304  -0.90656  -0.89827  -0.87851
 Alpha  occ. eigenvalues --   -0.86593  -0.86361  -0.85751  -0.84783  -0.83535
 Alpha  occ. eigenvalues --   -0.82080  -0.80832  -0.80571  -0.79104  -0.78239
 Alpha  occ. eigenvalues --   -0.76884  -0.76757  -0.76086  -0.75698  -0.75569
 Alpha  occ. eigenvalues --   -0.75396  -0.73642  -0.72496  -0.70815  -0.70150
 Alpha  occ. eigenvalues --   -0.68636  -0.66933  -0.65263  -0.64982  -0.64082
 Alpha  occ. eigenvalues --   -0.63550  -0.62234  -0.61076  -0.59930  -0.59611
 Alpha  occ. eigenvalues --   -0.59215  -0.58625  -0.58129  -0.57412  -0.57078
 Alpha  occ. eigenvalues --   -0.56304  -0.55167  -0.54950  -0.54821  -0.53852
 Alpha  occ. eigenvalues --   -0.53624  -0.53412  -0.52828  -0.52283  -0.52097
 Alpha  occ. eigenvalues --   -0.51910  -0.50693  -0.50548  -0.50438  -0.50063
 Alpha  occ. eigenvalues --   -0.49658  -0.49269  -0.48925  -0.48671  -0.48328
 Alpha  occ. eigenvalues --   -0.48031  -0.47585  -0.47333  -0.47050  -0.46759
 Alpha  occ. eigenvalues --   -0.46542  -0.46213  -0.46035  -0.46006  -0.45707
 Alpha  occ. eigenvalues --   -0.45546  -0.45233  -0.44801  -0.44171  -0.44018
 Alpha  occ. eigenvalues --   -0.43789  -0.43364  -0.43159  -0.42856  -0.42506
 Alpha  occ. eigenvalues --   -0.42456  -0.41958  -0.41840  -0.41460  -0.41116
 Alpha  occ. eigenvalues --   -0.40805  -0.40779  -0.40367  -0.39678  -0.39654
 Alpha  occ. eigenvalues --   -0.39457  -0.39160  -0.39033  -0.38997  -0.38640
 Alpha  occ. eigenvalues --   -0.38520  -0.38159  -0.37849  -0.36906  -0.36634
 Alpha  occ. eigenvalues --   -0.36600  -0.36008  -0.35114  -0.34349  -0.34061
 Alpha  occ. eigenvalues --   -0.32964  -0.32233  -0.31770  -0.31572  -0.30892
 Alpha  occ. eigenvalues --   -0.29339  -0.27832  -0.24921  -0.18931
 Alpha virt. eigenvalues --   -0.07006  -0.00508   0.02956   0.05896   0.07145
 Alpha virt. eigenvalues --    0.08013   0.08845   0.09548   0.10415   0.11378
 Alpha virt. eigenvalues --    0.12001   0.12060   0.12402   0.12689   0.12821

 Mulliken charges:
               1
     1  O   -0.516128
     2  O   -0.567241
     3  O   -0.569812
     4  O   -0.510010
     5  C    0.193462
     6  C    0.227952
     7  C    0.000999
     8  C   -0.221794
     9  C   -0.195084
    10  C    0.149055
    11  C   -0.330601
    12  C   -0.086233
    13  C   -0.281177
    14  C   -0.314807
    15  C   -0.081613
    16  C    0.078358
    17  C   -0.378866
    18  C   -0.115667
    19  C   -0.044789
    20  C    0.026263
    21  C    0.267008
    22  C   -0.174730
    23  C    0.166015
    24  C   -0.160523
    25  C   -0.059164
    26  C   -0.305803
    27  C   -0.295860
    28  C   -0.301808
    29  C   -0.130709
    30  C    0.134267
    31  C    0.119138
    32  C   -0.284427
    33  C   -0.380107
    34  C   -0.080315
    35  C    0.115599
    36  C   -0.363826
    37  C   -0.118321
    38  C   -0.090674
    39  C   -0.070585
    40  C   -0.094499
    41  C   -0.142615
    42  C   -0.055973
    43  C    0.064208
    44  C   -0.372870
    45  H    0.106889
    46  H    0.115719
    47  H    0.112146
    48  H    0.129822
    49  H    0.110477
    50  H    0.100905
    51  H    0.117114
    52  H    0.115980
    53  H    0.099372
    54  H    0.112414
    55  H    0.122931
    56  H    0.038495
    57  H    0.123070
    58  H    0.102593
    59  H    0.100267
    60  H    0.294534
    61  H    0.067207
    62  H    0.125751
    63  H    0.112240
    64  H    0.116389
    65  H    0.070569
    66  H    0.085966
    67  H    0.036063
    68  H    0.084749
    69  H    0.059796
    70  H    0.114876
    71  H    0.091219
    72  H    0.115055
    73  H    0.094094
    74  H    0.095284
    75  H    0.099581
    76  H    0.107105
    77  H    0.086195
    78  H    0.096680
    79  H    0.081541
    80  H    0.124288
    81  H    0.080679
    82  H    0.316403
    83  H    0.304667
    84  H    0.102100
    85  H    0.114634
    86  H    0.095476
    87  H    0.093046
    88  H    0.077964
    89  H    0.074544
    90  H    0.155354
    91  H    0.126231
    92  H    0.066085
    93  H    0.084386
    94  H    0.084095
    95  H    0.084778
    96  H    0.106048
    97  H    0.054600
    98  H    0.105159
    99  H    0.129828
   100  H    0.130856
 Sum of Mulliken charges =  -0.00000

 Dipole moment (field-independent basis, Debye):
    X=              4.1078    Y=              0.6199    Z=              1.6158  Tot=              4.4575
 Quadrupole moment (field-independent basis, Debye-Ang):
   XX=           -284.9346   YY=           -265.0855   ZZ=           -277.9528
   XY=             -7.9033   XZ=             20.2502   YZ=             -2.0331

 Normal termination of Gaussian 16 at Thu Aug  1 16:31:52 2019.
