 Gaussian 16, Revision A.03,
 Gaussian 16:  ES64L-G16RevA.03 25-Dec-2016

 -------------------------------------
 # td=(NStates=1) CAM-B3LYP/6-31G(d,p)
 -------------------------------------

 --
 TD
 --
 Symbolic Z-matrix:
 Charge =  0 Multiplicity = 1

                         Standard orientation:
 ---------------------------------------------------------------------
 Center     Atomic      Atomic             Coordinates (Angstroms)
 Number     Number       Type             X           Y           Z
 ---------------------------------------------------------------------
      1          8           0      -11.794913    0.500007   -1.356602
      2          8           0      -12.771269   -2.729018    1.041740
      3          8           0       10.648366   -0.931657   -2.179873
      4          8           0       14.501682   -0.958907   -0.163841
      5          6           0      -11.075947   -0.052883   -0.308691
      6          6           0      -11.691816   -0.976707   -1.335623
      7          6           0      -11.825182    0.195798    1.055237
      8          6           0      -13.045609   -1.646423   -1.109537
      9          6           0      -13.226433   -0.318010    1.028686
     10          6           0      -13.421182   -1.717382    0.428933
     11          6           0      -10.953245   -1.594918   -2.523048
     12          6           0       -9.570350    0.209604   -0.377542
     13          6           0      -11.016675   -0.398760    2.227116
     14          6           0      -11.831666    1.812998    1.091424
     15          6           0       -8.612142   -0.708132    0.011668
     16          6           0       -7.157853   -0.588480    0.093358
     17          6           0       -6.391227   -1.869723    0.394844
     18          6           0       -6.630619    0.648413   -0.160741
     19          6           0       -5.281613    0.966507    0.043795
     20          6           0       11.792359   -0.147918    1.275256
     21          6           0       11.741689   -0.521018   -1.302742
     22          6           0       12.677899   -1.359991    1.392707
     23          6           0       13.438655   -1.767411    0.139831
     24          6           0       12.505922   -1.831845   -1.065148
     25          6           0       11.061764   -0.075744   -0.018994
     26          6           0       10.955819   -0.133948    2.583075
     27          6           0       12.660870    1.163688    1.401449
     28          6           0       12.399740    0.638932   -1.966003
     29          6           0       -4.669394    2.157894   -0.181383
     30          6           0        9.855358    0.509822   -0.083517
     31          6           0       -3.340385    2.553380   -0.284656
     32          6           0        8.663272    0.959751   -0.206380
     33          6           0       -3.016044    3.982766   -0.520233
     34          6           0       -2.329542    1.666614   -0.100198
     35          6           0        7.405177    0.112799   -0.050383
     36          6           0        7.698097   -1.189081    0.308983
     37          6           0        6.245086    0.761993   -0.093419
     38          6           0       -0.892253    1.976492   -0.145154
     39          6           0        4.945522    0.171440    0.047758
     40          6           0        0.098460    0.908057   -0.016591
     41          6           0        3.794954    0.862758   -0.069837
     42          6           0        1.400406    1.259875   -0.110155
     43          6           0        2.518959    0.376550    0.081907
     44          6           0        2.242492   -1.167756    0.247006
     45          1           0      -13.163535   -2.545067   -1.725728
     46          1           0      -13.863116   -0.811525   -1.432033
     47          1           0      -13.466904   -0.550211    2.173576
     48          1           0      -14.005446    0.477884    0.621079
     49          1           0      -14.501645   -2.016467    0.374444
     50          1           0      -10.814478   -2.612942   -2.346771
     51          1           0      -11.604799   -1.431873   -3.446578
     52          1           0      -10.018060   -1.067166   -2.804379
     53          1           0       -9.124464    1.183510   -0.635819
     54          1           0       -9.947319   -0.040855    2.130265
     55          1           0      -11.355451    0.015170    3.077343
     56          1           0      -11.258060   -1.304800    2.401771
     57          1           0      -12.465277    2.217876    0.457286
     58          1           0      -12.167625    2.120822    1.907734
     59          1           0      -10.681677    2.470578    0.948620
     60          1           0      -11.771850   -2.406005    0.946429
     61          1           0       -8.859242   -1.789656    0.551829
     62          1           0       -5.415756   -2.291454   -0.202344
     63          1           0       -5.957909   -1.736298    1.426484
     64          1           0       -7.182602   -2.637943    0.337909
     65          1           0       -7.177561    1.544442   -0.301524
     66          1           0       -4.686994    0.139053    0.288314
     67          1           0       13.577904   -1.328560    2.282160
     68          1           0       12.070986   -2.137993    1.750904
     69          1           0       13.783538   -2.826842    0.325837
     70          1           0       13.057704   -2.035888   -2.084518
     71          1           0       11.909513   -2.695246   -0.675368
     72          1           0       11.738676   -0.146678    3.476525
     73          1           0       10.424690    0.814296    2.462498
     74          1           0       10.054384   -0.922612    2.604756
     75          1           0       13.363965    1.138769    0.584295
     76          1           0       12.186815    2.020588    1.388832
     77          1           0       13.267721    1.045358    2.478604
     78          1           0       13.046474    0.159493   -2.991600
     79          1           0       11.755901    1.468964   -2.203289
     80          1           0       13.211012    0.974503   -1.317902
     81          1           0       -5.238612    3.082763   -0.238799
     82          1           0        9.846009   -0.207766   -1.879825
     83          1           0       15.075208   -1.032890    0.577662
     84          1           0        8.344195    1.942914   -0.305109
     85          1           0       -2.164720    4.246802    0.181430
     86          1           0       -2.574748    4.200908   -1.548840
     87          1           0       -3.911452    4.381175   -0.474938
     88          1           0       -2.611808    0.612193    0.194096
     89          1           0        6.875047   -1.927016    0.244357
     90          1           0        8.504423   -1.662086   -0.385842
     91          1           0        8.296331   -1.290885    1.118811
     92          1           0        6.115139    1.883706   -0.303018
     93          1           0       -0.618168    2.955577   -0.270836
     94          1           0        4.666491   -0.914563    0.283496
     95          1           0       -0.086631   -0.216182    0.156091
     96          1           0        3.890620    2.033867   -0.188098
     97          1           0        1.602974    2.263164   -0.496195
     98          1           0        1.295607   -1.524776    0.152977
     99          1           0        2.788397   -1.845585   -0.530058
    100          1           0        2.535326   -1.459954    1.213245
 ---------------------------------------------------------------------

 SCF Done:  E(RCAM-B3LYP) =  -1857.27051192     A.U. after   15 cycles

 Excitation energies and oscillator strengths:

 Excited State   1:      Singlet-A      2.0952 eV  591.76 nm  f=3.0403  <S**2>=0.000
     163 ->166         0.12722
     164 ->165         0.69830
     164 <-165        -0.10354
 This state for optimization and/or second-order correction.
 Total Energy, E(TD-HF/TD-DFT) =  -1857.19351568
 Copying the excited state density for this state as the 1-particle RhoCI density.

 The electronic state is 1-A.
 Alpha  occ. eigenvalues --  -19.22725 -19.22080 -19.21516 -19.19389 -10.32281
 Alpha  occ. eigenvalues --  -10.31867 -10.31293 -10.30996 -10.30823 -10.28335
 Alpha  occ. eigenvalues --  -10.28330 -10.28205 -10.28159 -10.28131 -10.28060
 Alpha  occ. eigenvalues --  -10.28038 -10.27783 -10.27590 -10.27524 -10.27434
 Alpha  occ. eigenvalues --  -10.27329 -10.27177 -10.27050 -10.26970 -10.26915
 Alpha  occ. eigenvalues --  -10.26744 -10.26685 -10.26541 -10.26448 -10.26217
 Alpha  occ. eigenvalues --  -10.26167 -10.26144 -10.26088 -10.26081 -10.26019
 Alpha  occ. eigenvalues --  -10.25836 -10.25569 -10.25564 -10.25309 -10.25261
 Alpha  occ. eigenvalues --  -10.24922 -10.24545 -10.24014 -10.22747  -1.14863
 Alpha  occ. eigenvalues --   -1.12881  -1.11676  -1.05662  -0.94041  -0.93032
 Alpha  occ. eigenvalues --   -0.92876  -0.91629  -0.91030  -0.90326  -0.87862
 Alpha  occ. eigenvalues --   -0.86107  -0.85670  -0.85448  -0.85042  -0.83093
 Alpha  occ. eigenvalues --   -0.82160  -0.81502  -0.80458  -0.79165  -0.78443
 Alpha  occ. eigenvalues --   -0.78301  -0.77334  -0.77195  -0.76096  -0.75360
 Alpha  occ. eigenvalues --   -0.75320  -0.74173  -0.73391  -0.70879  -0.69804
 Alpha  occ. eigenvalues --   -0.68875  -0.67040  -0.65059  -0.64920  -0.64669
 Alpha  occ. eigenvalues --   -0.63640  -0.62331  -0.61184  -0.60728  -0.60406
 Alpha  occ. eigenvalues --   -0.59232  -0.58981  -0.57713  -0.56868  -0.56795
 Alpha  occ. eigenvalues --   -0.56700  -0.56198  -0.55508  -0.54891  -0.54071
 Alpha  occ. eigenvalues --   -0.53769  -0.53703  -0.53228  -0.53164  -0.51739
 Alpha  occ. eigenvalues --   -0.51278  -0.50930  -0.50523  -0.50189  -0.49720
 Alpha  occ. eigenvalues --   -0.49527  -0.49428  -0.49141  -0.48978  -0.48603
 Alpha  occ. eigenvalues --   -0.48414  -0.48091  -0.47843  -0.47783  -0.47334
 Alpha  occ. eigenvalues --   -0.46801  -0.46696  -0.46296  -0.46211  -0.45459
 Alpha  occ. eigenvalues --   -0.45055  -0.45002  -0.44404  -0.44187  -0.43633
 Alpha  occ. eigenvalues --   -0.43544  -0.43329  -0.43231  -0.43008  -0.42881
 Alpha  occ. eigenvalues --   -0.42512  -0.42301  -0.41867  -0.41699  -0.41289
 Alpha  occ. eigenvalues --   -0.41247  -0.41037  -0.40693  -0.40655  -0.40428
 Alpha  occ. eigenvalues --   -0.40027  -0.39891  -0.39734  -0.39256  -0.38734
 Alpha  occ. eigenvalues --   -0.38627  -0.38429  -0.38147  -0.37801  -0.37162
 Alpha  occ. eigenvalues --   -0.36355  -0.36119  -0.35594  -0.34744  -0.34165
 Alpha  occ. eigenvalues --   -0.32401  -0.32168  -0.31385  -0.30881  -0.30521
 Alpha  occ. eigenvalues --   -0.29362  -0.28805  -0.24795  -0.19550
 Alpha virt. eigenvalues --   -0.06550  -0.00921   0.03313   0.04452   0.06743
 Alpha virt. eigenvalues --    0.09214   0.09445   0.10177   0.11527   0.11905
 Alpha virt. eigenvalues --    0.12175   0.12274   0.12610   0.12984   0.13739

 Mulliken charges:
               1
     1  O   -0.505645
     2  O   -0.516958
     3  O   -0.587781
     4  O   -0.514202
     5  C    0.240645
     6  C    0.213922
     7  C    0.011976
     8  C   -0.208573
     9  C   -0.207439
    10  C    0.148375
    11  C   -0.338439
    12  C   -0.134057
    13  C   -0.320387
    14  C   -0.282504
    15  C   -0.076687
    16  C    0.081008
    17  C   -0.365235
    18  C   -0.087849
    19  C   -0.069643
    20  C   -0.002560
    21  C    0.261691
    22  C   -0.170220
    23  C    0.131143
    24  C   -0.166630
    25  C   -0.043476
    26  C   -0.288802
    27  C   -0.277268
    28  C   -0.262853
    29  C   -0.121611
    30  C    0.114486
    31  C    0.104967
    32  C   -0.310198
    33  C   -0.356205
    34  C   -0.118288
    35  C    0.184638
    36  C   -0.408622
    37  C   -0.142849
    38  C   -0.113376
    39  C   -0.091594
    40  C   -0.069824
    41  C   -0.098436
    42  C   -0.110886
    43  C    0.082852
    44  C   -0.384151
    45  H    0.102377
    46  H    0.099149
    47  H    0.090061
    48  H    0.101836
    49  H    0.093587
    50  H    0.117145
    51  H    0.111531
    52  H    0.120839
    53  H    0.105846
    54  H    0.119198
    55  H    0.110022
    56  H    0.100770
    57  H    0.130036
    58  H    0.106157
    59  H    0.049523
    60  H    0.310834
    61  H    0.050634
    62  H    0.112820
    63  H    0.128609
    64  H    0.113567
    65  H    0.082063
    66  H    0.071523
    67  H    0.046176
    68  H    0.109526
    69  H    0.065689
    70  H    0.106735
    71  H    0.107970
    72  H    0.097876
    73  H    0.110316
    74  H    0.085689
    75  H    0.122094
    76  H    0.114872
    77  H    0.058259
    78  H    0.071989
    79  H    0.110403
    80  H    0.117895
    81  H    0.061177
    82  H    0.300611
    83  H    0.301062
    84  H    0.106112
    85  H    0.120669
    86  H    0.118341
    87  H    0.107794
    88  H    0.073936
    89  H    0.110288
    90  H    0.119811
    91  H    0.137812
    92  H    0.086728
    93  H    0.086437
    94  H    0.084418
    95  H    0.089307
    96  H    0.068358
    97  H    0.086395
    98  H    0.117404
    99  H    0.113712
   100  H    0.133554
 Sum of Mulliken charges =  -0.00000

 Dipole moment (field-independent basis, Debye):
    X=              2.0724    Y=              0.2060    Z=              3.3667  Tot=              3.9588
 Quadrupole moment (field-independent basis, Debye-Ang):
   XX=           -284.6554   YY=           -260.9263   ZZ=           -282.0338
   XY=             -4.6560   XZ=             33.4968   YZ=             -3.4613

 Normal termination of Gaussian 16 at Wed Jul 31 07:14:40 2019.
