 Gaussian 16, Revision A.03,
 Gaussian 16:  ES64L-G16RevA.03 25-Dec-2016

 -------------------------------------
 # td=(NStates=1) CAM-B3LYP/6-31G(d,p)
 -------------------------------------

 --
 TD
 --
 Symbolic Z-matrix:
 Charge =  0 Multiplicity = 1

                         Standard orientation:
 ---------------------------------------------------------------------
 Center     Atomic      Atomic             Coordinates (Angstroms)
 Number     Number       Type             X           Y           Z
 ---------------------------------------------------------------------
      1          8           0      -11.675688    0.068170   -1.698486
      2          8           0      -13.170157   -2.373503    1.640128
      3          8           0       10.479957   -1.096482   -2.098021
      4          8           0       14.438054   -1.071380   -0.150718
      5          6           0      -11.031784   -0.168977   -0.439220
      6          6           0      -11.669629   -1.277948   -1.218363
      7          6           0      -11.804083    0.464766    0.819708
      8          6           0      -13.033460   -1.962146   -0.756127
      9          6           0      -13.268046    0.004602    0.881296
     10          6           0      -13.605123   -1.497844    0.547420
     11          6           0      -10.764775   -2.188267   -1.967593
     12          6           0       -9.490946    0.064536   -0.404287
     13          6           0      -11.115642    0.030471    2.095631
     14          6           0      -11.709596    2.000142    0.664385
     15          6           0       -8.619917   -0.743274    0.128732
     16          6           0       -7.261230   -0.536622    0.109006
     17          6           0       -6.359420   -1.738915    0.556809
     18          6           0       -6.653913    0.680877   -0.127664
     19          6           0       -5.276707    0.969371   -0.103212
     20          6           0       11.912280   -0.031666    1.347481
     21          6           0       11.621819   -0.610133   -1.304776
     22          6           0       12.685493   -1.290625    1.392279
     23          6           0       13.332612   -1.869840    0.207357
     24          6           0       12.379830   -1.892719   -0.938747
     25          6           0       11.093208    0.021162    0.034811
     26          6           0       11.119445    0.144892    2.605599
     27          6           0       12.881320    1.293560    1.478920
     28          6           0       12.597578    0.312929   -2.094142
     29          6           0       -4.746797    2.218174   -0.354607
     30          6           0        9.911503    0.543291   -0.036616
     31          6           0       -3.387917    2.533243   -0.493316
     32          6           0        8.637043    1.043342   -0.243277
     33          6           0       -3.066553    3.971531   -0.557266
     34          6           0       -2.303988    1.536143   -0.377887
     35          6           0        7.476505    0.229220   -0.019279
     36          6           0        7.782172   -1.243014    0.552830
     37          6           0        6.295095    0.808723   -0.068163
     38          6           0       -0.985640    1.802502   -0.337202
     39          6           0        4.986558    0.191023   -0.005106
     40          6           0        0.071877    0.893503   -0.236029
     41          6           0        3.804221    0.946442   -0.049126
     42          6           0        1.414508    1.290647   -0.167733
     43          6           0        2.531495    0.409465   -0.061383
     44          6           0        2.371782   -1.028004    0.280681
     45          1           0      -13.056351   -3.195996   -0.984865
     46          1           0      -13.901771   -1.695898   -1.498675
     47          1           0      -13.647779    0.138904    1.798473
     48          1           0      -13.813711    0.562324    0.048112
     49          1           0      -14.772412   -1.395908    0.333295
     50          1           0      -11.182896   -3.346075   -1.375050
     51          1           0      -11.174506   -2.217890   -3.126906
     52          1           0       -9.468418   -1.901667   -1.971331
     53          1           0       -9.209745    0.949020   -1.087797
     54          1           0      -10.263928    0.698696    2.363913
     55          1           0      -11.864459    0.473416    3.000534
     56          1           0      -11.070508   -1.083725    2.381428
     57          1           0      -11.833274    2.319396   -0.277162
     58          1           0      -12.453596    2.381891    1.309702
     59          1           0      -10.787616    2.525620    1.079781
     60          1           0      -12.031017   -2.307706    1.754598
     61          1           0       -8.937787   -1.659916    0.691584
     62          1           0       -5.898303   -2.343429   -0.370503
     63          1           0       -5.485909   -1.443766    1.058194
     64          1           0       -7.196106   -2.420274    1.117944
     65          1           0       -7.498270    1.479939   -0.429971
     66          1           0       -4.449873    0.183789   -0.128705
     67          1           0       13.407960   -1.248616    2.195524
     68          1           0       11.926182   -2.100231    1.681035
     69          1           0       13.745682   -2.876342    0.508357
     70          1           0       12.803268   -2.329880   -1.933711
     71          1           0       11.679673   -2.710521   -0.615805
     72          1           0       11.508814   -0.068063    3.539361
     73          1           0       10.563925    1.025545    2.527919
     74          1           0       10.375626   -0.689748    2.548869
     75          1           0       13.605458    1.342139    0.600250
     76          1           0       12.342323    2.335905    1.284952
     77          1           0       13.275991    1.217736    2.474121
     78          1           0       12.753156   -0.368658   -3.077903
     79          1           0       12.186437    1.249459   -2.406822
     80          1           0       13.446970    0.570133   -1.481147
     81          1           0       -5.430669    3.029846   -0.457460
     82          1           0        9.783745   -0.305513   -1.964615
     83          1           0       15.172996   -1.119729    0.597268
     84          1           0        8.472686    2.113465   -0.676729
     85          1           0       -2.568113    4.147217    0.345493
     86          1           0       -2.452930    4.116938   -1.321946
     87          1           0       -4.007936    4.631854   -0.705043
     88          1           0       -2.607876    0.433910   -0.455210
     89          1           0        6.818246   -1.858139    0.782710
     90          1           0        8.431934   -1.867523   -0.326948
     91          1           0        8.455403   -1.339092    1.602829
     92          1           0        6.374783    1.944387   -0.339222
     93          1           0       -0.652058    2.907429   -0.326435
     94          1           0        5.243521   -0.821960    0.141727
     95          1           0       -0.241425   -0.215351   -0.169172
     96          1           0        3.695290    1.907208   -0.337643
     97          1           0        1.704430    2.281154   -0.510048
     98          1           0        1.294094   -1.455429   -0.308726
     99          1           0        3.425695   -1.729737   -0.081826
    100          1           0        2.380556   -1.012356    1.385233
 ---------------------------------------------------------------------

 SCF Done:  E(RCAM-B3LYP) =  -1857.21377583     A.U. after   15 cycles

 Excitation energies and oscillator strengths:

 Excited State   1:      Singlet-A      1.8696 eV  663.17 nm  f=3.0358  <S**2>=0.000
     163 ->166        -0.11825
     164 ->165         0.70492
     164 <-165        -0.12716
 This state for optimization and/or second-order correction.
 Total Energy, E(TD-HF/TD-DFT) =  -1857.14507052
 Copying the excited state density for this state as the 1-particle RhoCI density.

 The electronic state is 1-A.
 Alpha  occ. eigenvalues --  -19.22897 -19.22170 -19.21724 -19.21002 -10.32731
 Alpha  occ. eigenvalues --  -10.32478 -10.32468 -10.32275 -10.30780 -10.29923
 Alpha  occ. eigenvalues --  -10.29486 -10.28953 -10.28904 -10.28573 -10.28391
 Alpha  occ. eigenvalues --  -10.28345 -10.28197 -10.27864 -10.27684 -10.27664
 Alpha  occ. eigenvalues --  -10.27594 -10.27466 -10.27426 -10.27381 -10.27380
 Alpha  occ. eigenvalues --  -10.27312 -10.27274 -10.27165 -10.27142 -10.27075
 Alpha  occ. eigenvalues --  -10.26943 -10.26763 -10.26647 -10.26420 -10.26191
 Alpha  occ. eigenvalues --  -10.26065 -10.26006 -10.25437 -10.25379 -10.25138
 Alpha  occ. eigenvalues --  -10.24753 -10.24582 -10.24175 -10.23801  -1.15450
 Alpha  occ. eigenvalues --   -1.09175  -1.06416  -1.05578  -0.93327  -0.92988
 Alpha  occ. eigenvalues --   -0.92539  -0.91756  -0.90835  -0.90611  -0.87848
 Alpha  occ. eigenvalues --   -0.86184  -0.85905  -0.85524  -0.85126  -0.82851
 Alpha  occ. eigenvalues --   -0.81996  -0.80407  -0.80183  -0.78565  -0.77047
 Alpha  occ. eigenvalues --   -0.76489  -0.76329  -0.75987  -0.75193  -0.74957
 Alpha  occ. eigenvalues --   -0.74602  -0.74204  -0.72827  -0.70252  -0.69415
 Alpha  occ. eigenvalues --   -0.68331  -0.66978  -0.64827  -0.64720  -0.63592
 Alpha  occ. eigenvalues --   -0.63088  -0.61667  -0.60096  -0.59269  -0.58970
 Alpha  occ. eigenvalues --   -0.58321  -0.58166  -0.57458  -0.57145  -0.56360
 Alpha  occ. eigenvalues --   -0.55859  -0.54876  -0.54560  -0.54410  -0.54354
 Alpha  occ. eigenvalues --   -0.53474  -0.52721  -0.52378  -0.52119  -0.51759
 Alpha  occ. eigenvalues --   -0.51192  -0.50996  -0.50613  -0.50338  -0.49971
 Alpha  occ. eigenvalues --   -0.49860  -0.49144  -0.48804  -0.48502  -0.48413
 Alpha  occ. eigenvalues --   -0.47712  -0.47522  -0.47222  -0.47039  -0.46728
 Alpha  occ. eigenvalues --   -0.45996  -0.45757  -0.45517  -0.45265  -0.45156
 Alpha  occ. eigenvalues --   -0.44668  -0.44314  -0.44188  -0.43812  -0.43699
 Alpha  occ. eigenvalues --   -0.43577  -0.42999  -0.42753  -0.42593  -0.42417
 Alpha  occ. eigenvalues --   -0.42058  -0.41641  -0.41510  -0.41358  -0.40977
 Alpha  occ. eigenvalues --   -0.40575  -0.40136  -0.40044  -0.39844  -0.39652
 Alpha  occ. eigenvalues --   -0.39434  -0.39422  -0.39239  -0.38891  -0.38281
 Alpha  occ. eigenvalues --   -0.38173  -0.38001  -0.37633  -0.37435  -0.36676
 Alpha  occ. eigenvalues --   -0.36428  -0.36182  -0.35226  -0.34837  -0.33905
 Alpha  occ. eigenvalues --   -0.32510  -0.32144  -0.32025  -0.31548  -0.31101
 Alpha  occ. eigenvalues --   -0.30297  -0.28140  -0.24903  -0.18872
 Alpha virt. eigenvalues --   -0.07283  -0.01175   0.02873   0.06110   0.06509
 Alpha virt. eigenvalues --    0.06628   0.08929   0.09303   0.10053   0.10662
 Alpha virt. eigenvalues --    0.10817   0.11266   0.11662   0.12388   0.12869

 Mulliken charges:
               1
     1  O   -0.502831
     2  O   -0.561709
     3  O   -0.580912
     4  O   -0.550211
     5  C    0.176349
     6  C    0.287479
     7  C    0.042445
     8  C   -0.202696
     9  C   -0.179619
    10  C    0.141120
    11  C   -0.298347
    12  C   -0.137316
    13  C   -0.303567
    14  C   -0.324666
    15  C   -0.051865
    16  C    0.092115
    17  C   -0.351723
    18  C   -0.108485
    19  C   -0.073270
    20  C    0.020503
    21  C    0.235324
    22  C   -0.167374
    23  C    0.159627
    24  C   -0.180795
    25  C   -0.066638
    26  C   -0.301806
    27  C   -0.303606
    28  C   -0.290785
    29  C   -0.108166
    30  C    0.093743
    31  C    0.062690
    32  C   -0.275198
    33  C   -0.369145
    34  C   -0.118204
    35  C    0.135934
    36  C   -0.354618
    37  C   -0.112016
    38  C   -0.076720
    39  C   -0.084781
    40  C   -0.090052
    41  C   -0.087819
    42  C   -0.130848
    43  C    0.109688
    44  C   -0.342543
    45  H    0.100802
    46  H    0.100496
    47  H    0.117736
    48  H    0.096440
    49  H    0.101566
    50  H    0.052784
    51  H    0.102275
    52  H    0.102609
    53  H    0.113199
    54  H    0.123835
    55  H    0.070096
    56  H    0.075704
    57  H    0.134274
    58  H    0.110817
    59  H    0.093777
    60  H    0.302706
    61  H    0.086196
    62  H    0.103681
    63  H    0.133191
    64  H    0.085769
    65  H    0.071330
    66  H    0.082514
    67  H    0.077762
    68  H    0.083063
    69  H    0.076673
    70  H    0.100964
    71  H    0.107853
    72  H    0.113146
    73  H    0.121762
    74  H    0.084921
    75  H    0.107106
    76  H    0.089284
    77  H    0.104178
    78  H    0.100419
    79  H    0.096810
    80  H    0.140601
    81  H    0.080210
    82  H    0.307804
    83  H    0.304302
    84  H    0.113727
    85  H    0.141951
    86  H    0.137061
    87  H    0.101041
    88  H    0.078712
    89  H    0.098676
    90  H    0.115880
    91  H    0.108998
    92  H    0.066529
    93  H    0.075242
    94  H    0.082445
    95  H    0.080445
    96  H    0.077299
    97  H    0.086009
    98  H    0.083680
    99  H    0.081086
   100  H    0.143878
 Sum of Mulliken charges =  -0.00000

 Dipole moment (field-independent basis, Debye):
    X=              2.2960    Y=              1.2955    Z=              2.9216  Tot=              3.9352
 Quadrupole moment (field-independent basis, Debye-Ang):
   XX=           -270.9838   YY=           -262.8852   ZZ=           -281.8009
   XY=            -13.0023   XZ=             36.3729   YZ=             -4.4104

 Normal termination of Gaussian 16 at Wed Jul 31 23:39:42 2019.
