 Gaussian 16, Revision A.03,
 Gaussian 16:  ES64L-G16RevA.03 25-Dec-2016

 -------------------------------------
 # td=(NStates=1) CAM-B3LYP/6-31G(d,p)
 -------------------------------------

 --
 TD
 --
 Symbolic Z-matrix:
 Charge =  0 Multiplicity = 1

                         Standard orientation:
 ---------------------------------------------------------------------
 Center     Atomic      Atomic             Coordinates (Angstroms)
 Number     Number       Type             X           Y           Z
 ---------------------------------------------------------------------
      1          8           0      -11.639049    0.368335   -1.431638
      2          8           0      -12.838785   -2.605246    1.232404
      3          8           0       10.531141   -0.927451   -2.179984
      4          8           0       14.423358   -1.064482    0.014060
      5          6           0      -11.061592   -0.079389   -0.309515
      6          6           0      -11.645005   -1.082376   -1.368617
      7          6           0      -11.720620    0.351046    0.947386
      8          6           0      -12.907318   -1.699124   -1.077569
      9          6           0      -13.168009   -0.238099    0.881602
     10          6           0      -13.526592   -1.624919    0.357774
     11          6           0      -10.784139   -1.775199   -2.408579
     12          6           0       -9.538019    0.136480   -0.355894
     13          6           0      -11.031947   -0.284524    2.200559
     14          6           0      -11.753526    1.837713    1.055401
     15          6           0       -8.620611   -0.751236    0.196711
     16          6           0       -7.133456   -0.640805    0.140144
     17          6           0       -6.397869   -1.761413    0.713320
     18          6           0       -6.514624    0.653846   -0.102655
     19          6           0       -5.179614    0.895357   -0.003146
     20          6           0       11.815650   -0.040359    1.343308
     21          6           0       11.588629   -0.548951   -1.299618
     22          6           0       12.484830   -1.395551    1.419348
     23          6           0       13.232409   -1.925673    0.215633
     24          6           0       12.450592   -1.845566   -1.014986
     25          6           0       11.010442    0.090154    0.013195
     26          6           0       10.853805    0.210983    2.541888
     27          6           0       12.929565    1.102876    1.357246
     28          6           0       12.533619    0.524302   -1.996464
     29          6           0       -4.632183    2.162189   -0.215924
     30          6           0        9.814081    0.465261    0.006703
     31          6           0       -3.352667    2.583718   -0.313368
     32          6           0        8.606597    0.976212   -0.046760
     33          6           0       -3.028595    4.059202   -0.576749
     34          6           0       -2.300536    1.717749   -0.202479
     35          6           0        7.363826    0.135176   -0.058477
     36          6           0        7.661824   -1.393498    0.045577
     37          6           0        6.197024    0.677094   -0.110913
     38          6           0       -0.926286    1.933885   -0.335802
     39          6           0        4.996701    0.080896   -0.000936
     40          6           0        0.036353    0.996637   -0.170937
     41          6           0        3.765012    0.862250   -0.115088
     42          6           0        1.411016    1.233736   -0.160084
     43          6           0        2.496555    0.347990   -0.027516
     44          6           0        2.233477   -1.175845    0.123047
     45          1           0      -12.806847   -2.648399   -1.239669
     46          1           0      -13.602738   -1.212824   -1.624171
     47          1           0      -13.372699   -0.237406    1.881348
     48          1           0      -13.898851    0.480007    0.119131
     49          1           0      -14.602408   -1.911008    0.519350
     50          1           0      -10.356564   -2.688602   -2.077991
     51          1           0      -11.274885   -1.928225   -3.360273
     52          1           0       -9.586059   -0.995681   -2.524757
     53          1           0       -9.162173    1.045947   -0.883830
     54          1           0      -10.019115    0.144777    2.629972
     55          1           0      -11.748057   -0.119557    2.992921
     56          1           0      -11.070237   -1.391746    2.176184
     57          1           0      -12.289320    2.069185    0.062728
     58          1           0      -12.556838    2.299656    1.822490
     59          1           0      -10.799285    2.231558    1.194630
     60          1           0      -11.794552   -2.469452    1.381878
     61          1           0       -8.944768   -1.644750    0.588591
     62          1           0       -5.677370   -1.938467    0.136721
     63          1           0       -6.060382   -1.569830    1.680964
     64          1           0       -6.873939   -2.636900    0.782089
     65          1           0       -7.152811    1.422382   -0.544206
     66          1           0       -4.500363    0.041390    0.192407
     67          1           0       13.007249   -1.450403    2.297637
     68          1           0       11.561417   -1.937952    1.584351
     69          1           0       13.441926   -2.985613    0.545267
     70          1           0       13.151827   -2.205568   -1.912800
     71          1           0       11.648055   -2.550578   -0.577592
     72          1           0       11.479523    0.218532    3.421557
     73          1           0       10.358421    1.034631    2.675852
     74          1           0       10.213606   -0.687241    2.853178
     75          1           0       13.483199    1.151991    0.409292
     76          1           0       12.375624    2.190065    1.503221
     77          1           0       13.557485    1.038231    2.217669
     78          1           0       12.792794    0.189665   -3.068801
     79          1           0       11.871431    1.200789   -2.159279
     80          1           0       13.496088    0.711150   -1.611411
     81          1           0       -5.222991    3.054352   -0.510035
     82          1           0        9.899185   -0.125248   -2.009709
     83          1           0       14.783652   -0.761299    0.937452
     84          1           0        8.476071    2.270319    0.127666
     85          1           0       -2.225759    4.435589    0.120903
     86          1           0       -2.740691    4.231558   -1.637004
     87          1           0       -3.997172    4.721856   -0.348545
     88          1           0       -2.457043    0.762308    0.004402
     89          1           0        6.604416   -1.867027   -0.132956
     90          1           0        8.458941   -1.666558   -0.721024
     91          1           0        8.009392   -1.452825    1.112681
     92          1           0        6.282965    1.716213   -0.262276
     93          1           0       -0.694984    3.039603   -0.388486
     94          1           0        4.950058   -1.027248    0.386322
     95          1           0       -0.159008   -0.080667   -0.165271
     96          1           0        3.830987    1.985371   -0.216579
     97          1           0        1.659017    2.276721   -0.075384
     98          1           0        1.197480   -1.476610    0.151562
     99          1           0        3.140621   -1.607241   -0.423599
    100          1           0        2.550391   -1.491518    1.165896
 ---------------------------------------------------------------------

 SCF Done:  E(RCAM-B3LYP) =  -1857.23154331     A.U. after   16 cycles

 Excitation energies and oscillator strengths:

 Excited State   1:      Singlet-A      1.9181 eV  646.39 nm  f=3.2047  <S**2>=0.000
     163 ->166        -0.13098
     164 ->165         0.70114
     164 <-165        -0.11816
 This state for optimization and/or second-order correction.
 Total Energy, E(TD-HF/TD-DFT) =  -1857.16105393
 Copying the excited state density for this state as the 1-particle RhoCI density.

 The electronic state is 1-A.
 Alpha  occ. eigenvalues --  -19.22419 -19.21942 -19.21871 -19.20565 -10.32807
 Alpha  occ. eigenvalues --  -10.32550 -10.31909 -10.31735 -10.31538 -10.29361
 Alpha  occ. eigenvalues --  -10.29203 -10.28029 -10.27902 -10.27837 -10.27476
 Alpha  occ. eigenvalues --  -10.27445 -10.27224 -10.27175 -10.26902 -10.26880
 Alpha  occ. eigenvalues --  -10.26699 -10.26682 -10.26625 -10.26623 -10.26571
 Alpha  occ. eigenvalues --  -10.26525 -10.26425 -10.26295 -10.26261 -10.26224
 Alpha  occ. eigenvalues --  -10.26217 -10.26193 -10.25958 -10.25938 -10.25888
 Alpha  occ. eigenvalues --  -10.25863 -10.25615 -10.25082 -10.24474 -10.24197
 Alpha  occ. eigenvalues --  -10.24050 -10.23568 -10.22590 -10.22551  -1.17678
 Alpha  occ. eigenvalues --   -1.09193  -1.07155  -1.05605  -0.93451  -0.92853
 Alpha  occ. eigenvalues --   -0.92340  -0.91618  -0.91046  -0.90337  -0.88823
 Alpha  occ. eigenvalues --   -0.87805  -0.86825  -0.85708  -0.84595  -0.83334
 Alpha  occ. eigenvalues --   -0.82761  -0.81001  -0.80464  -0.78810  -0.77573
 Alpha  occ. eigenvalues --   -0.77254  -0.76872  -0.76715  -0.76345  -0.76178
 Alpha  occ. eigenvalues --   -0.75938  -0.74232  -0.73350  -0.70702  -0.70005
 Alpha  occ. eigenvalues --   -0.68923  -0.67605  -0.65635  -0.65184  -0.64870
 Alpha  occ. eigenvalues --   -0.63291  -0.61558  -0.60781  -0.60221  -0.59665
 Alpha  occ. eigenvalues --   -0.59106  -0.58095  -0.57869  -0.57666  -0.57372
 Alpha  occ. eigenvalues --   -0.56236  -0.55731  -0.55057  -0.54758  -0.54566
 Alpha  occ. eigenvalues --   -0.54344  -0.52980  -0.52894  -0.52372  -0.51755
 Alpha  occ. eigenvalues --   -0.51602  -0.51447  -0.51038  -0.50712  -0.50399
 Alpha  occ. eigenvalues --   -0.49884  -0.49567  -0.49088  -0.48775  -0.48682
 Alpha  occ. eigenvalues --   -0.48523  -0.48342  -0.48117  -0.47807  -0.47202
 Alpha  occ. eigenvalues --   -0.46792  -0.46360  -0.46123  -0.45791  -0.45697
 Alpha  occ. eigenvalues --   -0.45486  -0.45330  -0.44787  -0.44644  -0.43897
 Alpha  occ. eigenvalues --   -0.43677  -0.43418  -0.43405  -0.43115  -0.42870
 Alpha  occ. eigenvalues --   -0.42282  -0.41902  -0.41564  -0.41360  -0.41189
 Alpha  occ. eigenvalues --   -0.41024  -0.40713  -0.40485  -0.40149  -0.39895
 Alpha  occ. eigenvalues --   -0.39611  -0.39582  -0.39228  -0.38799  -0.38678
 Alpha  occ. eigenvalues --   -0.38580  -0.38508  -0.38229  -0.37737  -0.37420
 Alpha  occ. eigenvalues --   -0.36519  -0.36142  -0.35206  -0.34282  -0.33410
 Alpha  occ. eigenvalues --   -0.32945  -0.32301  -0.32213  -0.31793  -0.30623
 Alpha  occ. eigenvalues --   -0.29829  -0.28300  -0.23641  -0.18686
 Alpha virt. eigenvalues --   -0.06837  -0.01294   0.03370   0.05259   0.07524
 Alpha virt. eigenvalues --    0.09067   0.09411   0.09850   0.11181   0.11570
 Alpha virt. eigenvalues --    0.11982   0.12775   0.13049   0.13491   0.13916

 Mulliken charges:
               1
     1  O   -0.495260
     2  O   -0.594420
     3  O   -0.559283
     4  O   -0.570740
     5  C    0.228177
     6  C    0.225721
     7  C    0.017345
     8  C   -0.173395
     9  C   -0.173921
    10  C    0.145656
    11  C   -0.325056
    12  C   -0.125097
    13  C   -0.312023
    14  C   -0.301566
    15  C   -0.063543
    16  C    0.020913
    17  C   -0.359651
    18  C   -0.091511
    19  C   -0.068493
    20  C    0.025788
    21  C    0.233226
    22  C   -0.228247
    23  C    0.180740
    24  C   -0.173514
    25  C   -0.113745
    26  C   -0.312733
    27  C   -0.316232
    28  C   -0.288921
    29  C   -0.116782
    30  C    0.201996
    31  C    0.100585
    32  C   -0.291307
    33  C   -0.378782
    34  C   -0.091290
    35  C    0.054287
    36  C   -0.355041
    37  C   -0.028399
    38  C   -0.081651
    39  C   -0.140807
    40  C   -0.079926
    41  C   -0.132116
    42  C   -0.135127
    43  C    0.135257
    44  C   -0.379196
    45  H    0.112497
    46  H    0.121418
    47  H    0.101432
    48  H    0.064600
    49  H    0.118815
    50  H    0.126671
    51  H    0.125705
    52  H    0.070837
    53  H    0.101879
    54  H    0.111958
    55  H    0.113337
    56  H    0.059975
    57  H    0.121682
    58  H    0.091559
    59  H    0.116916
    60  H    0.310507
    61  H    0.065427
    62  H    0.130032
    63  H    0.135222
    64  H    0.110464
    65  H    0.084421
    66  H    0.092081
    67  H    0.096877
    68  H    0.105035
    69  H    0.093312
    70  H    0.115394
    71  H    0.094927
    72  H    0.093000
    73  H    0.124984
    74  H    0.092568
    75  H    0.134210
    76  H    0.070145
    77  H    0.095233
    78  H    0.089864
    79  H    0.094439
    80  H    0.137160
    81  H    0.068268
    82  H    0.310927
    83  H    0.305366
    84  H    0.089334
    85  H    0.123510
    86  H    0.132587
    87  H    0.091433
    88  H    0.055281
    89  H    0.091755
    90  H    0.137965
    91  H    0.123666
    92  H    0.074329
    93  H    0.072033
    94  H    0.092040
    95  H    0.072898
    96  H    0.091092
    97  H    0.071932
    98  H    0.121020
    99  H    0.122319
   100  H    0.115741
 Sum of Mulliken charges =  -0.00000

 Dipole moment (field-independent basis, Debye):
    X=              0.3236    Y=              0.1646    Z=              3.5264  Tot=              3.5450
 Quadrupole moment (field-independent basis, Debye-Ang):
   XX=           -278.6492   YY=           -263.0944   ZZ=           -275.7032
   XY=              5.8033   XZ=             41.0236   YZ=             -1.8596

 Normal termination of Gaussian 16 at Mon Jul 29 16:46:50 2019.
