 Gaussian 16, Revision A.03,
 Gaussian 16:  ES64L-G16RevA.03 25-Dec-2016

 -------------------------------------
 # td=(NStates=1) CAM-B3LYP/6-31G(d,p)
 -------------------------------------

 --
 TD
 --
 Symbolic Z-matrix:
 Charge =  0 Multiplicity = 1

                         Standard orientation:
 ---------------------------------------------------------------------
 Center     Atomic      Atomic             Coordinates (Angstroms)
 Number     Number       Type             X           Y           Z
 ---------------------------------------------------------------------
      1          8           0      -11.853036    0.299452   -1.422879
      2          8           0      -12.796790   -2.681437    1.373339
      3          8           0       10.612488   -0.661756   -2.164315
      4          8           0       14.508022   -1.067100   -0.110264
      5          6           0      -11.001751   -0.127010   -0.228680
      6          6           0      -11.560803   -1.115782   -1.189480
      7          6           0      -11.715064    0.195614    1.140913
      8          6           0      -12.905313   -1.867875   -0.921121
      9          6           0      -13.180134   -0.195716    1.079198
     10          6           0      -13.417056   -1.636902    0.522277
     11          6           0      -10.842659   -1.749264   -2.421943
     12          6           0       -9.595097    0.200241   -0.439906
     13          6           0      -10.897589   -0.396413    2.234011
     14          6           0      -11.686154    1.725278    1.270690
     15          6           0       -8.637918   -0.674033    0.076663
     16          6           0       -7.215394   -0.460889   -0.106481
     17          6           0       -6.239977   -1.529648    0.196061
     18          6           0       -6.722480    0.787869   -0.290496
     19          6           0       -5.222727    1.088090   -0.376785
     20          6           0       11.817344   -0.196273    1.442167
     21          6           0       11.639212   -0.423517   -1.170919
     22          6           0       12.480925   -1.510376    1.393936
     23          6           0       13.422606   -1.833140    0.111729
     24          6           0       12.494005   -1.710740   -1.131792
     25          6           0       10.950059    0.011876    0.144341
     26          6           0       10.875516   -0.121831    2.648277
     27          6           0       12.872543    0.925960    1.624897
     28          6           0       12.473823    0.795879   -1.727051
     29          6           0       -4.650575    2.330249   -0.309293
     30          6           0        9.732976    0.552497    0.236312
     31          6           0       -3.328860    2.741340   -0.292455
     32          6           0        8.606465    0.935184   -0.093497
     33          6           0       -2.954359    4.111226   -0.332230
     34          6           0       -2.313347    1.706466   -0.369817
     35          6           0        7.348689    0.105285   -0.099425
     36          6           0        7.544688   -1.415378   -0.088297
     37          6           0        6.165610    0.753915   -0.152438
     38          6           0       -0.960435    1.952581   -0.236164
     39          6           0        4.881171    0.080133   -0.023802
     40          6           0       -0.076052    0.972095   -0.112613
     41          6           0        3.651622    0.831372   -0.100723
     42          6           0        1.396706    1.258021   -0.055447
     43          6           0        2.351109    0.326424   -0.073405
     44          6           0        2.287988   -1.226261   -0.040387
     45          1           0      -12.591674   -3.065151   -1.032593
     46          1           0      -13.588757   -1.515169   -1.759850
     47          1           0      -13.730657   -0.167029    2.065835
     48          1           0      -13.843285    0.595688    0.533955
     49          1           0      -14.550909   -1.985480    0.503629
     50          1           0      -10.341625   -2.570432   -2.184719
     51          1           0      -11.497257   -2.043918   -3.183364
     52          1           0      -10.063649   -1.229168   -2.803887
     53          1           0       -9.494493    1.114162   -1.038106
     54          1           0       -9.811235   -0.279373    2.338728
     55          1           0      -11.343810   -0.260511    3.184217
     56          1           0      -10.965096   -1.494840    2.369053
     57          1           0      -12.136731    2.414757    0.483746
     58          1           0      -12.078263    2.149948    2.126172
     59          1           0      -10.839456    2.026175    1.130801
     60          1           0      -11.991606   -2.636049    0.940971
     61          1           0       -8.993932   -1.820381    0.210425
     62          1           0       -5.200958   -1.374154   -0.486891
     63          1           0       -5.797121   -1.717514    1.490080
     64          1           0       -6.834325   -2.660074   -0.141555
     65          1           0       -7.247572    1.642954   -0.381807
     66          1           0       -4.532126    0.228423   -0.397240
     67          1           0       13.079691   -1.792859    2.287795
     68          1           0       11.900882   -2.402303    1.508875
     69          1           0       13.800245   -2.984507    0.089099
     70          1           0       13.322699   -1.677902   -2.019571
     71          1           0       11.757236   -2.618844   -1.206060
     72          1           0       11.632642   -0.353097    3.552513
     73          1           0       10.335180    0.824403    2.726985
     74          1           0       10.288517   -0.822318    2.521042
     75          1           0       13.775718    0.763196    0.886090
     76          1           0       12.384805    1.725237    1.549164
     77          1           0       13.302789    0.969832    2.766830
     78          1           0       13.109501    0.494290   -2.791814
     79          1           0       11.816230    1.543240   -2.067843
     80          1           0       13.352184    1.142960   -1.126208
     81          1           0       -5.434273    2.948257   -0.455832
     82          1           0       10.257997    0.072394   -2.398577
     83          1           0       15.365290   -1.507859    0.580713
     84          1           0        8.300693    2.018648   -0.032025
     85          1           0       -2.524435    4.595284    0.687623
     86          1           0       -2.126594    4.374638   -0.903378
     87          1           0       -3.936071    4.702740   -0.576316
     88          1           0       -2.619001    0.658828   -0.382699
     89          1           0        6.673715   -2.023191   -0.482334
     90          1           0        8.522618   -1.555333   -0.601997
     91          1           0        7.717248   -1.732819    1.019092
     92          1           0        6.248654    1.924459   -0.291484
     93          1           0       -0.502926    3.031368   -0.094499
     94          1           0        4.808409   -0.947069    0.264003
     95          1           0       -0.349684   -0.101889   -0.272853
     96          1           0        3.749969    1.968395   -0.313260
     97          1           0        1.652381    2.293841   -0.023312
     98          1           0        1.294942   -1.404770    0.319504
     99          1           0        2.204072   -1.679520   -1.068577
    100          1           0        3.331861   -2.093147    0.553718
 ---------------------------------------------------------------------

 SCF Done:  E(RCAM-B3LYP) =  -1857.11648883     A.U. after   15 cycles

 Excitation energies and oscillator strengths:

 Excited State   1:      Singlet-A      2.3342 eV  531.16 nm  f=2.6857  <S**2>=0.000
     163 ->166         0.14068
     164 ->165         0.68774
 This state for optimization and/or second-order correction.
 Total Energy, E(TD-HF/TD-DFT) =  -1857.03070782
 Copying the excited state density for this state as the 1-particle RhoCI density.

 The electronic state is 1-A.
 Alpha  occ. eigenvalues --  -19.24569 -19.21101 -19.20781 -19.19566 -10.32807
 Alpha  occ. eigenvalues --  -10.32441 -10.32407 -10.32354 -10.31931 -10.31350
 Alpha  occ. eigenvalues --  -10.29599 -10.29109 -10.28697 -10.27936 -10.27931
 Alpha  occ. eigenvalues --  -10.27813 -10.27769 -10.27646 -10.27313 -10.27276
 Alpha  occ. eigenvalues --  -10.27176 -10.27032 -10.27023 -10.26989 -10.26911
 Alpha  occ. eigenvalues --  -10.26887 -10.26792 -10.26788 -10.26785 -10.26776
 Alpha  occ. eigenvalues --  -10.26752 -10.26672 -10.26650 -10.26463 -10.26076
 Alpha  occ. eigenvalues --  -10.25880 -10.25680 -10.25543 -10.25012 -10.23868
 Alpha  occ. eigenvalues --  -10.23834 -10.23316 -10.23276 -10.22172  -1.11583
 Alpha  occ. eigenvalues --   -1.11303  -1.10940  -1.09736  -0.93094  -0.92747
 Alpha  occ. eigenvalues --   -0.92207  -0.91700  -0.90876  -0.90333  -0.87933
 Alpha  occ. eigenvalues --   -0.85746  -0.85493  -0.85177  -0.84933  -0.82711
 Alpha  occ. eigenvalues --   -0.81395  -0.81180  -0.79646  -0.78192  -0.77896
 Alpha  occ. eigenvalues --   -0.76528  -0.76459  -0.75945  -0.75887  -0.75418
 Alpha  occ. eigenvalues --   -0.75084  -0.74355  -0.73459  -0.70203  -0.69479
 Alpha  occ. eigenvalues --   -0.68555  -0.66922  -0.65532  -0.64849  -0.64202
 Alpha  occ. eigenvalues --   -0.63014  -0.61628  -0.61126  -0.59587  -0.59357
 Alpha  occ. eigenvalues --   -0.58700  -0.58383  -0.57637  -0.56979  -0.56249
 Alpha  occ. eigenvalues --   -0.55895  -0.55152  -0.55071  -0.54722  -0.54059
 Alpha  occ. eigenvalues --   -0.53235  -0.53156  -0.52576  -0.52287  -0.51634
 Alpha  occ. eigenvalues --   -0.51444  -0.51052  -0.50605  -0.49949  -0.49348
 Alpha  occ. eigenvalues --   -0.49282  -0.48946  -0.48527  -0.48141  -0.47519
 Alpha  occ. eigenvalues --   -0.47461  -0.47301  -0.47232  -0.47061  -0.46634
 Alpha  occ. eigenvalues --   -0.46485  -0.46285  -0.45862  -0.45466  -0.45262
 Alpha  occ. eigenvalues --   -0.45031  -0.44365  -0.44085  -0.43771  -0.43219
 Alpha  occ. eigenvalues --   -0.43164  -0.42832  -0.42647  -0.42440  -0.42275
 Alpha  occ. eigenvalues --   -0.42237  -0.41601  -0.41565  -0.41324  -0.41315
 Alpha  occ. eigenvalues --   -0.40598  -0.40314  -0.39922  -0.39698  -0.39669
 Alpha  occ. eigenvalues --   -0.39529  -0.39477  -0.39204  -0.39042  -0.38670
 Alpha  occ. eigenvalues --   -0.38567  -0.38306  -0.37688  -0.37279  -0.37020
 Alpha  occ. eigenvalues --   -0.36772  -0.35764  -0.35582  -0.35081  -0.34305
 Alpha  occ. eigenvalues --   -0.32818  -0.32216  -0.31827  -0.31180  -0.31014
 Alpha  occ. eigenvalues --   -0.28781  -0.28197  -0.24558  -0.20525
 Alpha virt. eigenvalues --   -0.05707  -0.01052   0.01975   0.04818   0.05124
 Alpha virt. eigenvalues --    0.05749   0.07274   0.08280   0.10194   0.10830
 Alpha virt. eigenvalues --    0.11440   0.12325   0.12595   0.12848   0.13373

 Mulliken charges:
               1
     1  O   -0.527593
     2  O   -0.530128
     3  O   -0.534826
     4  O   -0.514054
     5  C    0.170936
     6  C    0.215780
     7  C    0.037277
     8  C   -0.215864
     9  C   -0.174757
    10  C    0.121558
    11  C   -0.325489
    12  C   -0.091344
    13  C   -0.341071
    14  C   -0.295590
    15  C   -0.109118
    16  C    0.104628
    17  C   -0.309917
    18  C   -0.077571
    19  C   -0.087076
    20  C   -0.019935
    21  C    0.240742
    22  C   -0.188481
    23  C    0.154349
    24  C   -0.180405
    25  C    0.012030
    26  C   -0.270753
    27  C   -0.275002
    28  C   -0.304905
    29  C   -0.115926
    30  C    0.125335
    31  C    0.142882
    32  C   -0.308070
    33  C   -0.387742
    34  C   -0.128830
    35  C    0.126135
    36  C   -0.374201
    37  C   -0.124189
    38  C   -0.055314
    39  C   -0.090685
    40  C   -0.096106
    41  C   -0.132934
    42  C   -0.143913
    43  C    0.148513
    44  C   -0.342257
    45  H    0.083230
    46  H    0.127764
    47  H    0.106926
    48  H    0.112769
    49  H    0.087482
    50  H    0.109630
    51  H    0.120263
    52  H    0.120791
    53  H    0.130414
    54  H    0.123425
    55  H    0.110704
    56  H    0.104244
    57  H    0.098260
    58  H    0.108817
    59  H    0.101586
    60  H    0.296830
    61  H    0.089868
    62  H    0.103601
    63  H    0.080866
    64  H    0.057328
    65  H    0.079296
    66  H    0.059047
    67  H    0.072875
    68  H    0.097521
    69  H    0.049901
    70  H    0.101750
    71  H    0.110945
    72  H    0.071752
    73  H    0.107781
    74  H    0.110523
    75  H    0.119349
    76  H    0.108235
    77  H    0.060417
    78  H    0.067141
    79  H    0.101935
    80  H    0.128342
    81  H    0.066002
    82  H    0.281587
    83  H    0.314857
    84  H    0.097264
    85  H    0.101482
    86  H    0.138637
    87  H    0.104258
    88  H    0.086370
    89  H    0.109072
    90  H    0.143418
    91  H    0.106912
    92  H    0.076058
    93  H    0.080208
    94  H    0.078746
    95  H    0.083029
    96  H    0.072873
    97  H    0.089913
    98  H    0.117229
    99  H    0.134124
   100  H    0.070230
 Sum of Mulliken charges =  -0.00000

 Dipole moment (field-independent basis, Debye):
    X=              3.2247    Y=              0.1394    Z=              0.6508  Tot=              3.2926
 Quadrupole moment (field-independent basis, Debye-Ang):
   XX=           -270.2670   YY=           -258.4618   ZZ=           -281.2767
   XY=            -18.5754   XZ=             26.2334   YZ=              0.7986

 Normal termination of Gaussian 16 at Mon Jul 29 16:33:27 2019.
