 Gaussian 16, Revision A.03,
 Gaussian 16:  ES64L-G16RevA.03 25-Dec-2016

 -------------------------------------
 # td=(NStates=1) CAM-B3LYP/6-31G(d,p)
 -------------------------------------

 --
 TD
 --
 Symbolic Z-matrix:
 Charge =  0 Multiplicity = 1

                         Standard orientation:
 ---------------------------------------------------------------------
 Center     Atomic      Atomic             Coordinates (Angstroms)
 Number     Number       Type             X           Y           Z
 ---------------------------------------------------------------------
      1          8           0      -11.735809   -0.097937   -1.666572
      2          8           0      -13.022335   -2.391875    1.603101
      3          8           0       10.537117   -1.373282   -2.002507
      4          8           0       14.472908   -1.086421   -0.050350
      5          6           0      -11.068774   -0.188425   -0.304376
      6          6           0      -11.587959   -1.431038   -1.107168
      7          6           0      -11.923371    0.313238    0.774149
      8          6           0      -12.955557   -2.005599   -0.783894
      9          6           0      -13.351069   -0.155061    0.668285
     10          6           0      -13.597193   -1.659986    0.579977
     11          6           0      -10.658842   -2.130836   -1.998000
     12          6           0       -9.676570    0.163612   -0.376535
     13          6           0      -11.330385   -0.022514    2.170572
     14          6           0      -11.897240    1.920067    0.678758
     15          6           0       -8.625600   -0.641779    0.023782
     16          6           0       -7.215169   -0.470656    0.144657
     17          6           0       -6.312027   -1.674189    0.415634
     18          6           0       -6.623522    0.752160   -0.103701
     19          6           0       -5.249038    1.042956   -0.175285
     20          6           0       11.932632    0.115385    1.251791
     21          6           0       11.682276   -0.899905   -1.210159
     22          6           0       12.653230   -1.115009    1.564396
     23          6           0       13.390218   -1.851346    0.435432
     24          6           0       12.424782   -2.123174   -0.727933
     25          6           0       11.105571   -0.136665   -0.007659
     26          6           0       10.968598    0.584673    2.396781
     27          6           0       12.973449    1.351634    1.040537
     28          6           0       12.518253    0.036781   -2.116344
     29          6           0       -4.652817    2.376615   -0.359854
     30          6           0        9.949124    0.553262   -0.201098
     31          6           0       -3.303560    2.729012   -0.423500
     32          6           0        8.764105    0.940943   -0.430650
     33          6           0       -2.999356    4.143964   -0.826501
     34          6           0       -2.290238    1.732740   -0.131244
     35          6           0        7.528573    0.192021   -0.024931
     36          6           0        7.664019   -1.132936    0.627456
     37          6           0        6.274618    0.737373   -0.248542
     38          6           0       -1.000158    2.045635   -0.157856
     39          6           0        4.976366    0.137794    0.019639
     40          6           0        0.059895    1.032768    0.085037
     41          6           0        3.837374    0.799767   -0.160952
     42          6           0        1.457598    1.294319   -0.184337
     43          6           0        2.477811    0.328915    0.008307
     44          6           0        2.288303   -1.126963    0.413190
     45          1           0      -12.989987   -3.076351   -0.870788
     46          1           0      -13.673646   -1.529680   -1.613923
     47          1           0      -13.888194    0.263574    1.572598
     48          1           0      -13.790855    0.347914   -0.101828
     49          1           0      -14.605313   -1.987795    0.597219
     50          1           0      -10.141546   -2.990762   -1.456579
     51          1           0      -11.311242   -2.605435   -2.844837
     52          1           0      -10.093208   -1.433149   -2.441985
     53          1           0       -9.621417    1.293941   -0.738923
     54          1           0      -10.277010    0.437300    2.286952
     55          1           0      -11.952786    0.659845    2.829596
     56          1           0      -11.454689   -1.124791    2.255950
     57          1           0      -12.260762    2.271235   -0.205313
     58          1           0      -12.356230    2.380686    1.759500
     59          1           0      -10.757620    2.221960    0.775650
     60          1           0      -12.077964   -2.603443    1.162355
     61          1           0       -8.880118   -1.666401    0.307628
     62          1           0       -5.672249   -1.933004   -0.337686
     63          1           0       -5.830082   -1.492622    1.407193
     64          1           0       -7.239208   -2.597498    0.453000
     65          1           0       -7.310806    1.484475   -0.109878
     66          1           0       -4.578281    0.288343   -0.106762
     67          1           0       13.380099   -1.148681    2.244207
     68          1           0       11.981808   -1.858031    2.257555
     69          1           0       13.547627   -2.948760    0.713524
     70          1           0       13.038896   -2.454097   -1.550841
     71          1           0       11.466397   -2.922683   -0.323473
     72          1           0       11.679687    0.736136    3.328164
     73          1           0       10.550481    1.540316    2.019444
     74          1           0       10.470369   -0.382449    2.722272
     75          1           0       13.905628    0.987771    0.426470
     76          1           0       12.385992    2.171151    0.515530
     77          1           0       13.346655    1.646276    2.166085
     78          1           0       12.909800   -0.579687   -3.042359
     79          1           0       11.941332    0.781713   -2.550521
     80          1           0       13.266537    0.583214   -1.572683
     81          1           0       -5.356378    3.209774   -0.414572
     82          1           0       10.222264   -0.571524   -2.239594
     83          1           0       15.218999   -0.769183    0.716274
     84          1           0        8.497904    1.952400   -0.837241
     85          1           0       -2.536972    4.789584   -0.135071
     86          1           0       -2.417039    4.307995   -1.680266
     87          1           0       -3.911600    4.779495   -0.909788
     88          1           0       -2.644237    0.695871    0.050051
     89          1           0        6.895115   -1.714241    0.659667
     90          1           0        8.415701   -1.521721   -0.066068
     91          1           0        8.220062   -1.142928    1.768580
     92          1           0        6.008408    1.574325   -0.731310
     93          1           0       -0.801842    2.963933   -0.558708
     94          1           0        5.117831   -0.748205    0.523898
     95          1           0       -0.016554   -0.084246    0.506646
     96          1           0        3.971342    1.964161   -0.551844
     97          1           0        1.556707    2.207569   -0.451693
     98          1           0        1.313249   -1.397248    0.401723
     99          1           0        2.984610   -1.764910   -0.144013
    100          1           0        2.489185   -1.252614    1.664270
 ---------------------------------------------------------------------

 SCF Done:  E(RCAM-B3LYP) =  -1857.23945655     A.U. after   16 cycles

 Excitation energies and oscillator strengths:

 Excited State   1:      Singlet-A      1.8099 eV  685.04 nm  f=2.7476  <S**2>=0.000
     163 ->166         0.10672
     164 ->165         0.71187
     164 <-165        -0.14942
 This state for optimization and/or second-order correction.
 Total Energy, E(TD-HF/TD-DFT) =  -1857.17294474
 Copying the excited state density for this state as the 1-particle RhoCI density.

 The electronic state is 1-A.
 Alpha  occ. eigenvalues --  -19.24547 -19.22404 -19.20685 -19.20120 -10.32198
 Alpha  occ. eigenvalues --  -10.31982 -10.31570 -10.31272 -10.30000 -10.29122
 Alpha  occ. eigenvalues --  -10.29001 -10.28414 -10.28310 -10.28024 -10.27804
 Alpha  occ. eigenvalues --  -10.27565 -10.27500 -10.27494 -10.27341 -10.27241
 Alpha  occ. eigenvalues --  -10.27164 -10.27102 -10.27094 -10.26847 -10.26828
 Alpha  occ. eigenvalues --  -10.26809 -10.26796 -10.26704 -10.26693 -10.26596
 Alpha  occ. eigenvalues --  -10.26290 -10.26266 -10.26013 -10.25966 -10.25720
 Alpha  occ. eigenvalues --  -10.25434 -10.25339 -10.25070 -10.25056 -10.25053
 Alpha  occ. eigenvalues --  -10.24850 -10.24755 -10.24522 -10.23528  -1.11755
 Alpha  occ. eigenvalues --   -1.10464  -1.10342  -1.09568  -0.93322  -0.92261
 Alpha  occ. eigenvalues --   -0.91812  -0.91269  -0.90475  -0.90116  -0.87266
 Alpha  occ. eigenvalues --   -0.86238  -0.86154  -0.85596  -0.84438  -0.83471
 Alpha  occ. eigenvalues --   -0.81949  -0.81174  -0.80413  -0.79774  -0.77163
 Alpha  occ. eigenvalues --   -0.76931  -0.76542  -0.76149  -0.76085  -0.74722
 Alpha  occ. eigenvalues --   -0.74315  -0.74277  -0.72665  -0.70860  -0.70058
 Alpha  occ. eigenvalues --   -0.69154  -0.67245  -0.65482  -0.65203  -0.63875
 Alpha  occ. eigenvalues --   -0.63147  -0.62413  -0.61804  -0.61066  -0.59624
 Alpha  occ. eigenvalues --   -0.59386  -0.58292  -0.58027  -0.57046  -0.56758
 Alpha  occ. eigenvalues --   -0.56306  -0.55500  -0.54805  -0.54608  -0.54128
 Alpha  occ. eigenvalues --   -0.53783  -0.53615  -0.53213  -0.52546  -0.51553
 Alpha  occ. eigenvalues --   -0.51466  -0.51060  -0.50760  -0.50279  -0.50138
 Alpha  occ. eigenvalues --   -0.49983  -0.49488  -0.48872  -0.48800  -0.48435
 Alpha  occ. eigenvalues --   -0.48415  -0.47853  -0.47341  -0.46976  -0.46628
 Alpha  occ. eigenvalues --   -0.46471  -0.46151  -0.45802  -0.45395  -0.45136
 Alpha  occ. eigenvalues --   -0.44929  -0.44681  -0.44480  -0.43867  -0.43621
 Alpha  occ. eigenvalues --   -0.43480  -0.43365  -0.42945  -0.42902  -0.42799
 Alpha  occ. eigenvalues --   -0.42644  -0.42017  -0.41574  -0.41113  -0.41028
 Alpha  occ. eigenvalues --   -0.40720  -0.40478  -0.40289  -0.39863  -0.39776
 Alpha  occ. eigenvalues --   -0.39562  -0.39317  -0.39245  -0.38785  -0.38741
 Alpha  occ. eigenvalues --   -0.38603  -0.38465  -0.38009  -0.37231  -0.37097
 Alpha  occ. eigenvalues --   -0.36524  -0.36388  -0.35403  -0.34429  -0.33466
 Alpha  occ. eigenvalues --   -0.33453  -0.32615  -0.32024  -0.31418  -0.30032
 Alpha  occ. eigenvalues --   -0.29139  -0.27851  -0.24746  -0.18676
 Alpha virt. eigenvalues --   -0.07529  -0.00478   0.02935   0.04422   0.06632
 Alpha virt. eigenvalues --    0.06835   0.08166   0.10367   0.11113   0.11437
 Alpha virt. eigenvalues --    0.11523   0.11646   0.12554   0.12740   0.13407

 Mulliken charges:
               1
     1  O   -0.530265
     2  O   -0.525789
     3  O   -0.540465
     4  O   -0.551352
     5  C    0.228834
     6  C    0.211477
     7  C   -0.010422
     8  C   -0.249732
     9  C   -0.168149
    10  C    0.162179
    11  C   -0.305807
    12  C   -0.123379
    13  C   -0.280655
    14  C   -0.303117
    15  C   -0.073646
    16  C    0.056633
    17  C   -0.347573
    18  C   -0.067384
    19  C   -0.078018
    20  C    0.007893
    21  C    0.214357
    22  C   -0.173863
    23  C    0.158685
    24  C   -0.169898
    25  C    0.011604
    26  C   -0.286528
    27  C   -0.299247
    28  C   -0.299985
    29  C   -0.133028
    30  C    0.105070
    31  C    0.090635
    32  C   -0.291900
    33  C   -0.404262
    34  C   -0.070849
    35  C    0.100436
    36  C   -0.351032
    37  C   -0.104624
    38  C   -0.098914
    39  C   -0.071841
    40  C   -0.108925
    41  C   -0.116850
    42  C   -0.067756
    43  C    0.086607
    44  C   -0.347976
    45  H    0.097976
    46  H    0.119015
    47  H    0.080920
    48  H    0.115682
    49  H    0.098755
    50  H    0.086710
    51  H    0.093361
    52  H    0.145950
    53  H    0.104129
    54  H    0.095438
    55  H    0.094320
    56  H    0.102703
    57  H    0.129337
    58  H    0.073635
    59  H    0.084800
    60  H    0.307339
    61  H    0.065452
    62  H    0.141758
    63  H    0.130371
    64  H    0.054798
    65  H    0.069415
    66  H    0.067531
    67  H    0.089846
    68  H    0.064642
    69  H    0.085642
    70  H    0.112215
    71  H    0.091545
    72  H    0.077286
    73  H    0.125633
    74  H    0.108372
    75  H    0.107764
    76  H    0.103863
    77  H    0.077699
    78  H    0.100602
    79  H    0.099515
    80  H    0.126668
    81  H    0.081107
    82  H    0.292245
    83  H    0.318724
    84  H    0.106229
    85  H    0.129170
    86  H    0.134194
    87  H    0.111064
    88  H    0.090660
    89  H    0.115515
    90  H    0.141029
    91  H    0.085808
    92  H    0.056935
    93  H    0.089775
    94  H    0.076917
    95  H    0.076168
    96  H    0.070872
    97  H    0.064307
    98  H    0.121575
    99  H    0.134182
   100  H    0.091656
 Sum of Mulliken charges =  -0.00000

 Dipole moment (field-independent basis, Debye):
    X=              6.2204    Y=              0.7585    Z=              1.4753  Tot=              6.4378
 Quadrupole moment (field-independent basis, Debye-Ang):
   XX=           -260.6045   YY=           -258.3936   ZZ=           -281.9493
   XY=              6.2444   XZ=             33.0298   YZ=             -5.8243

 Normal termination of Gaussian 16 at Tue Jul 30 16:22:51 2019.
