 Gaussian 16, Revision A.03,
 Gaussian 16:  ES64L-G16RevA.03 25-Dec-2016

 -------------------------------------
 # td=(NStates=1) CAM-B3LYP/6-31G(d,p)
 -------------------------------------

 --
 TD
 --
 Symbolic Z-matrix:
 Charge =  0 Multiplicity = 1

                         Standard orientation:
 ---------------------------------------------------------------------
 Center     Atomic      Atomic             Coordinates (Angstroms)
 Number     Number       Type             X           Y           Z
 ---------------------------------------------------------------------
      1          8           0      -11.656900    0.300976   -1.383870
      2          8           0      -12.898868   -2.539152    1.342954
      3          8           0       10.608310   -1.040716   -1.941606
      4          8           0       14.533054   -0.984048   -0.113652
      5          6           0      -11.024554   -0.112570   -0.270566
      6          6           0      -11.581454   -1.145073   -1.310539
      7          6           0      -11.787827    0.358793    0.896280
      8          6           0      -12.949398   -1.768852   -0.996444
      9          6           0      -13.261891   -0.051498    0.856118
     10          6           0      -13.467492   -1.492132    0.441597
     11          6           0      -10.773749   -1.938722   -2.226625
     12          6           0       -9.483929    0.140715   -0.302941
     13          6           0      -11.177706   -0.120477    2.178256
     14          6           0      -11.753871    1.901875    0.930155
     15          6           0       -8.615611   -0.701866    0.144840
     16          6           0       -7.157518   -0.554089    0.128543
     17          6           0       -6.379587   -1.798658    0.438404
     18          6           0       -6.559946    0.629413   -0.068761
     19          6           0       -5.259099    0.890501   -0.038145
     20          6           0       11.906735    0.157418    1.352809
     21          6           0       11.654542   -0.553928   -1.222017
     22          6           0       12.566970   -1.163605    1.594647
     23          6           0       13.401080   -1.752167    0.294703
     24          6           0       12.426094   -1.873539   -0.773244
     25          6           0       11.037653    0.030113    0.055010
     26          6           0       10.988205    0.270146    2.607918
     27          6           0       12.889627    1.319264    1.246060
     28          6           0       12.547817    0.282390   -2.016608
     29          6           0       -4.771715    2.194245   -0.178485
     30          6           0        9.884791    0.466656   -0.027627
     31          6           0       -3.451160    2.626973   -0.307247
     32          6           0        8.688477    0.927784   -0.221702
     33          6           0       -3.111028    4.004000   -0.789498
     34          6           0       -2.369568    1.649589   -0.169748
     35          6           0        7.437288    0.085972   -0.054455
     36          6           0        7.706065   -1.405337    0.205545
     37          6           0        6.250151    0.746612   -0.240672
     38          6           0       -0.949269    1.918152   -0.284232
     39          6           0        4.847799    0.005593   -0.132674
     40          6           0       -0.071067    0.930591   -0.146981
     41          6           0        3.700837    0.748010   -0.176946
     42          6           0        1.332153    1.154990   -0.308809
     43          6           0        2.423035    0.254478   -0.110864
     44          6           0        2.291968   -1.141365    0.306299
     45          1           0      -12.843839   -2.903040   -1.053022
     46          1           0      -13.586117   -1.446734   -1.614290
     47          1           0      -13.724898    0.093944    1.905236
     48          1           0      -13.700692    0.568750    0.180805
     49          1           0      -14.564917   -1.847442    0.664032
     50          1           0      -10.562079   -2.957354   -1.854328
     51          1           0      -11.298695   -2.079854   -3.132089
     52          1           0       -9.860425   -1.421241   -2.327986
     53          1           0       -9.422547    1.198270   -0.713446
     54          1           0      -10.078422    0.035499    2.077004
     55          1           0      -11.578620    0.481940    3.142051
     56          1           0      -11.314454   -1.236585    2.279182
     57          1           0      -12.156061    2.434675    0.038851
     58          1           0      -12.224424    2.226817    1.979105
     59          1           0      -10.754532    2.368817    1.123757
     60          1           0      -12.065476   -2.856818    0.860034
     61          1           0       -8.889877   -1.788727    0.472877
     62          1           0       -5.854960   -2.147595   -0.392435
     63          1           0       -5.788080   -1.763977    1.365273
     64          1           0       -7.130719   -2.724153    0.597599
     65          1           0       -7.287735    1.366788   -0.265253
     66          1           0       -4.536660    0.087040    0.447332
     67          1           0       13.362964   -1.073959    2.398108
     68          1           0       12.023534   -2.019752    1.802518
     69          1           0       13.637475   -2.803794    0.670855
     70          1           0       12.996193   -2.293070   -1.573395
     71          1           0       11.911203   -2.667236   -0.438442
     72          1           0       11.514321    0.183536    3.379178
     73          1           0       10.453786    1.124995    2.602839
     74          1           0       10.082278   -0.467654    2.510688
     75          1           0       13.771144    1.040298    0.429063
     76          1           0       12.549403    2.445445    0.874869
     77          1           0       13.221460    1.449288    2.325910
     78          1           0       12.699168   -0.192766   -3.049898
     79          1           0       12.284284    1.486411   -2.333063
     80          1           0       13.700223    0.495296   -1.861062
     81          1           0       -5.539329    2.890445   -0.347633
     82          1           0       10.446841   -0.175550   -2.398652
     83          1           0       15.318022   -1.022292    0.633857
     84          1           0        8.341422    1.940661   -0.482263
     85          1           0       -2.422915    4.782546   -0.048106
     86          1           0       -2.720907    4.005472   -1.869519
     87          1           0       -3.994790    4.712282   -0.837314
     88          1           0       -2.561562    0.630595    0.089179
     89          1           0        6.802347   -2.158228    0.066892
     90          1           0        8.446233   -1.562162   -0.398409
     91          1           0        7.913726   -1.594861    1.314426
     92          1           0        6.293214    1.697380   -0.231823
     93          1           0       -0.632084    2.792767   -0.578491
     94          1           0        4.907469   -1.038458    0.014379
     95          1           0       -0.391732   -0.033765   -0.150840
     96          1           0        3.762081    1.801484   -0.310562
     97          1           0        1.626375    2.174474   -0.406981
     98          1           0        1.227555   -1.452145    0.551661
     99          1           0        2.499245   -1.857551   -0.501953
    100          1           0        2.867735   -1.548000    1.334969
 ---------------------------------------------------------------------

 SCF Done:  E(RCAM-B3LYP) =  -1857.26435208     A.U. after   15 cycles

 Excitation energies and oscillator strengths:

 Excited State   1:      Singlet-A      2.1819 eV  568.25 nm  f=2.6201  <S**2>=0.000
     163 ->166        -0.12288
     164 ->165         0.69966
     164 <-165        -0.10164
 This state for optimization and/or second-order correction.
 Total Energy, E(TD-HF/TD-DFT) =  -1857.18417007
 Copying the excited state density for this state as the 1-particle RhoCI density.

 The electronic state is 1-A.
 Alpha  occ. eigenvalues --  -19.23379 -19.22459 -19.21984 -19.20821 -10.32582
 Alpha  occ. eigenvalues --  -10.32267 -10.31295 -10.31108 -10.31091 -10.28012
 Alpha  occ. eigenvalues --  -10.27912 -10.27899 -10.27567 -10.27291 -10.27139
 Alpha  occ. eigenvalues --  -10.26960 -10.26839 -10.26730 -10.26693 -10.26621
 Alpha  occ. eigenvalues --  -10.26282 -10.26225 -10.26202 -10.26162 -10.26117
 Alpha  occ. eigenvalues --  -10.25925 -10.25832 -10.25743 -10.25279 -10.25254
 Alpha  occ. eigenvalues --  -10.25252 -10.25236 -10.25216 -10.25078 -10.24940
 Alpha  occ. eigenvalues --  -10.24840 -10.24810 -10.24790 -10.24761 -10.24248
 Alpha  occ. eigenvalues --  -10.24144 -10.23704 -10.23587 -10.22546  -1.17502
 Alpha  occ. eigenvalues --   -1.13571  -1.08392  -1.06479  -0.92959  -0.92683
 Alpha  occ. eigenvalues --   -0.91942  -0.90888  -0.90230  -0.89490  -0.88021
 Alpha  occ. eigenvalues --   -0.87772  -0.86713  -0.85542  -0.85121  -0.82686
 Alpha  occ. eigenvalues --   -0.81864  -0.81104  -0.80333  -0.77761  -0.77042
 Alpha  occ. eigenvalues --   -0.76900  -0.76643  -0.76184  -0.76046  -0.75097
 Alpha  occ. eigenvalues --   -0.74345  -0.73253  -0.72636  -0.69675  -0.69055
 Alpha  occ. eigenvalues --   -0.68178  -0.66864  -0.65232  -0.64735  -0.64499
 Alpha  occ. eigenvalues --   -0.64415  -0.62958  -0.60946  -0.60615  -0.59344
 Alpha  occ. eigenvalues --   -0.58775  -0.58064  -0.57832  -0.57030  -0.56270
 Alpha  occ. eigenvalues --   -0.56167  -0.55618  -0.55168  -0.54948  -0.54625
 Alpha  occ. eigenvalues --   -0.54283  -0.54077  -0.53252  -0.53001  -0.51968
 Alpha  occ. eigenvalues --   -0.51126  -0.50987  -0.50785  -0.50055  -0.49928
 Alpha  occ. eigenvalues --   -0.49670  -0.49210  -0.48780  -0.48383  -0.48336
 Alpha  occ. eigenvalues --   -0.47899  -0.47767  -0.47683  -0.47579  -0.46970
 Alpha  occ. eigenvalues --   -0.46703  -0.46439  -0.46081  -0.45466  -0.45411
 Alpha  occ. eigenvalues --   -0.44689  -0.44380  -0.43601  -0.43530  -0.42982
 Alpha  occ. eigenvalues --   -0.42784  -0.42577  -0.42539  -0.41975  -0.41750
 Alpha  occ. eigenvalues --   -0.41646  -0.41583  -0.41133  -0.41093  -0.40866
 Alpha  occ. eigenvalues --   -0.40474  -0.40410  -0.40400  -0.40323  -0.40053
 Alpha  occ. eigenvalues --   -0.39875  -0.39633  -0.39385  -0.39260  -0.38919
 Alpha  occ. eigenvalues --   -0.38872  -0.38637  -0.37902  -0.37396  -0.37082
 Alpha  occ. eigenvalues --   -0.36491  -0.35875  -0.35402  -0.34613  -0.33486
 Alpha  occ. eigenvalues --   -0.33055  -0.31842  -0.31200  -0.30657  -0.29990
 Alpha  occ. eigenvalues --   -0.29621  -0.27916  -0.24109  -0.19433
 Alpha virt. eigenvalues --   -0.05663   0.00211   0.04338   0.06819   0.08056
 Alpha virt. eigenvalues --    0.08714   0.09774   0.10899   0.12235   0.12284
 Alpha virt. eigenvalues --    0.12613   0.12783   0.13215   0.13660   0.14000

 Mulliken charges:
               1
     1  O   -0.498864
     2  O   -0.564269
     3  O   -0.527490
     4  O   -0.551528
     5  C    0.198828
     6  C    0.212225
     7  C    0.036375
     8  C   -0.215214
     9  C   -0.162536
    10  C    0.151447
    11  C   -0.338322
    12  C   -0.121423
    13  C   -0.306009
    14  C   -0.321117
    15  C   -0.065472
    16  C    0.064017
    17  C   -0.384222
    18  C   -0.063909
    19  C   -0.068966
    20  C    0.021011
    21  C    0.271537
    22  C   -0.179346
    23  C    0.132971
    24  C   -0.170743
    25  C   -0.130203
    26  C   -0.289165
    27  C   -0.298428
    28  C   -0.370326
    29  C   -0.126527
    30  C    0.266177
    31  C    0.097548
    32  C   -0.327080
    33  C   -0.375689
    34  C   -0.125451
    35  C    0.104080
    36  C   -0.356427
    37  C   -0.113694
    38  C   -0.039365
    39  C   -0.097890
    40  C   -0.059228
    41  C   -0.101935
    42  C   -0.159231
    43  C    0.151410
    44  C   -0.390641
    45  H    0.092241
    46  H    0.123540
    47  H    0.096655
    48  H    0.114340
    49  H    0.090349
    50  H    0.107591
    51  H    0.123717
    52  H    0.129937
    53  H    0.114389
    54  H    0.097234
    55  H    0.073079
    56  H    0.110398
    57  H    0.116151
    58  H    0.086541
    59  H    0.096648
    60  H    0.298315
    61  H    0.078488
    62  H    0.136503
    63  H    0.128001
    64  H    0.075898
    65  H    0.073392
    66  H    0.083410
    67  H    0.067064
    68  H    0.107618
    69  H    0.067889
    70  H    0.106565
    71  H    0.112520
    72  H    0.100811
    73  H    0.111103
    74  H    0.090745
    75  H    0.118299
    76  H    0.085163
    77  H    0.089232
    78  H    0.117424
    79  H    0.073198
    80  H    0.152669
    81  H    0.079423
    82  H    0.306922
    83  H    0.314455
    84  H    0.102493
    85  H    0.089253
    86  H    0.128145
    87  H    0.108640
    88  H    0.078788
    89  H    0.089320
    90  H    0.150897
    91  H    0.113495
    92  H    0.058304
    93  H    0.073628
    94  H    0.088762
    95  H    0.080450
    96  H    0.077288
    97  H    0.077219
    98  H    0.099513
    99  H    0.127238
   100  H    0.101740
 Sum of Mulliken charges =  -0.00000

 Dipole moment (field-independent basis, Debye):
    X=              5.3428    Y=             -0.5720    Z=             -0.3852  Tot=              5.3872
 Quadrupole moment (field-independent basis, Debye-Ang):
   XX=           -241.6529   YY=           -256.0601   ZZ=           -275.6098
   XY=             -0.8700   XZ=             34.6512   YZ=             -1.7664

 Normal termination of Gaussian 16 at Wed Jul 31 05:26:05 2019.
