 Gaussian 16, Revision A.03,
 Gaussian 16:  ES64L-G16RevA.03 25-Dec-2016

 -------------------------------------
 # td=(NStates=1) CAM-B3LYP/6-31G(d,p)
 -------------------------------------

 --
 TD
 --
 Symbolic Z-matrix:
 Charge =  0 Multiplicity = 1

                         Standard orientation:
 ---------------------------------------------------------------------
 Center     Atomic      Atomic             Coordinates (Angstroms)
 Number     Number       Type             X           Y           Z
 ---------------------------------------------------------------------
      1          8           0      -11.764404    0.464538   -1.336490
      2          8           0      -12.911539   -2.645998    1.236572
      3          8           0       10.623813   -0.964227   -1.979550
      4          8           0       14.437131   -1.178510   -0.010025
      5          6           0      -11.064215   -0.110149   -0.246559
      6          6           0      -11.755639   -0.992532   -1.322685
      7          6           0      -11.805122    0.237794    1.131356
      8          6           0      -13.131044   -1.591434   -1.042812
      9          6           0      -13.306515   -0.222525    1.100216
     10          6           0      -13.549762   -1.662503    0.465764
     11          6           0      -10.983944   -1.683736   -2.396545
     12          6           0       -9.588852    0.275668   -0.292013
     13          6           0      -11.127303   -0.480662    2.300838
     14          6           0      -11.662047    1.761845    1.374589
     15          6           0       -8.662991   -0.663363    0.015803
     16          6           0       -7.212899   -0.506654    0.013877
     17          6           0       -6.414268   -1.826135    0.153051
     18          6           0       -6.517266    0.702880   -0.115499
     19          6           0       -5.096816    1.001991   -0.143628
     20          6           0       11.929040    0.026764    1.275109
     21          6           0       11.701358   -0.575400   -1.145729
     22          6           0       12.567779   -1.417875    1.515067
     23          6           0       13.285922   -1.850728    0.284109
     24          6           0       12.352287   -1.884524   -0.874741
     25          6           0       11.067115    0.004640   -0.037677
     26          6           0       11.018117    0.337752    2.573923
     27          6           0       12.917794    1.246556    1.375458
     28          6           0       12.662474    0.425974   -1.906066
     29          6           0       -4.645816    2.262451   -0.370513
     30          6           0        9.909956    0.540937    0.035643
     31          6           0       -3.284312    2.551965   -0.350697
     32          6           0        8.657268    0.975883   -0.144777
     33          6           0       -2.924942    4.007596   -0.565197
     34          6           0       -2.369489    1.671457   -0.210977
     35          6           0        7.502858    0.158260    0.060836
     36          6           0        7.618515   -1.285034    0.399975
     37          6           0        6.141372    0.729716   -0.175827
     38          6           0       -0.956031    1.890158   -0.325151
     39          6           0        4.953031    0.144584   -0.235635
     40          6           0        0.083574    0.907057   -0.253387
     41          6           0        3.782099    0.842932   -0.270949
     42          6           0        1.430565    1.214371   -0.289968
     43          6           0        2.484794    0.311185   -0.133699
     44          6           0        2.333243   -1.210998    0.023695
     45          1           0      -13.222691   -2.725434   -1.434497
     46          1           0      -13.988984   -1.036103   -1.637785
     47          1           0      -13.679222   -0.272574    2.023365
     48          1           0      -13.839727    0.527536    0.584635
     49          1           0      -14.668787   -1.926532    0.720608
     50          1           0      -10.919732   -2.782847   -2.233685
     51          1           0      -11.447147   -1.512505   -3.315313
     52          1           0      -10.000704   -1.236836   -2.463133
     53          1           0       -9.392195    1.345351   -0.445830
     54          1           0      -10.023886    0.051067    2.238229
     55          1           0      -11.658756   -0.199210    3.266046
     56          1           0      -11.072602   -1.500759    2.345459
     57          1           0      -12.085189    2.243921    0.582100
     58          1           0      -12.315817    2.183675    2.007939
     59          1           0      -10.727374    2.189351    1.433773
     60          1           0      -11.954067   -2.876782    0.976936
     61          1           0       -8.962080   -1.573614    0.174435
     62          1           0       -5.726431   -2.219923   -0.650161
     63          1           0       -5.723865   -1.721003    1.006013
     64          1           0       -7.040163   -2.645781    0.597323
     65          1           0       -7.094255    1.510613   -0.287705
     66          1           0       -4.398778    0.092473    0.215501
     67          1           0       13.211512   -1.368439    2.419391
     68          1           0       11.671731   -2.008804    1.727317
     69          1           0       13.742016   -3.011501    0.340037
     70          1           0       12.967227   -2.240028   -1.705305
     71          1           0       11.580803   -2.704880   -0.952701
     72          1           0       11.627710    0.337546    3.351442
     73          1           0       10.513876    1.299084    2.418324
     74          1           0       10.318635   -0.505345    2.577384
     75          1           0       13.775519    1.246816    0.581374
     76          1           0       12.338651    2.193695    1.455010
     77          1           0       13.405903    1.241747    2.223982
     78          1           0       13.065982   -0.288832   -2.770704
     79          1           0       11.991901    1.280246   -2.141019
     80          1           0       13.604048    0.750521   -1.339429
     81          1           0       -5.274540    3.111747   -0.626342
     82          1           0       10.074165   -0.300562   -2.292844
     83          1           0       15.004021   -1.257825    0.652157
     84          1           0        8.456468    1.945900   -0.357641
     85          1           0       -2.154113    4.493015    0.118170
     86          1           0       -2.459433    4.278511   -1.572354
     87          1           0       -3.782891    4.631596   -0.230775
     88          1           0       -2.446375    0.525423   -0.268003
     89          1           0        6.806214   -2.056192    0.435121
     90          1           0        8.303211   -1.783182   -0.306290
     91          1           0        7.994026   -1.358673    1.538889
     92          1           0        6.167347    1.796438   -0.774781
     93          1           0       -0.644210    2.891313   -0.370139
     94          1           0        4.890819   -0.945932   -0.228815
     95          1           0       -0.364178   -0.071013    0.176783
     96          1           0        3.773853    1.953226   -0.265252
     97          1           0        1.587191    2.240242   -0.592359
     98          1           0        1.275540   -1.613278    0.153560
     99          1           0        2.924732   -1.712653   -0.714312
    100          1           0        2.875745   -1.907424    0.860352
 ---------------------------------------------------------------------

 SCF Done:  E(RCAM-B3LYP) =  -1857.33272009     A.U. after   15 cycles

 Excitation energies and oscillator strengths:

 Excited State   1:      Singlet-A      2.1354 eV  580.62 nm  f=3.3767  <S**2>=0.000
     163 ->166        -0.14869
     164 ->165         0.68998
 This state for optimization and/or second-order correction.
 Total Energy, E(TD-HF/TD-DFT) =  -1857.25424662
 Copying the excited state density for this state as the 1-particle RhoCI density.

 The electronic state is 1-A.
 Alpha  occ. eigenvalues --  -19.21926 -19.21674 -19.21580 -19.19539 -10.32949
 Alpha  occ. eigenvalues --  -10.32056 -10.31983 -10.31826 -10.30894 -10.28649
 Alpha  occ. eigenvalues --  -10.28213 -10.28062 -10.28057 -10.28050 -10.27682
 Alpha  occ. eigenvalues --  -10.27410 -10.27196 -10.27050 -10.27005 -10.26878
 Alpha  occ. eigenvalues --  -10.26561 -10.26544 -10.26437 -10.26406 -10.26294
 Alpha  occ. eigenvalues --  -10.26289 -10.26288 -10.26136 -10.26078 -10.26078
 Alpha  occ. eigenvalues --  -10.25980 -10.25886 -10.25799 -10.25783 -10.25675
 Alpha  occ. eigenvalues --  -10.25339 -10.25331 -10.24985 -10.24554 -10.24146
 Alpha  occ. eigenvalues --  -10.24100 -10.23550 -10.23058 -10.21777  -1.14391
 Alpha  occ. eigenvalues --   -1.14378  -1.10587  -1.08933  -0.93277  -0.93222
 Alpha  occ. eigenvalues --   -0.91938  -0.90669  -0.90062  -0.89064  -0.87631
 Alpha  occ. eigenvalues --   -0.86401  -0.86067  -0.85692  -0.84689  -0.83336
 Alpha  occ. eigenvalues --   -0.81872  -0.80821  -0.80221  -0.78492  -0.77555
 Alpha  occ. eigenvalues --   -0.77223  -0.76437  -0.75943  -0.75785  -0.75633
 Alpha  occ. eigenvalues --   -0.75432  -0.73582  -0.72706  -0.71370  -0.69574
 Alpha  occ. eigenvalues --   -0.68873  -0.67185  -0.65778  -0.65389  -0.64770
 Alpha  occ. eigenvalues --   -0.64364  -0.62477  -0.61416  -0.60219  -0.60034
 Alpha  occ. eigenvalues --   -0.59857  -0.59475  -0.58136  -0.57387  -0.56354
 Alpha  occ. eigenvalues --   -0.56194  -0.55919  -0.54961  -0.54383  -0.54197
 Alpha  occ. eigenvalues --   -0.53242  -0.52953  -0.52704  -0.51875  -0.51790
 Alpha  occ. eigenvalues --   -0.51394  -0.51351  -0.50288  -0.50026  -0.49967
 Alpha  occ. eigenvalues --   -0.49635  -0.48958  -0.48687  -0.48447  -0.48403
 Alpha  occ. eigenvalues --   -0.47606  -0.47534  -0.47441  -0.47193  -0.47149
 Alpha  occ. eigenvalues --   -0.46924  -0.46587  -0.46281  -0.45475  -0.45391
 Alpha  occ. eigenvalues --   -0.45234  -0.44635  -0.44231  -0.44032  -0.44000
 Alpha  occ. eigenvalues --   -0.43965  -0.43698  -0.42986  -0.42725  -0.42615
 Alpha  occ. eigenvalues --   -0.42192  -0.41868  -0.41850  -0.41364  -0.41052
 Alpha  occ. eigenvalues --   -0.40982  -0.40574  -0.40320  -0.40162  -0.39826
 Alpha  occ. eigenvalues --   -0.39746  -0.39534  -0.39051  -0.38924  -0.38565
 Alpha  occ. eigenvalues --   -0.38077  -0.37876  -0.37250  -0.37125  -0.36165
 Alpha  occ. eigenvalues --   -0.35996  -0.35662  -0.35263  -0.34297  -0.33843
 Alpha  occ. eigenvalues --   -0.32495  -0.31998  -0.31879  -0.31715  -0.30369
 Alpha  occ. eigenvalues --   -0.29800  -0.27508  -0.23820  -0.19250
 Alpha virt. eigenvalues --   -0.06023  -0.01462   0.02805   0.06780   0.07612
 Alpha virt. eigenvalues --    0.09853   0.10367   0.10551   0.11421   0.11662
 Alpha virt. eigenvalues --    0.12435   0.12715   0.13222   0.13874   0.14128

 Mulliken charges:
               1
     1  O   -0.503973
     2  O   -0.548453
     3  O   -0.572739
     4  O   -0.507581
     5  C    0.183532
     6  C    0.239507
     7  C    0.024060
     8  C   -0.218709
     9  C   -0.182749
    10  C    0.164209
    11  C   -0.337455
    12  C   -0.109825
    13  C   -0.274324
    14  C   -0.330781
    15  C   -0.036995
    16  C    0.070594
    17  C   -0.393982
    18  C   -0.106817
    19  C   -0.066602
    20  C   -0.042879
    21  C    0.245014
    22  C   -0.180302
    23  C    0.161679
    24  C   -0.196334
    25  C    0.000851
    26  C   -0.298378
    27  C   -0.295976
    28  C   -0.283992
    29  C   -0.111258
    30  C    0.115146
    31  C    0.140319
    32  C   -0.251852
    33  C   -0.392698
    34  C   -0.121670
    35  C    0.112632
    36  C   -0.380886
    37  C   -0.135506
    38  C   -0.102360
    39  C   -0.065598
    40  C   -0.091704
    41  C   -0.114667
    42  C   -0.134412
    43  C    0.138908
    44  C   -0.382392
    45  H    0.082655
    46  H    0.115720
    47  H    0.101127
    48  H    0.097400
    49  H    0.088951
    50  H    0.103702
    51  H    0.129663
    52  H    0.125375
    53  H    0.111639
    54  H    0.072965
    55  H    0.091759
    56  H    0.090827
    57  H    0.119674
    58  H    0.107657
    59  H    0.108045
    60  H    0.308239
    61  H    0.064337
    62  H    0.125783
    63  H    0.121022
    64  H    0.101095
    65  H    0.065209
    66  H    0.090898
    67  H    0.081567
    68  H    0.112293
    69  H    0.026548
    70  H    0.111901
    71  H    0.126953
    72  H    0.104925
    73  H    0.109765
    74  H    0.097360
    75  H    0.093200
    76  H    0.097612
    77  H    0.105932
    78  H    0.101380
    79  H    0.090698
    80  H    0.129327
    81  H    0.093001
    82  H    0.292655
    83  H    0.294519
    84  H    0.103687
    85  H    0.114767
    86  H    0.126031
    87  H    0.105223
    88  H    0.076161
    89  H    0.111772
    90  H    0.137880
    91  H    0.099889
    92  H    0.064977
    93  H    0.070583
    94  H    0.081409
    95  H    0.077563
    96  H    0.081728
    97  H    0.092466
    98  H    0.111873
    99  H    0.134606
   100  H    0.093406
 Sum of Mulliken charges =  -0.00000

 Dipole moment (field-independent basis, Debye):
    X=              2.8344    Y=             -0.4440    Z=              0.8990  Tot=              3.0065
 Quadrupole moment (field-independent basis, Debye-Ang):
   XX=           -260.7059   YY=           -255.1733   ZZ=           -277.6914
   XY=             -0.5761   XZ=             29.6218   YZ=             -0.6631

 Normal termination of Gaussian 16 at Tue Jul 30 09:23:41 2019.
