 Gaussian 16, Revision A.03,
 Gaussian 16:  ES64L-G16RevA.03 25-Dec-2016

 -------------------------------------
 # td=(NStates=1) CAM-B3LYP/6-31G(d,p)
 -------------------------------------

 --
 TD
 --
 Symbolic Z-matrix:
 Charge =  0 Multiplicity = 1

                         Standard orientation:
 ---------------------------------------------------------------------
 Center     Atomic      Atomic             Coordinates (Angstroms)
 Number     Number       Type             X           Y           Z
 ---------------------------------------------------------------------
      1          8           0      -11.836206    0.416589   -1.323581
      2          8           0      -12.789184   -2.723720    1.197355
      3          8           0       10.509169   -1.159776   -1.939018
      4          8           0       14.510510   -0.875811   -0.237493
      5          6           0      -11.071861   -0.125125   -0.280373
      6          6           0      -11.691465   -1.002553   -1.291908
      7          6           0      -11.691457    0.221340    1.088135
      8          6           0      -13.045977   -1.687525   -0.968961
      9          6           0      -13.130178   -0.230548    1.102184
     10          6           0      -13.457729   -1.573231    0.540365
     11          6           0      -10.941741   -1.696228   -2.321421
     12          6           0       -9.562381    0.155980   -0.351327
     13          6           0      -10.982237   -0.329439    2.244482
     14          6           0      -11.691788    1.748215    1.118051
     15          6           0       -8.632210   -0.676382    0.137383
     16          6           0       -7.239037   -0.528100    0.001544
     17          6           0       -6.282579   -1.724695    0.260112
     18          6           0       -6.618076    0.664336   -0.120022
     19          6           0       -5.257018    0.929758   -0.323664
     20          6           0       11.968416    0.056836    1.388391
     21          6           0       11.560910   -0.701818   -1.334735
     22          6           0       12.730152   -1.313634    1.486519
     23          6           0       13.362629   -1.726636    0.136065
     24          6           0       12.504713   -1.908553   -1.025364
     25          6           0       11.081799    0.005543    0.103998
     26          6           0       11.098273    0.361120    2.574393
     27          6           0       13.009281    1.234170    1.269804
     28          6           0       12.360021    0.366269   -2.176277
     29          6           0       -4.839085    2.237556   -0.518583
     30          6           0        9.926758    0.504225    0.099358
     31          6           0       -3.463245    2.573857   -0.513546
     32          6           0        8.631703    0.956302   -0.130084
     33          6           0       -3.102928    4.058710   -0.661010
     34          6           0       -2.445592    1.668698   -0.265592
     35          6           0        7.459862    0.182063   -0.009793
     36          6           0        7.700786   -1.384868    0.362698
     37          6           0        6.231132    0.745034   -0.042554
     38          6           0       -0.982623    1.931953   -0.301801
     39          6           0        4.972569    0.071656    0.101838
     40          6           0       -0.054151    0.970635   -0.083962
     41          6           0        3.796063    0.767243   -0.067296
     42          6           0        1.307298    1.150209   -0.107149
     43          6           0        2.521091    0.296508    0.056071
     44          6           0        2.349062   -1.177052    0.338960
     45          1           0      -13.051629   -2.691667   -1.437469
     46          1           0      -13.715322   -1.048611   -1.508467
     47          1           0      -13.363643   -0.161275    2.124635
     48          1           0      -13.615586    0.626499    0.536045
     49          1           0      -14.585518   -1.758313    0.636870
     50          1           0      -10.911265   -2.716391   -1.911516
     51          1           0      -11.546845   -1.766775   -3.246936
     52          1           0      -10.052791   -1.223319   -2.710471
     53          1           0       -9.316488    1.094969   -0.811679
     54          1           0       -9.987280    0.156209    2.396394
     55          1           0      -11.598498   -0.143872    3.112129
     56          1           0      -10.792182   -1.398080    1.989315
     57          1           0      -12.163195    2.118215    0.247886
     58          1           0      -12.240491    2.227627    2.040994
     59          1           0      -10.608780    2.104242    1.136302
     60          1           0      -11.887444   -2.625179    1.152512
     61          1           0       -9.008235   -1.717444    0.166841
     62          1           0       -5.951542   -2.348984   -0.688119
     63          1           0       -5.300452   -1.385993    1.000943
     64          1           0       -6.868054   -2.373674    0.919917
     65          1           0       -7.269968    1.528491   -0.279998
     66          1           0       -4.492960    0.109330    0.081740
     67          1           0       13.470767   -1.355394    2.387664
     68          1           0       12.013873   -2.133495    1.509804
     69          1           0       13.681769   -2.732362    0.260527
     70          1           0       13.158106   -2.342902   -1.886004
     71          1           0       11.746955   -2.735698   -0.835663
     72          1           0       11.474828    0.321386    3.551249
     73          1           0       10.517120    1.305431    2.328064
     74          1           0       10.330321   -0.337938    2.758989
     75          1           0       13.617019    0.935055    0.549900
     76          1           0       12.568637    2.234334    1.134854
     77          1           0       13.555001    1.307499    2.255712
     78          1           0       12.476489    0.099591   -3.178266
     79          1           0       11.667617    1.473881   -2.089907
     80          1           0       13.201662    0.670519   -1.568454
     81          1           0       -5.458505    3.074338   -0.553640
     82          1           0        9.869269   -0.410675   -2.080060
     83          1           0       15.061737   -1.015504    0.611658
     84          1           0        8.468487    1.900133   -0.579680
     85          1           0       -2.673715    4.465514    0.204353
     86          1           0       -2.640640    4.232736   -1.617537
     87          1           0       -4.078165    4.550283   -0.834629
     88          1           0       -2.641972    0.593999   -0.023681
     89          1           0        6.657396   -2.025186    0.408472
     90          1           0        8.195127   -1.792590   -0.459322
     91          1           0        8.023663   -1.417615    1.365914
     92          1           0        6.307512    1.882994   -0.334360
     93          1           0       -0.545830    2.965048   -0.186361
     94          1           0        4.948349   -1.020741    0.306831
     95          1           0       -0.404039   -0.193444    0.147755
     96          1           0        4.023915    1.898566   -0.148314
     97          1           0        1.596835    2.261467   -0.200334
     98          1           0        1.212912   -1.472998    0.756982
     99          1           0        2.413137   -1.910349   -0.663852
    100          1           0        3.023262   -1.571103    1.085808
 ---------------------------------------------------------------------

 SCF Done:  E(RCAM-B3LYP) =  -1857.38451469     A.U. after   15 cycles

 Excitation energies and oscillator strengths:

 Excited State   1:      Singlet-A      2.0790 eV  596.38 nm  f=3.1719  <S**2>=0.000
     163 ->166        -0.14482
     164 ->165         0.69161
 This state for optimization and/or second-order correction.
 Total Energy, E(TD-HF/TD-DFT) =  -1857.30811460
 Copying the excited state density for this state as the 1-particle RhoCI density.

 The electronic state is 1-A.
 Alpha  occ. eigenvalues --  -19.22480 -19.22406 -19.22320 -19.20276 -10.32945
 Alpha  occ. eigenvalues --  -10.31996 -10.31897 -10.31696 -10.30673 -10.28412
 Alpha  occ. eigenvalues --  -10.28396 -10.28217 -10.27894 -10.27536 -10.27425
 Alpha  occ. eigenvalues --  -10.27368 -10.27315 -10.27306 -10.27234 -10.27203
 Alpha  occ. eigenvalues --  -10.27171 -10.27098 -10.26791 -10.26781 -10.26749
 Alpha  occ. eigenvalues --  -10.26725 -10.26706 -10.26638 -10.26410 -10.26404
 Alpha  occ. eigenvalues --  -10.26321 -10.26312 -10.26304 -10.25934 -10.25685
 Alpha  occ. eigenvalues --  -10.25649 -10.25417 -10.25177 -10.25097 -10.25023
 Alpha  occ. eigenvalues --  -10.24688 -10.24652 -10.23457 -10.23259  -1.16916
 Alpha  occ. eigenvalues --   -1.14517  -1.08764  -1.08454  -0.92895  -0.92421
 Alpha  occ. eigenvalues --   -0.92199  -0.91500  -0.90742  -0.89797  -0.87732
 Alpha  occ. eigenvalues --   -0.87414  -0.86671  -0.85617  -0.84412  -0.83021
 Alpha  occ. eigenvalues --   -0.81973  -0.81011  -0.79690  -0.77963  -0.76977
 Alpha  occ. eigenvalues --   -0.76915  -0.76453  -0.76423  -0.75836  -0.75675
 Alpha  occ. eigenvalues --   -0.75004  -0.74164  -0.72509  -0.70503  -0.70200
 Alpha  occ. eigenvalues --   -0.68898  -0.67538  -0.65619  -0.65048  -0.64830
 Alpha  occ. eigenvalues --   -0.62397  -0.60789  -0.59780  -0.59742  -0.59410
 Alpha  occ. eigenvalues --   -0.59079  -0.58749  -0.57948  -0.57109  -0.56763
 Alpha  occ. eigenvalues --   -0.56054  -0.55091  -0.55001  -0.54776  -0.54576
 Alpha  occ. eigenvalues --   -0.53904  -0.52872  -0.52100  -0.51996  -0.51788
 Alpha  occ. eigenvalues --   -0.51470  -0.51280  -0.51114  -0.50793  -0.50696
 Alpha  occ. eigenvalues --   -0.50403  -0.50357  -0.49394  -0.49197  -0.48571
 Alpha  occ. eigenvalues --   -0.48124  -0.47649  -0.47524  -0.47211  -0.46978
 Alpha  occ. eigenvalues --   -0.46714  -0.46399  -0.45986  -0.45548  -0.45355
 Alpha  occ. eigenvalues --   -0.45088  -0.44787  -0.44520  -0.44272  -0.43953
 Alpha  occ. eigenvalues --   -0.42897  -0.42809  -0.42614  -0.42529  -0.42416
 Alpha  occ. eigenvalues --   -0.42397  -0.42054  -0.41868  -0.41290  -0.40891
 Alpha  occ. eigenvalues --   -0.40725  -0.40632  -0.40451  -0.40130  -0.40011
 Alpha  occ. eigenvalues --   -0.39757  -0.39482  -0.39333  -0.38821  -0.38647
 Alpha  occ. eigenvalues --   -0.38460  -0.38308  -0.37854  -0.37810  -0.37516
 Alpha  occ. eigenvalues --   -0.36680  -0.35985  -0.35841  -0.34944  -0.34039
 Alpha  occ. eigenvalues --   -0.32615  -0.32362  -0.32123  -0.32022  -0.31057
 Alpha  occ. eigenvalues --   -0.30853  -0.27769  -0.24021  -0.19423
 Alpha virt. eigenvalues --   -0.06359  -0.01584   0.02858   0.05603   0.07988
 Alpha virt. eigenvalues --    0.09771   0.10041   0.10185   0.11445   0.11799
 Alpha virt. eigenvalues --    0.12707   0.12817   0.13331   0.13476   0.14171

 Mulliken charges:
               1
     1  O   -0.510011
     2  O   -0.557345
     3  O   -0.522196
     4  O   -0.544696
     5  C    0.189312
     6  C    0.247944
     7  C    0.002959
     8  C   -0.204409
     9  C   -0.173176
    10  C    0.141474
    11  C   -0.348213
    12  C   -0.106139
    13  C   -0.272625
    14  C   -0.317217
    15  C   -0.084297
    16  C    0.083385
    17  C   -0.360188
    18  C   -0.106768
    19  C   -0.059200
    20  C    0.016370
    21  C    0.289048
    22  C   -0.199997
    23  C    0.133479
    24  C   -0.213087
    25  C   -0.106546
    26  C   -0.312319
    27  C   -0.302342
    28  C   -0.300612
    29  C   -0.099695
    30  C    0.117885
    31  C    0.065404
    32  C   -0.271655
    33  C   -0.372819
    34  C   -0.120871
    35  C    0.104355
    36  C   -0.350994
    37  C   -0.118474
    38  C   -0.100987
    39  C   -0.084584
    40  C   -0.045331
    41  C   -0.106211
    42  C   -0.137680
    43  C    0.112325
    44  C   -0.363466
    45  H    0.102855
    46  H    0.119727
    47  H    0.103245
    48  H    0.110206
    49  H    0.102830
    50  H    0.114922
    51  H    0.115672
    52  H    0.126563
    53  H    0.107655
    54  H    0.107470
    55  H    0.107091
    56  H    0.066229
    57  H    0.135492
    58  H    0.085831
    59  H    0.092219
    60  H    0.297178
    61  H    0.077872
    62  H    0.115752
    63  H    0.088924
    64  H    0.111680
    65  H    0.071105
    66  H    0.087135
    67  H    0.083040
    68  H    0.106833
    69  H    0.095057
    70  H    0.114968
    71  H    0.111155
    72  H    0.098325
    73  H    0.105830
    74  H    0.099809
    75  H    0.136714
    76  H    0.101164
    77  H    0.080382
    78  H    0.119901
    79  H    0.033960
    80  H    0.143610
    81  H    0.088499
    82  H    0.312818
    83  H    0.309396
    84  H    0.107033
    85  H    0.136943
    86  H    0.134131
    87  H    0.095098
    88  H    0.079418
    89  H    0.069000
    90  H    0.142228
    91  H    0.138761
    92  H    0.072716
    93  H    0.092383
    94  H    0.091872
    95  H    0.064950
    96  H    0.080928
    97  H    0.066961
    98  H    0.083160
    99  H    0.099102
   100  H    0.126414
 Sum of Mulliken charges =  -0.00000

 Dipole moment (field-independent basis, Debye):
    X=              1.8524    Y=             -0.3279    Z=              1.3075  Tot=              2.2909
 Quadrupole moment (field-independent basis, Debye-Ang):
   XX=           -270.0249   YY=           -262.6157   ZZ=           -273.5091
   XY=            -20.8867   XZ=             29.9569   YZ=              0.7059

 Normal termination of Gaussian 16 at Tue Jul 30 10:38:24 2019.
