 Gaussian 16, Revision A.03,
 Gaussian 16:  ES64L-G16RevA.03 25-Dec-2016

 -------------------------------------
 # td=(NStates=1) CAM-B3LYP/6-31G(d,p)
 -------------------------------------

 --
 TD
 --
 Symbolic Z-matrix:
 Charge =  0 Multiplicity = 1

                         Standard orientation:
 ---------------------------------------------------------------------
 Center     Atomic      Atomic             Coordinates (Angstroms)
 Number     Number       Type             X           Y           Z
 ---------------------------------------------------------------------
      1          8           0      -11.575008    0.273320   -1.634372
      2          8           0      -12.934593   -2.608163    1.371172
      3          8           0       10.518202   -1.166204   -1.968780
      4          8           0       14.364246   -1.124913   -0.285075
      5          6           0      -11.031891   -0.108095   -0.294491
      6          6           0      -11.612726   -1.111265   -1.185803
      7          6           0      -11.747825    0.399533    0.845639
      8          6           0      -13.052580   -1.735779   -0.930724
      9          6           0      -13.206991   -0.077379    0.972716
     10          6           0      -13.446871   -1.538798    0.499149
     11          6           0      -10.773000   -2.007760   -2.189758
     12          6           0       -9.584290    0.065148   -0.320566
     13          6           0      -11.001490   -0.120595    2.111214
     14          6           0      -11.714465    1.958166    0.935636
     15          6           0       -8.588329   -0.761235    0.140130
     16          6           0       -7.198065   -0.550290    0.207950
     17          6           0       -6.439074   -1.830167    0.485807
     18          6           0       -6.658759    0.643949   -0.182784
     19          6           0       -5.300166    0.835979   -0.247216
     20          6           0       11.983157    0.163815    1.254857
     21          6           0       11.577736   -0.733829   -1.195482
     22          6           0       12.721420   -1.189977    1.520762
     23          6           0       13.366992   -1.808974    0.263874
     24          6           0       12.373638   -2.022824   -0.847456
     25          6           0       11.111063    0.043079    0.043270
     26          6           0       11.153329    0.339407    2.586550
     27          6           0       12.949039    1.256305    1.129648
     28          6           0       12.368863    0.199427   -2.125046
     29          6           0       -4.759553    2.150312   -0.476130
     30          6           0        9.934669    0.487628   -0.030090
     31          6           0       -3.382783    2.515880   -0.395667
     32          6           0        8.635359    0.985785   -0.173679
     33          6           0       -3.130768    3.944896   -0.800764
     34          6           0       -2.328484    1.686176   -0.183302
     35          6           0        7.512482    0.197292    0.030675
     36          6           0        7.745751   -1.308727    0.319333
     37          6           0        6.303337    0.787872   -0.207472
     38          6           0       -1.015134    1.916635   -0.217347
     39          6           0        4.955663    0.274477    0.052268
     40          6           0        0.001076    0.969377   -0.020059
     41          6           0        3.735901    0.979502    0.012213
     42          6           0        1.385168    1.229687   -0.061832
     43          6           0        2.468041    0.352651    0.100418
     44          6           0        2.211574   -1.064256    0.462885
     45          1           0      -13.007375   -2.729984   -1.218947
     46          1           0      -13.642033   -1.196286   -1.914740
     47          1           0      -13.636412   -0.055026    1.849780
     48          1           0      -13.819377    0.533028    0.264309
     49          1           0      -14.500842   -1.712333    0.511783
     50          1           0      -10.464656   -2.783934   -1.637833
     51          1           0      -11.520219   -2.359763   -2.807323
     52          1           0      -10.079916   -1.445169   -2.717864
     53          1           0       -9.312291    1.308905   -0.435939
     54          1           0      -10.097384    0.546080    2.455496
     55          1           0      -11.531392    0.145351    2.995317
     56          1           0      -10.960758   -1.225193    2.339399
     57          1           0      -12.143966    2.415620    0.082907
     58          1           0      -12.370759    2.223436    1.831105
     59          1           0      -10.482578    2.215241    0.969134
     60          1           0      -12.039057   -2.931037    0.968500
     61          1           0       -8.816748   -1.856154    0.466776
     62          1           0       -6.014865   -2.414543   -0.366144
     63          1           0       -5.674619   -1.551432    1.168398
     64          1           0       -7.079171   -2.557639    1.009538
     65          1           0       -7.350763    1.481338   -0.416804
     66          1           0       -4.613954    0.003401    0.106006
     67          1           0       13.469108   -0.952962    2.061079
     68          1           0       12.036739   -2.035038    1.950982
     69          1           0       13.680846   -2.804936    0.679846
     70          1           0       12.903975   -2.411485   -1.799028
     71          1           0       11.524975   -2.774845   -0.421726
     72          1           0       11.822978    0.256933    3.499568
     73          1           0       10.812190    1.283705    2.434591
     74          1           0       10.313932   -0.503628    2.593636
     75          1           0       13.650749    1.240546    0.429209
     76          1           0       12.337118    2.157449    0.707082
     77          1           0       13.553643    1.355078    1.935239
     78          1           0       12.194551   -0.134552   -3.231476
     79          1           0       12.002734    1.162647   -2.081922
     80          1           0       13.283742    0.214976   -1.773260
     81          1           0       -5.450849    2.983091   -0.417803
     82          1           0       10.116046   -0.390994   -2.268273
     83          1           0       14.827773   -0.633268    0.522987
     84          1           0        8.531413    1.994853   -0.573958
     85          1           0       -2.219738    4.457002   -0.053474
     86          1           0       -2.472933    3.956686   -1.775213
     87          1           0       -4.042350    4.551929   -0.872500
     88          1           0       -2.612955    0.702157    0.356994
     89          1           0        6.761612   -1.880040    0.258036
     90          1           0        8.250096   -1.817339   -0.302032
     91          1           0        8.025365   -1.622962    1.320344
     92          1           0        6.246491    1.805641   -0.583915
     93          1           0       -0.639161    2.948453   -0.645776
     94          1           0        4.614896   -0.739380    0.116760
     95          1           0       -0.435677   -0.073368    0.225072
     96          1           0        3.859360    2.145335   -0.174329
     97          1           0        1.499048    2.232544   -0.428165
     98          1           0        1.234974   -1.245825    0.841304
     99          1           0        2.517202   -1.575599   -0.483640
    100          1           0        2.852397   -1.377203    1.251396
 ---------------------------------------------------------------------

 SCF Done:  E(RCAM-B3LYP) =  -1857.29216257     A.U. after   15 cycles

 Excitation energies and oscillator strengths:

 Excited State   1:      Singlet-A      1.9505 eV  635.66 nm  f=3.0843  <S**2>=0.000
     163 ->166         0.13097
     164 ->165         0.69961
     164 <-165        -0.10965
 This state for optimization and/or second-order correction.
 Total Energy, E(TD-HF/TD-DFT) =  -1857.22048391
 Copying the excited state density for this state as the 1-particle RhoCI density.

 The electronic state is 1-A.
 Alpha  occ. eigenvalues --  -19.23756 -19.22572 -19.20805 -19.20341 -10.31691
 Alpha  occ. eigenvalues --  -10.31354 -10.30941 -10.30805 -10.30203 -10.27926
 Alpha  occ. eigenvalues --  -10.27850 -10.27846 -10.27520 -10.27445 -10.27439
 Alpha  occ. eigenvalues --  -10.27394 -10.27192 -10.27151 -10.27051 -10.27046
 Alpha  occ. eigenvalues --  -10.27032 -10.27024 -10.26800 -10.26769 -10.26757
 Alpha  occ. eigenvalues --  -10.26617 -10.26527 -10.26362 -10.26329 -10.26219
 Alpha  occ. eigenvalues --  -10.26168 -10.25906 -10.25813 -10.25768 -10.25687
 Alpha  occ. eigenvalues --  -10.25563 -10.25350 -10.25233 -10.24716 -10.24600
 Alpha  occ. eigenvalues --  -10.24332 -10.24163 -10.23228 -10.22481  -1.13524
 Alpha  occ. eigenvalues --   -1.12335  -1.12149  -1.07626  -0.94231  -0.92526
 Alpha  occ. eigenvalues --   -0.92023  -0.91540  -0.91079  -0.90496  -0.87028
 Alpha  occ. eigenvalues --   -0.86539  -0.86340  -0.85317  -0.84458  -0.83044
 Alpha  occ. eigenvalues --   -0.82257  -0.81117  -0.80631  -0.79085  -0.78304
 Alpha  occ. eigenvalues --   -0.77624  -0.77025  -0.76963  -0.76481  -0.75994
 Alpha  occ. eigenvalues --   -0.75236  -0.74581  -0.73151  -0.70717  -0.70227
 Alpha  occ. eigenvalues --   -0.68507  -0.67190  -0.66374  -0.64999  -0.64595
 Alpha  occ. eigenvalues --   -0.63191  -0.61560  -0.60685  -0.60007  -0.59628
 Alpha  occ. eigenvalues --   -0.59302  -0.58878  -0.57983  -0.57230  -0.56738
 Alpha  occ. eigenvalues --   -0.55795  -0.55124  -0.54824  -0.54742  -0.54110
 Alpha  occ. eigenvalues --   -0.53832  -0.53231  -0.52986  -0.52677  -0.52394
 Alpha  occ. eigenvalues --   -0.51348  -0.51110  -0.50702  -0.50288  -0.50127
 Alpha  occ. eigenvalues --   -0.49972  -0.49577  -0.49240  -0.49086  -0.49015
 Alpha  occ. eigenvalues --   -0.48610  -0.48220  -0.47733  -0.47647  -0.47158
 Alpha  occ. eigenvalues --   -0.46961  -0.46345  -0.46216  -0.45831  -0.45022
 Alpha  occ. eigenvalues --   -0.44948  -0.44752  -0.44566  -0.44035  -0.43909
 Alpha  occ. eigenvalues --   -0.43770  -0.43492  -0.43429  -0.43083  -0.42884
 Alpha  occ. eigenvalues --   -0.42514  -0.41935  -0.41634  -0.41543  -0.41532
 Alpha  occ. eigenvalues --   -0.41083  -0.40992  -0.40919  -0.40565  -0.39968
 Alpha  occ. eigenvalues --   -0.39392  -0.39387  -0.39141  -0.38741  -0.38496
 Alpha  occ. eigenvalues --   -0.38174  -0.38005  -0.37777  -0.37654  -0.37570
 Alpha  occ. eigenvalues --   -0.36693  -0.36175  -0.35531  -0.34514  -0.33964
 Alpha  occ. eigenvalues --   -0.32835  -0.32168  -0.31772  -0.30964  -0.30644
 Alpha  occ. eigenvalues --   -0.30601  -0.27298  -0.23807  -0.18785
 Alpha virt. eigenvalues --   -0.06566  -0.01206   0.02745   0.06687   0.07663
 Alpha virt. eigenvalues --    0.08047   0.08403   0.09662   0.11066   0.12006
 Alpha virt. eigenvalues --    0.12862   0.13071   0.13172   0.14150   0.14365

 Mulliken charges:
               1
     1  O   -0.524688
     2  O   -0.563992
     3  O   -0.538222
     4  O   -0.510758
     5  C    0.249462
     6  C    0.180760
     7  C    0.008189
     8  C   -0.225541
     9  C   -0.175508
    10  C    0.148281
    11  C   -0.311045
    12  C   -0.106648
    13  C   -0.317127
    14  C   -0.291943
    15  C   -0.065378
    16  C    0.076950
    17  C   -0.376586
    18  C   -0.071531
    19  C   -0.082921
    20  C   -0.004417
    21  C    0.255804
    22  C   -0.187300
    23  C    0.169293
    24  C   -0.184055
    25  C   -0.109646
    26  C   -0.277161
    27  C   -0.318299
    28  C   -0.330701
    29  C   -0.141809
    30  C    0.152233
    31  C    0.118259
    32  C   -0.253105
    33  C   -0.366793
    34  C   -0.108206
    35  C    0.149135
    36  C   -0.371948
    37  C   -0.134196
    38  C   -0.079296
    39  C   -0.096595
    40  C   -0.091999
    41  C   -0.107220
    42  C   -0.119666
    43  C    0.090438
    44  C   -0.370224
    45  H    0.108905
    46  H    0.110028
    47  H    0.113389
    48  H    0.103480
    49  H    0.105878
    50  H    0.104370
    51  H    0.109292
    52  H    0.134285
    53  H    0.070880
    54  H    0.093299
    55  H    0.101204
    56  H    0.103412
    57  H    0.129773
    58  H    0.101187
    59  H    0.073977
    60  H    0.305789
    61  H    0.060314
    62  H    0.130109
    63  H    0.122838
    64  H    0.107531
    65  H    0.088012
    66  H    0.090614
    67  H    0.075916
    68  H    0.097374
    69  H    0.056747
    70  H    0.110903
    71  H    0.084313
    72  H    0.091491
    73  H    0.114458
    74  H    0.097303
    75  H    0.116178
    76  H    0.098391
    77  H    0.104392
    78  H    0.100415
    79  H    0.094183
    80  H    0.136085
    81  H    0.087869
    82  H    0.293465
    83  H    0.305330
    84  H    0.108213
    85  H    0.080105
    86  H    0.119356
    87  H    0.111564
    88  H    0.067148
    89  H    0.092336
    90  H    0.151797
    91  H    0.116329
    92  H    0.083814
    93  H    0.069299
    94  H    0.072029
    95  H    0.070586
    96  H    0.074537
    97  H    0.079452
    98  H    0.125020
    99  H    0.131623
   100  H    0.129131
 Sum of Mulliken charges =  -0.00000

 Dipole moment (field-independent basis, Debye):
    X=              3.5002    Y=             -0.1830    Z=              2.0444  Tot=              4.0576
 Quadrupole moment (field-independent basis, Debye-Ang):
   XX=           -242.9343   YY=           -262.0947   ZZ=           -278.1440
   XY=             19.4723   XZ=             24.1450   YZ=             -3.4756

 Normal termination of Gaussian 16 at Thu Aug  1 09:14:59 2019.
