 Gaussian 16, Revision A.03,
 Gaussian 16:  ES64L-G16RevA.03 25-Dec-2016

 -------------------------------------
 # td=(NStates=1) CAM-B3LYP/6-31G(d,p)
 -------------------------------------

 --
 TD
 --
 Symbolic Z-matrix:
 Charge =  0 Multiplicity = 1

                         Standard orientation:
 ---------------------------------------------------------------------
 Center     Atomic      Atomic             Coordinates (Angstroms)
 Number     Number       Type             X           Y           Z
 ---------------------------------------------------------------------
      1          8           0      -11.708161    0.452388   -1.341149
      2          8           0      -13.062245   -2.744265    1.117655
      3          8           0       10.633551   -0.686358   -2.106067
      4          8           0       14.509826   -0.978153   -0.156724
      5          6           0      -10.973196   -0.124745   -0.254394
      6          6           0      -11.747739   -0.891292   -1.310678
      7          6           0      -11.712216    0.223906    1.111805
      8          6           0      -13.087775   -1.539710   -1.054358
      9          6           0      -13.182561   -0.120463    1.020519
     10          6           0      -13.464424   -1.501956    0.399717
     11          6           0      -10.913102   -1.441487   -2.440758
     12          6           0       -9.580709    0.158800   -0.354388
     13          6           0      -11.113245   -0.579567    2.256210
     14          6           0      -11.501539    1.706249    1.336830
     15          6           0       -8.688231   -0.706724   -0.064920
     16          6           0       -7.244899   -0.531838    0.016490
     17          6           0       -6.364452   -1.673650    0.135377
     18          6           0       -6.682360    0.757005   -0.089534
     19          6           0       -5.274554    0.995630   -0.193358
     20          6           0       11.982336   -0.118946    1.401524
     21          6           0       11.696110   -0.373026   -1.270112
     22          6           0       12.516281   -1.515807    1.366456
     23          6           0       13.377443   -1.799027    0.119424
     24          6           0       12.480735   -1.717917   -1.203552
     25          6           0       11.105566    0.056446    0.061304
     26          6           0       10.987361   -0.008106    2.581579
     27          6           0       12.998874    1.081353    1.446516
     28          6           0       12.596649    0.650035   -1.883509
     29          6           0       -4.749092    2.192756   -0.267876
     30          6           0        9.850088    0.589347    0.091062
     31          6           0       -3.389374    2.523098   -0.353818
     32          6           0        8.601381    0.967815   -0.009238
     33          6           0       -2.975428    3.930253   -0.587264
     34          6           0       -2.348521    1.528684   -0.060005
     35          6           0        7.434295    0.109108    0.072887
     36          6           0        7.717736   -1.441536   -0.027487
     37          6           0        6.147980    0.594960   -0.083166
     38          6           0       -1.004495    1.948712   -0.143697
     39          6           0        4.876523    0.040311    0.037699
     40          6           0       -0.004229    0.909793   -0.070244
     41          6           0        3.748856    0.725120   -0.120846
     42          6           0        1.460599    1.130377   -0.116537
     43          6           0        2.405873    0.229628   -0.045034
     44          6           0        2.226424   -1.178904    0.261745
     45          1           0      -12.862207   -2.522007   -1.306790
     46          1           0      -13.857122   -1.188388   -1.919838
     47          1           0      -13.750176   -0.047231    2.045948
     48          1           0      -13.656994    0.556873    0.299995
     49          1           0      -14.455124   -1.613816    0.415740
     50          1           0      -10.398263   -2.501182   -2.295608
     51          1           0      -11.520994   -1.626426   -3.252502
     52          1           0      -10.135830   -0.955981   -2.764757
     53          1           0       -9.426257    1.245420   -0.672706
     54          1           0      -10.085622   -0.161189    2.487760
     55          1           0      -11.641064   -0.437569    3.104761
     56          1           0      -10.992816   -1.604287    2.223647
     57          1           0      -11.868515    2.264174    0.567074
     58          1           0      -11.760500    2.088210    2.390776
     59          1           0      -10.493812    1.705299    1.394272
     60          1           0      -12.144499   -2.897524    0.986975
     61          1           0       -8.892279   -1.790713    0.114735
     62          1           0       -5.319006   -1.655409   -0.647273
     63          1           0       -5.797320   -1.979133    1.205620
     64          1           0       -6.913701   -2.591909    0.121729
     65          1           0       -7.097643    1.742150    0.036899
     66          1           0       -4.668033    0.182814   -0.398744
     67          1           0       13.208400   -1.349041    2.236249
     68          1           0       11.609684   -2.204799    1.582572
     69          1           0       13.703490   -2.771144    0.101141
     70          1           0       12.686685   -2.132458   -2.183569
     71          1           0       11.564572   -2.335931   -0.802142
     72          1           0       11.683403   -0.315845    3.577791
     73          1           0       10.612046    0.888734    2.692025
     74          1           0        9.960603   -0.790105    2.563816
     75          1           0       13.630741    1.101938    0.598650
     76          1           0       12.404178    2.059902    1.608569
     77          1           0       13.564037    1.175540    2.472598
     78          1           0       12.859016    0.434797   -3.008923
     79          1           0       12.043290    1.648155   -1.898202
     80          1           0       13.534875    0.727045   -1.401496
     81          1           0       -5.407701    3.188155   -0.379579
     82          1           0       10.044721   -0.009392   -2.177689
     83          1           0       15.135374   -1.235850    0.671157
     84          1           0        8.463860    2.032182   -0.090624
     85          1           0       -2.211125    4.363297    0.351801
     86          1           0       -2.426579    4.267823   -1.449110
     87          1           0       -3.974770    4.561434   -0.427448
     88          1           0       -2.577521    0.453221    0.290725
     89          1           0        6.762813   -2.067041   -0.161612
     90          1           0        8.452591   -1.727482   -0.743854
     91          1           0        8.042860   -1.976175    1.025731
     92          1           0        6.306686    1.605213   -0.321938
     93          1           0       -0.586137    3.063465   -0.135458
     94          1           0        4.898196   -1.081046    0.226287
     95          1           0       -0.338439   -0.105483    0.076632
     96          1           0        4.033043    1.835028   -0.284237
     97          1           0        1.574035    2.159993   -0.176224
     98          1           0        0.969485   -1.510961    0.348237
     99          1           0        2.490292   -1.846256   -0.515520
    100          1           0        2.783485   -1.376087    1.211972
 ---------------------------------------------------------------------

 SCF Done:  E(RCAM-B3LYP) =  -1857.27318070     A.U. after   15 cycles

 Excitation energies and oscillator strengths:

 Excited State   1:      Singlet-A      2.2532 eV  550.27 nm  f=2.6414  <S**2>=0.000
     163 ->166         0.13495
     164 ->165         0.69308
 This state for optimization and/or second-order correction.
 Total Energy, E(TD-HF/TD-DFT) =  -1857.19037885
 Copying the excited state density for this state as the 1-particle RhoCI density.

 The electronic state is 1-A.
 Alpha  occ. eigenvalues --  -19.23629 -19.21451 -19.20855 -19.19640 -10.31727
 Alpha  occ. eigenvalues --  -10.31244 -10.31098 -10.30865 -10.29539 -10.28660
 Alpha  occ. eigenvalues --  -10.28645 -10.28414 -10.28238 -10.28181 -10.28083
 Alpha  occ. eigenvalues --  -10.28034 -10.27726 -10.27531 -10.27443 -10.27320
 Alpha  occ. eigenvalues --  -10.27175 -10.27096 -10.27069 -10.27049 -10.27030
 Alpha  occ. eigenvalues --  -10.26827 -10.26718 -10.26694 -10.26528 -10.26413
 Alpha  occ. eigenvalues --  -10.26397 -10.26269 -10.25966 -10.25906 -10.25740
 Alpha  occ. eigenvalues --  -10.25698 -10.25561 -10.25481 -10.25385 -10.24991
 Alpha  occ. eigenvalues --  -10.23935 -10.23510 -10.22973 -10.22946  -1.17816
 Alpha  occ. eigenvalues --   -1.11581  -1.09522  -1.07892  -0.93193  -0.92814
 Alpha  occ. eigenvalues --   -0.92396  -0.91701  -0.90669  -0.90408  -0.87931
 Alpha  occ. eigenvalues --   -0.87203  -0.86328  -0.85616  -0.84832  -0.83054
 Alpha  occ. eigenvalues --   -0.82313  -0.81738  -0.80223  -0.78561  -0.77545
 Alpha  occ. eigenvalues --   -0.76681  -0.76132  -0.75841  -0.75534  -0.75360
 Alpha  occ. eigenvalues --   -0.75100  -0.74323  -0.73086  -0.71082  -0.70153
 Alpha  occ. eigenvalues --   -0.68668  -0.66927  -0.65280  -0.64339  -0.64330
 Alpha  occ. eigenvalues --   -0.63311  -0.61766  -0.61372  -0.60752  -0.60048
 Alpha  occ. eigenvalues --   -0.59669  -0.58730  -0.58273  -0.57265  -0.57242
 Alpha  occ. eigenvalues --   -0.56145  -0.55777  -0.55525  -0.54884  -0.54365
 Alpha  occ. eigenvalues --   -0.54129  -0.53203  -0.52949  -0.52592  -0.52101
 Alpha  occ. eigenvalues --   -0.51511  -0.51274  -0.50860  -0.50411  -0.49917
 Alpha  occ. eigenvalues --   -0.49776  -0.49472  -0.49139  -0.48675  -0.48004
 Alpha  occ. eigenvalues --   -0.47842  -0.47464  -0.47232  -0.46914  -0.46631
 Alpha  occ. eigenvalues --   -0.46428  -0.46097  -0.45759  -0.45072  -0.44827
 Alpha  occ. eigenvalues --   -0.44459  -0.44287  -0.43922  -0.43744  -0.43295
 Alpha  occ. eigenvalues --   -0.43136  -0.42930  -0.42848  -0.42494  -0.42362
 Alpha  occ. eigenvalues --   -0.42283  -0.42090  -0.41920  -0.41712  -0.41254
 Alpha  occ. eigenvalues --   -0.41245  -0.41003  -0.40320  -0.39953  -0.39903
 Alpha  occ. eigenvalues --   -0.39658  -0.39135  -0.39008  -0.38995  -0.38910
 Alpha  occ. eigenvalues --   -0.38366  -0.38055  -0.37790  -0.37237  -0.36686
 Alpha  occ. eigenvalues --   -0.36269  -0.36033  -0.35449  -0.34894  -0.33817
 Alpha  occ. eigenvalues --   -0.33312  -0.32687  -0.31999  -0.31702  -0.31072
 Alpha  occ. eigenvalues --   -0.29092  -0.27889  -0.24495  -0.20303
 Alpha virt. eigenvalues --   -0.05892  -0.00943   0.02651   0.06017   0.07098
 Alpha virt. eigenvalues --    0.08691   0.09823   0.10228   0.11142   0.11427
 Alpha virt. eigenvalues --    0.11734   0.12073   0.12558   0.12972   0.13462

 Mulliken charges:
               1
     1  O   -0.490815
     2  O   -0.565517
     3  O   -0.542610
     4  O   -0.539553
     5  C    0.137007
     6  C    0.268246
     7  C    0.031189
     8  C   -0.232907
     9  C   -0.197450
    10  C    0.170181
    11  C   -0.323747
    12  C   -0.103902
    13  C   -0.306015
    14  C   -0.306138
    15  C   -0.047681
    16  C    0.092470
    17  C   -0.367708
    18  C   -0.109264
    19  C   -0.044326
    20  C    0.020514
    21  C    0.267350
    22  C   -0.188404
    23  C    0.150789
    24  C   -0.204712
    25  C   -0.068256
    26  C   -0.272486
    27  C   -0.309158
    28  C   -0.301376
    29  C   -0.116183
    30  C    0.118914
    31  C    0.094351
    32  C   -0.295518
    33  C   -0.367809
    34  C   -0.118115
    35  C    0.114250
    36  C   -0.372584
    37  C   -0.111787
    38  C   -0.086309
    39  C   -0.071510
    40  C   -0.103677
    41  C   -0.108223
    42  C   -0.106299
    43  C    0.139303
    44  C   -0.367552
    45  H    0.120675
    46  H    0.103555
    47  H    0.090530
    48  H    0.111397
    49  H    0.109006
    50  H    0.069159
    51  H    0.111212
    52  H    0.127432
    53  H    0.117600
    54  H    0.087863
    55  H    0.114834
    56  H    0.091954
    57  H    0.125077
    58  H    0.089635
    59  H    0.108819
    60  H    0.298797
    61  H    0.071999
    62  H    0.092989
    63  H    0.093235
    64  H    0.111903
    65  H    0.085768
    66  H    0.073180
    67  H    0.083997
    68  H    0.121313
    69  H    0.096498
    70  H    0.122051
    71  H    0.089968
    72  H    0.057813
    73  H    0.122503
    74  H    0.077892
    75  H    0.143348
    76  H    0.098233
    77  H    0.078786
    78  H    0.092746
    79  H    0.075948
    80  H    0.139352
    81  H    0.070112
    82  H    0.288942
    83  H    0.306461
    84  H    0.109104
    85  H    0.082223
    86  H    0.140854
    87  H    0.093541
    88  H    0.104703
    89  H    0.095655
    90  H    0.148386
    91  H    0.077374
    92  H    0.069341
    93  H    0.097752
    94  H    0.078666
    95  H    0.071538
    96  H    0.084766
    97  H    0.075928
    98  H    0.069499
    99  H    0.138928
   100  H    0.132193
 Sum of Mulliken charges =  -0.00000

 Dipole moment (field-independent basis, Debye):
    X=              3.0837    Y=             -0.2024    Z=              1.4359  Tot=              3.4077
 Quadrupole moment (field-independent basis, Debye-Ang):
   XX=           -284.2180   YY=           -259.7960   ZZ=           -277.6970
   XY=             -9.6913   XZ=             30.8088   YZ=             -0.6645

 Normal termination of Gaussian 16 at Thu Aug  1 08:41:33 2019.
