 Gaussian 16, Revision A.03,
 Gaussian 16:  ES64L-G16RevA.03 25-Dec-2016

 -------------------------------------
 # td=(NStates=1) CAM-B3LYP/6-31G(d,p)
 -------------------------------------

 --
 TD
 --
 Symbolic Z-matrix:
 Charge =  0 Multiplicity = 1

                         Standard orientation:
 ---------------------------------------------------------------------
 Center     Atomic      Atomic             Coordinates (Angstroms)
 Number     Number       Type             X           Y           Z
 ---------------------------------------------------------------------
      1          8           0      -11.859688    0.345519   -1.561024
      2          8           0      -13.115796   -2.302972    1.449110
      3          8           0       10.736547   -0.945197   -2.163124
      4          8           0       14.566763   -0.926059   -0.067187
      5          6           0      -11.134647    0.015063   -0.329676
      6          6           0      -11.774415   -1.095153   -1.216237
      7          6           0      -11.847115    0.548880    0.906817
      8          6           0      -13.165977   -1.695111   -0.953985
      9          6           0      -13.344417    0.119437    0.828217
     10          6           0      -13.562849   -1.354623    0.491071
     11          6           0      -10.899546   -1.921776   -2.110790
     12          6           0       -9.626429    0.185377   -0.416720
     13          6           0      -11.124702   -0.010468    2.167686
     14          6           0      -11.821513    2.051462    0.905355
     15          6           0       -8.763251   -0.713927    0.027280
     16          6           0       -7.335599   -0.599566    0.192214
     17          6           0       -6.586134   -1.842774    0.692565
     18          6           0       -6.680203    0.582326    0.062362
     19          6           0       -5.274750    0.839485    0.034767
     20          6           0       11.989824    0.273899    1.336263
     21          6           0       11.811619   -0.429392   -1.265048
     22          6           0       12.814461   -1.078040    1.535659
     23          6           0       13.521511   -1.714580    0.333451
     24          6           0       12.475904   -1.847829   -0.837402
     25          6           0       11.202631    0.130146   -0.055419
     26          6           0       10.984202    0.482562    2.562077
     27          6           0       12.972523    1.408235    1.267092
     28          6           0       12.694498    0.431973   -1.922677
     29          6           0       -4.693023    1.990080   -0.349992
     30          6           0        9.940005    0.488850   -0.117148
     31          6           0       -3.384299    2.401797   -0.482396
     32          6           0        8.670303    0.951515   -0.203487
     33          6           0       -3.019596    3.713567   -0.978901
     34          6           0       -2.370717    1.396660   -0.313310
     35          6           0        7.537194    0.031437   -0.063000
     36          6           0        7.816391   -1.455866    0.093585
     37          6           0        6.267899    0.539216    0.011622
     38          6           0       -0.950632    1.704749   -0.216886
     39          6           0        5.039783   -0.092720   -0.130215
     40          6           0        0.001723    0.738492   -0.167134
     41          6           0        3.833028    0.610415   -0.134165
     42          6           0        1.385027    0.910644   -0.194884
     43          6           0        2.506300    0.107867    0.017722
     44          6           0        2.287113   -1.388032    0.406788
     45          1           0      -13.347277   -2.653965   -1.176380
     46          1           0      -13.786758   -1.112405   -1.561570
     47          1           0      -13.877335    0.351097    1.686001
     48          1           0      -14.009781    0.798509    0.155722
     49          1           0      -14.518492   -1.872785    0.679054
     50          1           0      -10.814513   -2.929253   -1.660895
     51          1           0      -11.377492   -1.951640   -3.054420
     52          1           0       -9.869306   -1.519619   -2.220955
     53          1           0       -9.389928    1.121317   -0.839786
     54          1           0      -10.091091    0.211167    2.066051
     55          1           0      -11.503301    0.730064    2.959363
     56          1           0      -11.224057   -1.129401    2.234563
     57          1           0      -12.178767    2.398539    0.008754
     58          1           0      -12.166931    2.372709    1.901926
     59          1           0      -10.885194    2.440828    1.064107
     60          1           0      -12.206422   -2.814817    0.888184
     61          1           0       -9.316533   -1.521700    0.374964
     62          1           0       -5.912822   -2.428626   -0.040924
     63          1           0       -5.900731   -1.667666    1.474190
     64          1           0       -7.427393   -2.515519    0.911440
     65          1           0       -7.196618    1.548644    0.002492
     66          1           0       -4.589807   -0.022325    0.172369
     67          1           0       13.515897   -0.826358    2.308837
     68          1           0       12.037630   -1.816336    2.150763
     69          1           0       13.935756   -2.526195    0.769310
     70          1           0       12.930524   -2.501111   -1.580584
     71          1           0       11.718972   -2.434349   -0.179166
     72          1           0       11.570263    0.667295    3.422819
     73          1           0       10.475076    1.626104    2.315495
     74          1           0       10.075325   -0.237801    2.728360
     75          1           0       13.736727    1.046233    0.439913
     76          1           0       12.426432    2.424365    1.147630
     77          1           0       13.358220    1.446015    2.281203
     78          1           0       13.179556   -0.095688   -2.901026
     79          1           0       12.442486    1.481524   -2.257748
     80          1           0       13.561857    0.626002   -1.370861
     81          1           0       -5.468458    2.546057   -0.633600
     82          1           0       10.145523   -0.067829   -2.199254
     83          1           0       15.311744   -1.104459    0.595140
     84          1           0        8.544564    2.216263   -0.502387
     85          1           0       -2.395411    4.205926   -0.225139
     86          1           0       -2.266353    3.544353   -1.852422
     87          1           0       -4.033700    4.310472   -1.046873
     88          1           0       -2.623326    0.489648   -0.035246
     89          1           0        6.845783   -2.075788    0.269849
     90          1           0        8.533397   -1.635927   -0.739178
     91          1           0        8.205918   -1.768775    1.228112
     92          1           0        6.083929    1.522270   -0.200887
     93          1           0       -0.549603    2.799807   -0.135375
     94          1           0        5.100213   -1.358921   -0.094568
     95          1           0       -0.201798   -0.401165   -0.130025
     96          1           0        3.861286    1.632669   -0.247356
     97          1           0        1.879282    1.809129   -0.308248
     98          1           0        1.310545   -1.582015    0.433301
     99          1           0        2.722954   -1.821914   -0.387127
    100          1           0        2.643991   -1.828648    1.171177
 ---------------------------------------------------------------------

 SCF Done:  E(RCAM-B3LYP) =  -1857.23095966     A.U. after   15 cycles

 Excitation energies and oscillator strengths:

 Excited State   1:      Singlet-A      2.1765 eV  569.64 nm  f=3.1071  <S**2>=0.000
     163 ->166        -0.14483
     164 ->165         0.69203
 This state for optimization and/or second-order correction.
 Total Energy, E(TD-HF/TD-DFT) =  -1857.15097383
 Copying the excited state density for this state as the 1-particle RhoCI density.

 The electronic state is 1-A.
 Alpha  occ. eigenvalues --  -19.23246 -19.22452 -19.21493 -19.21179 -10.32399
 Alpha  occ. eigenvalues --  -10.32155 -10.31595 -10.30820 -10.29685 -10.29661
 Alpha  occ. eigenvalues --  -10.29279 -10.28329 -10.28052 -10.27820 -10.27618
 Alpha  occ. eigenvalues --  -10.27530 -10.27499 -10.27481 -10.27400 -10.27284
 Alpha  occ. eigenvalues --  -10.27151 -10.27090 -10.26829 -10.26797 -10.26775
 Alpha  occ. eigenvalues --  -10.26585 -10.26209 -10.26179 -10.25943 -10.25931
 Alpha  occ. eigenvalues --  -10.25926 -10.25731 -10.25704 -10.25562 -10.25044
 Alpha  occ. eigenvalues --  -10.24987 -10.24810 -10.24686 -10.24683 -10.24667
 Alpha  occ. eigenvalues --  -10.24612 -10.24088 -10.22761 -10.21740  -1.12625
 Alpha  occ. eigenvalues --   -1.11983  -1.07542  -1.06918  -0.92786  -0.92526
 Alpha  occ. eigenvalues --   -0.91888  -0.91350  -0.90403  -0.89998  -0.87495
 Alpha  occ. eigenvalues --   -0.86697  -0.86454  -0.86004  -0.84991  -0.83461
 Alpha  occ. eigenvalues --   -0.82733  -0.81226  -0.80851  -0.79542  -0.77422
 Alpha  occ. eigenvalues --   -0.76983  -0.76708  -0.76242  -0.76119  -0.75242
 Alpha  occ. eigenvalues --   -0.74829  -0.73975  -0.73278  -0.70071  -0.69233
 Alpha  occ. eigenvalues --   -0.68182  -0.66986  -0.65139  -0.64754  -0.64468
 Alpha  occ. eigenvalues --   -0.63811  -0.62239  -0.60835  -0.60392  -0.60177
 Alpha  occ. eigenvalues --   -0.59958  -0.58622  -0.58351  -0.57643  -0.56931
 Alpha  occ. eigenvalues --   -0.56735  -0.55129  -0.54793  -0.54752  -0.53946
 Alpha  occ. eigenvalues --   -0.53304  -0.53093  -0.52757  -0.52160  -0.51965
 Alpha  occ. eigenvalues --   -0.51262  -0.50676  -0.50660  -0.50357  -0.50171
 Alpha  occ. eigenvalues --   -0.49820  -0.49149  -0.49051  -0.48922  -0.48459
 Alpha  occ. eigenvalues --   -0.48188  -0.47920  -0.47703  -0.47295  -0.46829
 Alpha  occ. eigenvalues --   -0.46749  -0.46255  -0.46175  -0.45611  -0.45204
 Alpha  occ. eigenvalues --   -0.44838  -0.44742  -0.44556  -0.43964  -0.43715
 Alpha  occ. eigenvalues --   -0.43521  -0.43187  -0.43011  -0.42683  -0.42609
 Alpha  occ. eigenvalues --   -0.42281  -0.41944  -0.41542  -0.41390  -0.41212
 Alpha  occ. eigenvalues --   -0.40764  -0.40562  -0.40171  -0.39982  -0.39797
 Alpha  occ. eigenvalues --   -0.39175  -0.39165  -0.39006  -0.38790  -0.38777
 Alpha  occ. eigenvalues --   -0.38379  -0.37875  -0.37601  -0.37406  -0.37284
 Alpha  occ. eigenvalues --   -0.36329  -0.36113  -0.35091  -0.34114  -0.33238
 Alpha  occ. eigenvalues --   -0.33047  -0.32374  -0.31625  -0.31054  -0.30082
 Alpha  occ. eigenvalues --   -0.29986  -0.28183  -0.24174  -0.19757
 Alpha virt. eigenvalues --   -0.05958  -0.01179   0.03090   0.05643   0.05845
 Alpha virt. eigenvalues --    0.06752   0.08815   0.10306   0.11254   0.12230
 Alpha virt. eigenvalues --    0.12697   0.13128   0.13285   0.13677   0.13886

 Mulliken charges:
               1
     1  O   -0.525691
     2  O   -0.547404
     3  O   -0.570011
     4  O   -0.527261
     5  C    0.196062
     6  C    0.195127
     7  C    0.023940
     8  C   -0.211592
     9  C   -0.172120
    10  C    0.149516
    11  C   -0.329716
    12  C   -0.104706
    13  C   -0.310309
    14  C   -0.316661
    15  C   -0.066279
    16  C    0.092174
    17  C   -0.370099
    18  C   -0.131639
    19  C   -0.057026
    20  C    0.024746
    21  C    0.244224
    22  C   -0.197014
    23  C    0.149608
    24  C   -0.182777
    25  C   -0.051342
    26  C   -0.300381
    27  C   -0.292707
    28  C   -0.310150
    29  C   -0.106146
    30  C    0.123197
    31  C    0.115391
    32  C   -0.260785
    33  C   -0.380404
    34  C   -0.101526
    35  C    0.096344
    36  C   -0.349843
    37  C   -0.092223
    38  C   -0.105240
    39  C   -0.074396
    40  C   -0.067691
    41  C   -0.130365
    42  C   -0.110811
    43  C    0.067271
    44  C   -0.351232
    45  H    0.102655
    46  H    0.141481
    47  H    0.104349
    48  H    0.095190
    49  H    0.103541
    50  H    0.090215
    51  H    0.124152
    52  H    0.125219
    53  H    0.098323
    54  H    0.113791
    55  H    0.084560
    56  H    0.114305
    57  H    0.131882
    58  H    0.097011
    59  H    0.102353
    60  H    0.268961
    61  H    0.071269
    62  H    0.107380
    63  H    0.134275
    64  H    0.107347
    65  H    0.081322
    66  H    0.065519
    67  H    0.077355
    68  H    0.071086
    69  H    0.089098
    70  H    0.114636
    71  H    0.107804
    72  H    0.108233
    73  H    0.071551
    74  H    0.112995
    75  H    0.125990
    76  H    0.093167
    77  H    0.096298
    78  H    0.096505
    79  H    0.101278
    80  H    0.147749
    81  H    0.057921
    82  H    0.296660
    83  H    0.311341
    84  H    0.098570
    85  H    0.129486
    86  H    0.134355
    87  H    0.104512
    88  H    0.077076
    89  H    0.103494
    90  H    0.150169
    91  H    0.091909
    92  H    0.074216
    93  H    0.088212
    94  H    0.062592
    95  H    0.080468
    96  H    0.083378
    97  H    0.054340
    98  H    0.098956
    99  H    0.127938
   100  H    0.123512
 Sum of Mulliken charges =  -0.00000

 Dipole moment (field-independent basis, Debye):
    X=              5.5385    Y=             -0.5757    Z=              1.9482  Tot=              5.8993
 Quadrupole moment (field-independent basis, Debye-Ang):
   XX=           -235.5462   YY=           -255.5850   ZZ=           -282.5529
   XY=              1.9372   XZ=             39.6182   YZ=             -1.7465

 Normal termination of Gaussian 16 at Fri Aug  2 11:09:51 2019.
