 Gaussian 16, Revision A.03,
 Gaussian 16:  ES64L-G16RevA.03 25-Dec-2016

 -------------------------------------
 # td=(NStates=1) CAM-B3LYP/6-31G(d,p)
 -------------------------------------

 --
 TD
 --
 Symbolic Z-matrix:
 Charge =  0 Multiplicity = 1

                         Standard orientation:
 ---------------------------------------------------------------------
 Center     Atomic      Atomic             Coordinates (Angstroms)
 Number     Number       Type             X           Y           Z
 ---------------------------------------------------------------------
      1          8           0      -11.624113    0.261943   -1.497960
      2          8           0      -12.938834   -2.414354    1.242161
      3          8           0       10.568809   -1.117561   -2.126351
      4          8           0       14.457754   -1.031764    0.075160
      5          6           0      -10.991023   -0.151992   -0.293480
      6          6           0      -11.700831   -1.088080   -1.274445
      7          6           0      -11.754074    0.352163    0.918302
      8          6           0      -13.049935   -1.718864   -1.066086
      9          6           0      -13.203179   -0.014367    0.926294
     10          6           0      -13.496398   -1.430806    0.433374
     11          6           0      -10.871114   -1.936618   -2.284849
     12          6           0       -9.505901    0.063956   -0.318067
     13          6           0      -11.073564   -0.261831    2.293448
     14          6           0      -11.547340    1.885171    0.968603
     15          6           0       -8.575298   -0.909769    0.141280
     16          6           0       -7.095196   -0.672419    0.295393
     17          6           0       -6.317911   -2.007152    0.489160
     18          6           0       -6.560559    0.480071    0.008140
     19          6           0       -5.218714    0.877628   -0.020871
     20          6           0       11.857504    0.059829    1.473038
     21          6           0       11.627781   -0.745184   -1.285489
     22          6           0       12.434189   -1.329809    1.583037
     23          6           0       13.268665   -1.855780    0.409176
     24          6           0       12.367031   -2.016847   -0.795756
     25          6           0       11.157057    0.000527   -0.062682
     26          6           0       10.848660    0.373446    2.419989
     27          6           0       12.922746    1.255643    1.285848
     28          6           0       12.580953    0.209562   -2.073406
     29          6           0       -4.786408    2.118296   -0.199760
     30          6           0        9.932627    0.562135   -0.113184
     31          6           0       -3.369953    2.495421   -0.373850
     32          6           0        8.611165    0.878735   -0.471384
     33          6           0       -3.041788    3.929809   -0.745947
     34          6           0       -2.344584    1.721536   -0.047079
     35          6           0        7.452091    0.189742   -0.120641
     36          6           0        7.649732   -1.254833    0.230529
     37          6           0        6.223000    0.763249   -0.250766
     38          6           0       -0.942375    2.017814   -0.338012
     39          6           0        4.977509    0.192347   -0.040348
     40          6           0        0.024729    1.065164   -0.054410
     41          6           0        3.748483    0.926524   -0.282907
     42          6           0        1.426249    1.417628   -0.179722
     43          6           0        2.500203    0.453600    0.066872
     44          6           0        2.282983   -0.951391    0.350280
     45          1           0      -13.195844   -2.770686   -1.526497
     46          1           0      -13.595783   -1.060331   -1.684303
     47          1           0      -13.529888    0.011811    1.902023
     48          1           0      -13.731611    0.782144    0.323867
     49          1           0      -14.677660   -1.682041    0.585398
     50          1           0      -10.410260   -2.932487   -1.968038
     51          1           0      -11.500534   -2.067589   -3.206289
     52          1           0      -10.004093   -1.299433   -2.549891
     53          1           0       -9.058180    1.077956   -0.645629
     54          1           0       -9.871240   -0.153364    2.209396
     55          1           0      -11.600550    0.342292    3.180692
     56          1           0      -11.203225   -1.336578    2.535899
     57          1           0      -11.798048    2.243656   -0.232720
     58          1           0      -12.225991    2.306127    1.813700
     59          1           0      -10.530578    2.173980    1.177435
     60          1           0      -12.075533   -2.151432    1.062731
     61          1           0       -8.921280   -1.848562    0.377806
     62          1           0       -5.988460   -2.538256   -0.367740
     63          1           0       -5.777593   -1.915037    1.560992
     64          1           0       -7.256646   -2.787977    0.798601
     65          1           0       -7.266100    1.227057   -0.219480
     66          1           0       -4.456940    0.207726    0.185447
     67          1           0       13.066277   -1.258558    2.412225
     68          1           0       11.759646   -2.239307    1.934051
     69          1           0       13.550482   -2.913099    0.560516
     70          1           0       12.865819   -2.406471   -1.729283
     71          1           0       11.579476   -2.611364   -0.164508
     72          1           0       11.279224    0.159146    3.504069
     73          1           0       10.306738    1.361228    2.411013
     74          1           0        9.984969   -0.356007    2.567676
     75          1           0       13.535007    1.158790    0.200851
     76          1           0       12.297686    2.139344    1.194923
     77          1           0       13.453287    1.367089    2.197454
     78          1           0       12.520975   -0.074171   -3.119569
     79          1           0       12.146261    1.283687   -2.048358
     80          1           0       13.688455    0.359566   -1.533560
     81          1           0       -5.580733    2.946766   -0.609490
     82          1           0        9.845731   -0.475183   -2.221607
     83          1           0       14.832171   -0.961335    1.043893
     84          1           0        8.585889    2.018635   -0.811629
     85          1           0       -2.582872    4.549541    0.147514
     86          1           0       -2.553613    4.154099   -1.782069
     87          1           0       -3.917505    4.451406   -1.018042
     88          1           0       -2.625776    0.671729    0.239625
     89          1           0        6.712939   -1.667641    0.354162
     90          1           0        8.272499   -1.788513   -0.570269
     91          1           0        8.318483   -1.484738    1.098896
     92          1           0        6.198432    1.887206   -0.507462
     93          1           0       -0.537374    2.996264   -0.495467
     94          1           0        4.972374   -0.803221    0.290824
     95          1           0       -0.397193    0.061634    0.181418
     96          1           0        3.963661    1.799071   -0.732420
     97          1           0        1.611026    2.454327   -0.531517
     98          1           0        1.296119   -1.177405    0.472768
     99          1           0        2.763929   -1.365003   -0.567958
    100          1           0        3.071373   -1.318138    1.176121
 ---------------------------------------------------------------------

 SCF Done:  E(RCAM-B3LYP) =  -1857.30982195     A.U. after   15 cycles

 Excitation energies and oscillator strengths:

 Excited State   1:      Singlet-A      2.3231 eV  533.71 nm  f=3.3341  <S**2>=0.000
     163 ->166        -0.14542
     164 ->165         0.69028
 This state for optimization and/or second-order correction.
 Total Energy, E(TD-HF/TD-DFT) =  -1857.22445063
 Copying the excited state density for this state as the 1-particle RhoCI density.

 The electronic state is 1-A.
 Alpha  occ. eigenvalues --  -19.23133 -19.23019 -19.20894 -19.20570 -10.32750
 Alpha  occ. eigenvalues --  -10.32414 -10.32085 -10.31968 -10.31874 -10.29817
 Alpha  occ. eigenvalues --  -10.28381 -10.28219 -10.28151 -10.28081 -10.27904
 Alpha  occ. eigenvalues --  -10.27661 -10.27636 -10.27562 -10.27533 -10.27509
 Alpha  occ. eigenvalues --  -10.27457 -10.27212 -10.27170 -10.27066 -10.27009
 Alpha  occ. eigenvalues --  -10.26966 -10.26861 -10.26500 -10.26441 -10.26410
 Alpha  occ. eigenvalues --  -10.26350 -10.26273 -10.26270 -10.26215 -10.26207
 Alpha  occ. eigenvalues --  -10.26110 -10.25933 -10.25779 -10.25715 -10.25507
 Alpha  occ. eigenvalues --  -10.25209 -10.25111 -10.25108 -10.24982  -1.18086
 Alpha  occ. eigenvalues --   -1.12684  -1.09575  -1.08114  -0.93151  -0.92746
 Alpha  occ. eigenvalues --   -0.92452  -0.91216  -0.90872  -0.90303  -0.87231
 Alpha  occ. eigenvalues --   -0.86846  -0.86201  -0.85384  -0.84524  -0.83136
 Alpha  occ. eigenvalues --   -0.82091  -0.79798  -0.79329  -0.78005  -0.76816
 Alpha  occ. eigenvalues --   -0.76726  -0.76614  -0.76386  -0.76111  -0.75508
 Alpha  occ. eigenvalues --   -0.74278  -0.73868  -0.72959  -0.70309  -0.69422
 Alpha  occ. eigenvalues --   -0.68522  -0.66809  -0.65471  -0.64532  -0.64298
 Alpha  occ. eigenvalues --   -0.63268  -0.61761  -0.61623  -0.60788  -0.59697
 Alpha  occ. eigenvalues --   -0.59521  -0.58840  -0.58148  -0.57681  -0.56521
 Alpha  occ. eigenvalues --   -0.55752  -0.55328  -0.54938  -0.54696  -0.54328
 Alpha  occ. eigenvalues --   -0.53741  -0.52942  -0.52711  -0.52446  -0.52116
 Alpha  occ. eigenvalues --   -0.51178  -0.51139  -0.50704  -0.50382  -0.49760
 Alpha  occ. eigenvalues --   -0.49658  -0.48804  -0.48569  -0.48257  -0.48018
 Alpha  occ. eigenvalues --   -0.47938  -0.47625  -0.47369  -0.46841  -0.46630
 Alpha  occ. eigenvalues --   -0.46375  -0.46087  -0.46002  -0.45711  -0.45492
 Alpha  occ. eigenvalues --   -0.45308  -0.44862  -0.44592  -0.44227  -0.44101
 Alpha  occ. eigenvalues --   -0.44096  -0.44000  -0.42855  -0.42678  -0.42535
 Alpha  occ. eigenvalues --   -0.42297  -0.42129  -0.41908  -0.41552  -0.41408
 Alpha  occ. eigenvalues --   -0.41086  -0.40567  -0.40383  -0.40106  -0.39809
 Alpha  occ. eigenvalues --   -0.39672  -0.39493  -0.39188  -0.39088  -0.38930
 Alpha  occ. eigenvalues --   -0.38627  -0.38192  -0.38075  -0.36994  -0.36862
 Alpha  occ. eigenvalues --   -0.36070  -0.35899  -0.35232  -0.34100  -0.33847
 Alpha  occ. eigenvalues --   -0.33281  -0.32407  -0.32278  -0.31747  -0.30786
 Alpha  occ. eigenvalues --   -0.29040  -0.27911  -0.24631  -0.19850
 Alpha virt. eigenvalues --   -0.05645  -0.01475   0.02772   0.06032   0.06798
 Alpha virt. eigenvalues --    0.08942   0.09589   0.11359   0.11506   0.11633
 Alpha virt. eigenvalues --    0.12536   0.12728   0.12883   0.13421   0.13831

 Mulliken charges:
               1
     1  O   -0.486022
     2  O   -0.507639
     3  O   -0.580367
     4  O   -0.545325
     5  C    0.182157
     6  C    0.235232
     7  C    0.013875
     8  C   -0.202403
     9  C   -0.167310
    10  C    0.105474
    11  C   -0.337170
    12  C   -0.116873
    13  C   -0.333218
    14  C   -0.305204
    15  C   -0.087199
    16  C    0.073343
    17  C   -0.368342
    18  C   -0.079707
    19  C   -0.042551
    20  C    0.078449
    21  C    0.301223
    22  C   -0.223647
    23  C    0.141504
    24  C   -0.176458
    25  C   -0.078359
    26  C   -0.329934
    27  C   -0.303903
    28  C   -0.326542
    29  C   -0.115667
    30  C    0.048709
    31  C    0.094708
    32  C   -0.275288
    33  C   -0.375813
    34  C   -0.127233
    35  C    0.152153
    36  C   -0.372911
    37  C   -0.116528
    38  C   -0.085896
    39  C   -0.101064
    40  C   -0.075033
    41  C   -0.101169
    42  C   -0.142888
    43  C    0.110337
    44  C   -0.360548
    45  H    0.113668
    46  H    0.126174
    47  H    0.118696
    48  H    0.107518
    49  H    0.069076
    50  H    0.103976
    51  H    0.105091
    52  H    0.116980
    53  H    0.107877
    54  H    0.098460
    55  H    0.088879
    56  H    0.114820
    57  H    0.098757
    58  H    0.095330
    59  H    0.115794
    60  H    0.295940
    61  H    0.082972
    62  H    0.149155
    63  H    0.120519
    64  H    0.067761
    65  H    0.065116
    66  H    0.077935
    67  H    0.091065
    68  H    0.102087
    69  H    0.101010
    70  H    0.113792
    71  H    0.094004
    72  H    0.075848
    73  H    0.125564
    74  H    0.113965
    75  H    0.119138
    76  H    0.113680
    77  H    0.096808
    78  H    0.115515
    79  H    0.086175
    80  H    0.122088
    81  H    0.070078
    82  H    0.311179
    83  H    0.308940
    84  H    0.093723
    85  H    0.116094
    86  H    0.107323
    87  H    0.107227
    88  H    0.072687
    89  H    0.105983
    90  H    0.127616
    91  H    0.115326
    92  H    0.074000
    93  H    0.093562
    94  H    0.074656
    95  H    0.086309
    96  H    0.077818
    97  H    0.094483
    98  H    0.116008
    99  H    0.137648
   100  H    0.109156
 Sum of Mulliken charges =  -0.00000

 Dipole moment (field-independent basis, Debye):
    X=              2.4251    Y=             -0.0377    Z=              2.2473  Tot=              3.3065
 Quadrupole moment (field-independent basis, Debye-Ang):
   XX=           -293.1520   YY=           -264.1494   ZZ=           -275.4044
   XY=             -8.4498   XZ=             42.3932   YZ=             -4.0000

 Normal termination of Gaussian 16 at Thu Aug  1 20:24:42 2019.
