 Gaussian 16, Revision A.03,
 Gaussian 16:  ES64L-G16RevA.03 25-Dec-2016

 -------------------------------------
 # td=(NStates=1) CAM-B3LYP/6-31G(d,p)
 -------------------------------------

 --
 TD
 --
 Symbolic Z-matrix:
 Charge =  0 Multiplicity = 1

                         Standard orientation:
 ---------------------------------------------------------------------
 Center     Atomic      Atomic             Coordinates (Angstroms)
 Number     Number       Type             X           Y           Z
 ---------------------------------------------------------------------
      1          8           0      -11.818015    0.221078   -1.475874
      2          8           0      -12.836954   -2.646922    1.295476
      3          8           0       10.542987   -1.026797   -1.978039
      4          8           0       14.367653   -1.223808   -0.081926
      5          6           0      -11.069072   -0.155742   -0.239739
      6          6           0      -11.554971   -1.125618   -1.200944
      7          6           0      -11.842960    0.214234    1.018768
      8          6           0      -12.864704   -1.877835   -1.074860
      9          6           0      -13.343359   -0.188805    0.874370
     10          6           0      -13.418589   -1.602168    0.400263
     11          6           0      -10.686584   -1.877288   -2.102919
     12          6           0       -9.562939    0.212743   -0.305416
     13          6           0      -11.232034   -0.274749    2.312668
     14          6           0      -11.879889    1.766066    1.066627
     15          6           0       -8.650516   -0.672806    0.123452
     16          6           0       -7.240416   -0.481199    0.112642
     17          6           0       -6.360485   -1.717531    0.344694
     18          6           0       -6.671149    0.731416   -0.058504
     19          6           0       -5.314704    0.890409   -0.061549
     20          6           0       12.038116   -0.023171    1.407496
     21          6           0       11.660904   -0.602288   -1.166945
     22          6           0       12.634843   -1.359903    1.557981
     23          6           0       13.285615   -1.910969    0.252722
     24          6           0       12.351245   -1.949860   -0.949508
     25          6           0       11.097644    0.031733    0.110746
     26          6           0       11.035063    0.101632    2.621264
     27          6           0       12.960530    1.105792    1.436704
     28          6           0       12.508009    0.366739   -1.963085
     29          6           0       -4.810646    2.164060   -0.372092
     30          6           0        9.982192    0.609042   -0.033610
     31          6           0       -3.418030    2.581064   -0.397155
     32          6           0        8.664012    1.117397   -0.104949
     33          6           0       -3.090816    4.083262   -0.449300
     34          6           0       -2.308620    1.722416   -0.313790
     35          6           0        7.534652    0.195562   -0.060725
     36          6           0        7.760992   -1.227207    0.161615
     37          6           0        6.320846    0.777936   -0.233913
     38          6           0       -0.981664    2.028965   -0.372063
     39          6           0        4.989488    0.274239   -0.094738
     40          6           0        0.018499    1.069227   -0.251596
     41          6           0        3.768016    0.980402   -0.194679
     42          6           0        1.405765    1.271918   -0.367097
     43          6           0        2.513699    0.355947   -0.086927
     44          6           0        2.245587   -1.152961    0.026194
     45          1           0      -12.659758   -2.908906   -1.337329
     46          1           0      -13.583798   -1.325062   -1.772831
     47          1           0      -13.785675    0.063212    1.741230
     48          1           0      -13.556468    0.696189    0.132234
     49          1           0      -14.514243   -2.043220    0.432441
     50          1           0      -10.089497   -2.792819   -1.534638
     51          1           0      -11.281932   -2.110917   -3.099355
     52          1           0       -9.947914   -1.245879   -2.661327
     53          1           0       -9.175774    1.214522   -0.593070
     54          1           0      -10.058625   -0.004502    2.348802
     55          1           0      -11.718476   -0.082948    3.272598
     56          1           0      -11.213972   -1.297020    2.374008
     57          1           0      -12.299467    2.155557    0.302262
     58          1           0      -12.537780    2.101830    1.932389
     59          1           0      -10.986852    2.228681    1.439461
     60          1           0      -11.786935   -2.391927    1.488548
     61          1           0       -8.980476   -1.698053    0.598203
     62          1           0       -5.832322   -2.152494   -0.458330
     63          1           0       -5.867589   -1.482904    1.427265
     64          1           0       -7.126719   -2.597471    0.553994
     65          1           0       -7.276712    1.462529   -0.087986
     66          1           0       -4.729878    0.100037   -0.169136
     67          1           0       13.582371   -1.306151    2.289150
     68          1           0       12.060762   -2.117688    1.844784
     69          1           0       13.638199   -2.956431    0.479566
     70          1           0       12.859672   -2.104204   -1.852847
     71          1           0       11.351147   -2.509799   -0.803519
     72          1           0       11.872900    0.231778    3.342112
     73          1           0       10.454605    1.016402    2.560958
     74          1           0       10.478109   -0.714184    2.645719
     75          1           0       13.869677    0.870683    0.735831
     76          1           0       12.556539    2.050366    1.126654
     77          1           0       13.350124    1.235806    2.415902
     78          1           0       12.705728    0.050994   -3.098443
     79          1           0       12.038599    1.372805   -1.981939
     80          1           0       13.387609    0.460639   -1.455477
     81          1           0       -5.434969    3.017319   -0.469882
     82          1           0       10.196659   -0.038537   -2.310073
     83          1           0       15.021682   -1.137470    0.662327
     84          1           0        8.522136    2.143784   -0.323768
     85          1           0       -2.457609    4.521161    0.405221
     86          1           0       -2.743208    4.228378   -1.620532
     87          1           0       -4.044159    4.787697   -0.245743
     88          1           0       -2.571585    0.685744   -0.095659
     89          1           0        6.947397   -1.793622   -0.191652
     90          1           0        8.762297   -1.728662   -0.365022
     91          1           0        7.907788   -1.370764    1.255872
     92          1           0        6.237270    1.819883   -0.204637
     93          1           0       -0.702921    2.923949   -0.750913
     94          1           0        4.895910   -0.757492    0.262820
     95          1           0       -0.294477    0.164799   -0.142728
     96          1           0        3.659120    1.987554   -0.321161
     97          1           0        1.623233    2.329877   -0.633660
     98          1           0        1.128757   -1.521682    0.129462
     99          1           0        2.645175   -1.626039   -0.841123
    100          1           0        2.619527   -1.406350    0.913258
 ---------------------------------------------------------------------

 SCF Done:  E(RCAM-B3LYP) =  -1857.27991394     A.U. after   15 cycles

 Excitation energies and oscillator strengths:

 Excited State   1:      Singlet-A      1.9753 eV  627.67 nm  f=3.2879  <S**2>=0.000
     163 ->166         0.13270
     164 ->165         0.69908
     164 <-165        -0.10870
 This state for optimization and/or second-order correction.
 Total Energy, E(TD-HF/TD-DFT) =  -1857.20732233
 Copying the excited state density for this state as the 1-particle RhoCI density.

 The electronic state is 1-A.
 Alpha  occ. eigenvalues --  -19.22703 -19.21727 -19.21452 -19.21067 -10.32338
 Alpha  occ. eigenvalues --  -10.31275 -10.31011 -10.30997 -10.30712 -10.28459
 Alpha  occ. eigenvalues --  -10.28208 -10.28098 -10.27879 -10.27812 -10.27622
 Alpha  occ. eigenvalues --  -10.27420 -10.27346 -10.27287 -10.27162 -10.26887
 Alpha  occ. eigenvalues --  -10.26762 -10.26651 -10.26647 -10.26591 -10.26490
 Alpha  occ. eigenvalues --  -10.26441 -10.26043 -10.25840 -10.25839 -10.25521
 Alpha  occ. eigenvalues --  -10.25488 -10.25383 -10.25286 -10.25108 -10.25067
 Alpha  occ. eigenvalues --  -10.25048 -10.24983 -10.24954 -10.24923 -10.24919
 Alpha  occ. eigenvalues --  -10.24457 -10.23724 -10.23714 -10.23282  -1.14898
 Alpha  occ. eigenvalues --   -1.13793  -1.07870  -1.04681  -0.93670  -0.92939
 Alpha  occ. eigenvalues --   -0.91827  -0.91479  -0.91022  -0.89797  -0.87517
 Alpha  occ. eigenvalues --   -0.86580  -0.85684  -0.85601  -0.84934  -0.82732
 Alpha  occ. eigenvalues --   -0.81846  -0.80698  -0.80308  -0.78592  -0.77995
 Alpha  occ. eigenvalues --   -0.77508  -0.77185  -0.76965  -0.76840  -0.75987
 Alpha  occ. eigenvalues --   -0.75358  -0.74510  -0.72464  -0.70557  -0.69872
 Alpha  occ. eigenvalues --   -0.68217  -0.66892  -0.65420  -0.65307  -0.64825
 Alpha  occ. eigenvalues --   -0.64335  -0.62716  -0.61652  -0.60627  -0.60183
 Alpha  occ. eigenvalues --   -0.59037  -0.58432  -0.57606  -0.57332  -0.56870
 Alpha  occ. eigenvalues --   -0.55824  -0.55410  -0.55159  -0.54889  -0.54235
 Alpha  occ. eigenvalues --   -0.54042  -0.53558  -0.53056  -0.52943  -0.52025
 Alpha  occ. eigenvalues --   -0.51687  -0.51432  -0.51276  -0.50626  -0.50215
 Alpha  occ. eigenvalues --   -0.50037  -0.49319  -0.49233  -0.48978  -0.48647
 Alpha  occ. eigenvalues --   -0.48304  -0.48006  -0.47657  -0.47366  -0.47180
 Alpha  occ. eigenvalues --   -0.46472  -0.46433  -0.46360  -0.45469  -0.45056
 Alpha  occ. eigenvalues --   -0.44392  -0.44244  -0.43941  -0.43887  -0.43665
 Alpha  occ. eigenvalues --   -0.43613  -0.43173  -0.43056  -0.42771  -0.42541
 Alpha  occ. eigenvalues --   -0.42186  -0.42102  -0.42072  -0.41935  -0.41403
 Alpha  occ. eigenvalues --   -0.41314  -0.40834  -0.40640  -0.40284  -0.39989
 Alpha  occ. eigenvalues --   -0.39959  -0.39911  -0.39496  -0.39347  -0.39018
 Alpha  occ. eigenvalues --   -0.38812  -0.38209  -0.37617  -0.37503  -0.37264
 Alpha  occ. eigenvalues --   -0.36337  -0.35431  -0.35184  -0.34350  -0.33450
 Alpha  occ. eigenvalues --   -0.32539  -0.32128  -0.31752  -0.31000  -0.30728
 Alpha  occ. eigenvalues --   -0.30308  -0.27482  -0.23905  -0.18724
 Alpha virt. eigenvalues --   -0.06473  -0.00998   0.02981   0.06576   0.07144
 Alpha virt. eigenvalues --    0.09021   0.09354   0.10017   0.12010   0.12207
 Alpha virt. eigenvalues --    0.12473   0.12934   0.13835   0.14011   0.14143

 Mulliken charges:
               1
     1  O   -0.514836
     2  O   -0.575687
     3  O   -0.563803
     4  O   -0.519351
     5  C    0.201220
     6  C    0.285367
     7  C   -0.023073
     8  C   -0.181236
     9  C   -0.161883
    10  C    0.138436
    11  C   -0.345034
    12  C   -0.128632
    13  C   -0.307339
    14  C   -0.310393
    15  C   -0.062610
    16  C    0.050413
    17  C   -0.374598
    18  C   -0.026429
    19  C   -0.066056
    20  C    0.017648
    21  C    0.210059
    22  C   -0.182483
    23  C    0.151265
    24  C   -0.179733
    25  C   -0.082172
    26  C   -0.276184
    27  C   -0.311354
    28  C   -0.314823
    29  C   -0.115826
    30  C    0.117628
    31  C    0.059364
    32  C   -0.244754
    33  C   -0.362260
    34  C   -0.107345
    35  C    0.153598
    36  C   -0.390857
    37  C   -0.109536
    38  C   -0.065077
    39  C   -0.127004
    40  C   -0.050020
    41  C   -0.082876
    42  C   -0.150402
    43  C    0.087114
    44  C   -0.365341
    45  H    0.114523
    46  H    0.113792
    47  H    0.109694
    48  H    0.118997
    49  H    0.084064
    50  H    0.095380
    51  H    0.098969
    52  H    0.116839
    53  H    0.107948
    54  H    0.094550
    55  H    0.117955
    56  H    0.076558
    57  H    0.128759
    58  H    0.085066
    59  H    0.104518
    60  H    0.296783
    61  H    0.068936
    62  H    0.139413
    63  H    0.117604
    64  H    0.081569
    65  H    0.050406
    66  H    0.091791
    67  H    0.056455
    68  H    0.110170
    69  H    0.056010
    70  H    0.120593
    71  H    0.119390
    72  H    0.083804
    73  H    0.107630
    74  H    0.110323
    75  H    0.098541
    76  H    0.117319
    77  H    0.101301
    78  H    0.098057
    79  H    0.086529
    80  H    0.140409
    81  H    0.080172
    82  H    0.301686
    83  H    0.313403
    84  H    0.108087
    85  H    0.126262
    86  H    0.110326
    87  H    0.085149
    88  H    0.071367
    89  H    0.119213
    90  H    0.128946
    91  H    0.120863
    92  H    0.075954
    93  H    0.078760
    94  H    0.079539
    95  H    0.053804
    96  H    0.081683
    97  H    0.072275
    98  H    0.101264
    99  H    0.139736
   100  H    0.137758
 Sum of Mulliken charges =  -0.00000

 Dipole moment (field-independent basis, Debye):
    X=              5.9388    Y=              1.0345    Z=              2.2498  Tot=              6.4344
 Quadrupole moment (field-independent basis, Debye-Ang):
   XX=           -265.1908   YY=           -264.3143   ZZ=           -274.9596
   XY=             -9.8858   XZ=             20.2064   YZ=             -1.4636

 Normal termination of Gaussian 16 at Mon Jul 29 23:57:47 2019.
