 Gaussian 16, Revision A.03,
 Gaussian 16:  ES64L-G16RevA.03 25-Dec-2016

 -------------------------------------
 # td=(NStates=1) CAM-B3LYP/6-31G(d,p)
 -------------------------------------

 --
 TD
 --
 Symbolic Z-matrix:
 Charge =  0 Multiplicity = 1

                         Standard orientation:
 ---------------------------------------------------------------------
 Center     Atomic      Atomic             Coordinates (Angstroms)
 Number     Number       Type             X           Y           Z
 ---------------------------------------------------------------------
      1          8           0      -11.624222    0.171833   -1.430384
      2          8           0      -13.081964   -2.486340    1.231722
      3          8           0       10.471272   -1.265782   -2.039912
      4          8           0       14.395703   -0.931634   -0.317898
      5          6           0      -10.946441   -0.218848   -0.245092
      6          6           0      -11.563582   -1.196579   -1.201340
      7          6           0      -11.855985    0.347308    0.892578
      8          6           0      -12.857297   -1.843479   -1.103146
      9          6           0      -13.257609   -0.133132    0.665092
     10          6           0      -13.558005   -1.577114    0.177376
     11          6           0      -10.652651   -2.069660   -2.135834
     12          6           0       -9.576600    0.163910   -0.197818
     13          6           0      -11.361852   -0.096984    2.295057
     14          6           0      -11.876001    1.870935    0.893853
     15          6           0       -8.547988   -0.736219    0.221532
     16          6           0       -7.174576   -0.566936    0.308418
     17          6           0       -6.288244   -1.774739    0.720847
     18          6           0       -6.525162    0.682617   -0.103453
     19          6           0       -5.184757    0.899317   -0.017577
     20          6           0       11.926542    0.007032    1.252613
     21          6           0       11.553779   -0.755535   -1.299788
     22          6           0       12.555691   -1.305746    1.467724
     23          6           0       13.360992   -1.817979    0.228471
     24          6           0       12.407715   -2.015527   -0.885544
     25          6           0       11.146234   -0.072474    0.008898
     26          6           0       11.058871    0.328983    2.542025
     27          6           0       12.915669    1.162099    1.161481
     28          6           0       12.459686    0.150709   -2.200901
     29          6           0       -4.662353    2.198755   -0.526393
     30          6           0        9.957576    0.414484   -0.050519
     31          6           0       -3.303843    2.633111   -0.626486
     32          6           0        8.773835    0.944327   -0.191715
     33          6           0       -2.959405    4.059280   -0.960625
     34          6           0       -2.339137    1.619934   -0.242213
     35          6           0        7.488739    0.283627    0.123791
     36          6           0        7.662073   -1.231847    0.521630
     37          6           0        6.235232    0.939361    0.025086
     38          6           0       -1.030794    1.963056   -0.179144
     39          6           0        4.981775    0.294638    0.006916
     40          6           0       -0.072448    1.001753    0.075984
     41          6           0        3.722577    0.995142   -0.087164
     42          6           0        1.274598    1.287918   -0.026505
     43          6           0        2.422868    0.394041    0.040867
     44          6           0        2.204166   -0.962889    0.459991
     45          1           0      -12.738303   -3.018337   -1.264098
     46          1           0      -13.508639   -1.388737   -1.936019
     47          1           0      -13.906109   -0.001302    1.586195
     48          1           0      -13.735860    0.503545   -0.218877
     49          1           0      -14.680819   -1.676758    0.048678
     50          1           0      -10.423324   -2.966847   -1.635802
     51          1           0      -11.208761   -2.235847   -3.005974
     52          1           0       -9.689837   -1.488234   -2.398662
     53          1           0       -9.320116    1.149705   -0.558013
     54          1           0      -10.363094    0.169862    2.646504
     55          1           0      -11.919639    0.422585    3.246417
     56          1           0      -11.371032   -1.164320    2.499683
     57          1           0      -12.220322    2.246265   -0.040236
     58          1           0      -12.492571    2.091663    1.832907
     59          1           0      -10.771355    2.355809    0.712260
     60          1           0      -12.139221   -2.764099    0.963566
     61          1           0       -8.987873   -1.789815    0.457417
     62          1           0       -5.471364   -2.183554    0.108904
     63          1           0       -5.785803   -1.356026    1.630982
     64          1           0       -6.820617   -2.771411    0.842559
     65          1           0       -7.088009    1.471874   -0.200404
     66          1           0       -4.443368    0.199011    0.430907
     67          1           0       13.199790   -1.117839    2.199632
     68          1           0       11.901023   -2.251924    1.933936
     69          1           0       13.940969   -2.747746    0.583357
     70          1           0       13.082242   -2.445334   -1.589305
     71          1           0       11.751816   -2.700155   -0.546939
     72          1           0       11.526441    0.407650    3.433479
     73          1           0       10.587061    1.241370    2.363501
     74          1           0       10.289341   -0.336538    2.683898
     75          1           0       13.629224    0.942370    0.370536
     76          1           0       12.676324    2.188913    1.096594
     77          1           0       13.421392    1.168961    2.304434
     78          1           0       12.576759   -0.283931   -3.083137
     79          1           0       12.043425    1.128770   -2.510295
     80          1           0       13.515029    0.129467   -1.704056
     81          1           0       -5.423505    2.881483   -0.921678
     82          1           0        9.858068   -0.432039   -2.048244
     83          1           0       15.154348   -1.068459    0.345091
     84          1           0        8.750721    1.982933   -0.359876
     85          1           0       -2.671746    4.488915   -0.060041
     86          1           0       -2.100901    3.964868   -1.777926
     87          1           0       -3.707333    4.783038   -1.345317
     88          1           0       -2.586562    0.662169   -0.314747
     89          1           0        6.841332   -1.886525    0.460134
     90          1           0        8.339686   -1.602998   -0.133900
     91          1           0        8.085777   -1.283696    1.569619
     92          1           0        6.499826    2.029484   -0.271202
     93          1           0       -0.667211    3.065681   -0.154711
     94          1           0        4.846076   -0.720218    0.320908
     95          1           0       -0.406817   -0.001362   -0.039361
     96          1           0        3.837927    2.181773   -0.226981
     97          1           0        1.618766    2.472427   -0.414971
     98          1           0        1.091941   -1.198559    0.799215
     99          1           0        2.442360   -1.747364   -0.487255
    100          1           0        2.772785   -1.205139    1.374630
 ---------------------------------------------------------------------

 SCF Done:  E(RCAM-B3LYP) =  -1857.30527200     A.U. after   18 cycles

 Excitation energies and oscillator strengths:

 Excited State   1:      Singlet-A      1.5954 eV  777.15 nm  f=2.8290  <S**2>=0.000
     163 ->166        -0.11202
     164 ->165         0.71525
     164 <-165        -0.16719
 This state for optimization and/or second-order correction.
 Total Energy, E(TD-HF/TD-DFT) =  -1857.24664357
 Copying the excited state density for this state as the 1-particle RhoCI density.

 The electronic state is 1-A.
 Alpha  occ. eigenvalues --  -19.23489 -19.21850 -19.21585 -19.20915 -10.32319
 Alpha  occ. eigenvalues --  -10.32016 -10.31926 -10.31279 -10.30729 -10.28569
 Alpha  occ. eigenvalues --  -10.28531 -10.28267 -10.28254 -10.28082 -10.28055
 Alpha  occ. eigenvalues --  -10.27881 -10.27869 -10.27721 -10.27548 -10.27518
 Alpha  occ. eigenvalues --  -10.27233 -10.26954 -10.26930 -10.26925 -10.26881
 Alpha  occ. eigenvalues --  -10.26782 -10.26750 -10.26659 -10.26430 -10.26364
 Alpha  occ. eigenvalues --  -10.26302 -10.26037 -10.25909 -10.25740 -10.25532
 Alpha  occ. eigenvalues --  -10.25154 -10.25073 -10.25042 -10.24941 -10.24249
 Alpha  occ. eigenvalues --  -10.24214 -10.23492 -10.22804 -10.22632  -1.17217
 Alpha  occ. eigenvalues --   -1.09935  -1.09359  -1.06926  -0.94558  -0.92453
 Alpha  occ. eigenvalues --   -0.91146  -0.90596  -0.89956  -0.89605  -0.87898
 Alpha  occ. eigenvalues --   -0.87220  -0.86536  -0.85815  -0.84843  -0.82864
 Alpha  occ. eigenvalues --   -0.82016  -0.80264  -0.80088  -0.79006  -0.77885
 Alpha  occ. eigenvalues --   -0.77205  -0.76440  -0.76050  -0.75725  -0.75068
 Alpha  occ. eigenvalues --   -0.74859  -0.74573  -0.72101  -0.70124  -0.69359
 Alpha  occ. eigenvalues --   -0.67950  -0.66538  -0.66129  -0.65055  -0.64355
 Alpha  occ. eigenvalues --   -0.63520  -0.62377  -0.61301  -0.60048  -0.59283
 Alpha  occ. eigenvalues --   -0.58877  -0.58052  -0.57816  -0.57579  -0.56588
 Alpha  occ. eigenvalues --   -0.56045  -0.55667  -0.55373  -0.54978  -0.54461
 Alpha  occ. eigenvalues --   -0.53707  -0.52829  -0.52250  -0.51989  -0.51202
 Alpha  occ. eigenvalues --   -0.51138  -0.50689  -0.50155  -0.49948  -0.49595
 Alpha  occ. eigenvalues --   -0.49356  -0.49060  -0.48774  -0.48391  -0.48300
 Alpha  occ. eigenvalues --   -0.48100  -0.47991  -0.47857  -0.47629  -0.47481
 Alpha  occ. eigenvalues --   -0.47290  -0.47087  -0.46253  -0.45931  -0.45436
 Alpha  occ. eigenvalues --   -0.44907  -0.44648  -0.44564  -0.43873  -0.43709
 Alpha  occ. eigenvalues --   -0.43493  -0.43058  -0.42576  -0.42176  -0.42169
 Alpha  occ. eigenvalues --   -0.42007  -0.41725  -0.41453  -0.41156  -0.41111
 Alpha  occ. eigenvalues --   -0.40693  -0.40500  -0.40158  -0.39990  -0.39811
 Alpha  occ. eigenvalues --   -0.39672  -0.39311  -0.38992  -0.38809  -0.38672
 Alpha  occ. eigenvalues --   -0.38422  -0.38331  -0.38076  -0.37845  -0.37261
 Alpha  occ. eigenvalues --   -0.37201  -0.36153  -0.35252  -0.34679  -0.33877
 Alpha  occ. eigenvalues --   -0.32485  -0.32074  -0.31793  -0.31442  -0.30623
 Alpha  occ. eigenvalues --   -0.29954  -0.27668  -0.23352  -0.17856
 Alpha virt. eigenvalues --   -0.08023  -0.01479   0.02660   0.06508   0.07014
 Alpha virt. eigenvalues --    0.08975   0.09560   0.10173   0.11456   0.11610
 Alpha virt. eigenvalues --    0.12449   0.12908   0.13197   0.13485   0.13695

 Mulliken charges:
               1
     1  O   -0.495051
     2  O   -0.557366
     3  O   -0.561950
     4  O   -0.543641
     5  C    0.174627
     6  C    0.254129
     7  C    0.054777
     8  C   -0.229569
     9  C   -0.173849
    10  C    0.155221
    11  C   -0.335189
    12  C   -0.104308
    13  C   -0.311579
    14  C   -0.291293
    15  C   -0.104267
    16  C    0.064312
    17  C   -0.374443
    18  C   -0.080988
    19  C   -0.066513
    20  C   -0.015157
    21  C    0.243801
    22  C   -0.158005
    23  C    0.110367
    24  C   -0.172104
    25  C   -0.018152
    26  C   -0.307918
    27  C   -0.296998
    28  C   -0.328138
    29  C   -0.146012
    30  C    0.146128
    31  C    0.073415
    32  C   -0.315284
    33  C   -0.372007
    34  C   -0.098659
    35  C    0.093474
    36  C   -0.369925
    37  C   -0.111741
    38  C   -0.067032
    39  C   -0.104368
    40  C   -0.100667
    41  C   -0.116112
    42  C   -0.117112
    43  C    0.126304
    44  C   -0.379155
    45  H    0.093702
    46  H    0.121081
    47  H    0.097777
    48  H    0.084078
    49  H    0.094963
    50  H    0.107197
    51  H    0.120262
    52  H    0.113539
    53  H    0.104842
    54  H    0.105104
    55  H    0.068010
    56  H    0.103749
    57  H    0.123579
    58  H    0.106725
    59  H    0.069726
    60  H    0.302641
    61  H    0.067777
    62  H    0.121399
    63  H    0.125971
    64  H    0.104649
    65  H    0.083296
    66  H    0.093127
    67  H    0.087617
    68  H    0.087368
    69  H    0.075547
    70  H    0.111213
    71  H    0.114188
    72  H    0.107030
    73  H    0.110609
    74  H    0.105944
    75  H    0.138004
    76  H    0.117926
    77  H    0.049384
    78  H    0.121706
    79  H    0.081426
    80  H    0.141209
    81  H    0.077928
    82  H    0.307042
    83  H    0.314182
    84  H    0.110728
    85  H    0.146245
    86  H    0.115277
    87  H    0.119322
    88  H    0.090256
    89  H    0.110752
    90  H    0.137428
    91  H    0.113103
    92  H    0.078203
    93  H    0.090815
    94  H    0.093030
    95  H    0.091433
    96  H    0.080170
    97  H    0.057689
    98  H    0.104358
    99  H    0.097990
   100  H    0.129683
 Sum of Mulliken charges =  -0.00000

 Dipole moment (field-independent basis, Debye):
    X=              4.8815    Y=             -0.3403    Z=              1.4577  Tot=              5.1059
 Quadrupole moment (field-independent basis, Debye-Ang):
   XX=           -269.5328   YY=           -255.7152   ZZ=           -279.7067
   XY=             -4.3800   XZ=             46.2350   YZ=             -4.2112

 Normal termination of Gaussian 16 at Fri Aug  2 06:27:37 2019.
