 Gaussian 16, Revision A.03,
 Gaussian 16:  ES64L-G16RevA.03 25-Dec-2016

 -------------------------------------
 # td=(NStates=1) CAM-B3LYP/6-31G(d,p)
 -------------------------------------

 --
 TD
 --
 Symbolic Z-matrix:
 Charge =  0 Multiplicity = 1

                         Standard orientation:
 ---------------------------------------------------------------------
 Center     Atomic      Atomic             Coordinates (Angstroms)
 Number     Number       Type             X           Y           Z
 ---------------------------------------------------------------------
      1          8           0       11.664304    0.084989    1.647372
      2          8           0       13.059268   -2.363420   -1.625843
      3          8           0      -10.293909   -1.113889    2.099753
      4          8           0      -14.388512   -1.037582    0.353149
      5          6           0       11.048264   -0.144450    0.398756
      6          6           0       11.573806   -1.285283    1.213228
      7          6           0       11.881957    0.466204   -0.798555
      8          6           0       12.830398   -2.045721    0.898745
      9          6           0       13.288492   -0.042255   -0.678849
     10          6           0       13.498868   -1.571247   -0.450608
     11          6           0       10.587857   -2.083450    2.015187
     12          6           0        9.544319    0.115995    0.431289
     13          6           0       11.116693    0.042164   -2.068098
     14          6           0       11.752978    2.050178   -0.626097
     15          6           0        8.689937   -0.710600   -0.058626
     16          6           0        7.210524   -0.544928   -0.208701
     17          6           0        6.373712   -1.734931   -0.670245
     18          6           0        6.638478    0.725503    0.274495
     19          6           0        5.233457    0.932742    0.223944
     20          6           0      -12.047624    0.007846   -1.253456
     21          6           0      -11.494122   -0.667136    1.330634
     22          6           0      -12.693889   -1.376641   -1.343573
     23          6           0      -13.317159   -1.885333   -0.041003
     24          6           0      -12.329294   -1.999648    1.116881
     25          6           0      -11.078122   -0.047585    0.020112
     26          6           0      -11.120734    0.260647   -2.523403
     27          6           0      -13.062078    1.063880   -1.098760
     28          6           0      -12.232226    0.408034    2.270027
     29          6           0        4.767160    2.194754    0.457384
     30          6           0       -9.895118    0.601006   -0.055098
     31          6           0        3.425925    2.549641    0.367025
     32          6           0       -8.660349    1.084480    0.049227
     33          6           0        2.899530    3.858651    0.797185
     34          6           0        2.288206    1.599574    0.100982
     35          6           0       -7.441750    0.250663   -0.367532
     36          6           0       -7.715893   -1.258228   -0.641058
     37          6           0       -6.262829    0.932937   -0.187943
     38          6           0        0.960402    1.842046    0.307217
     39          6           0       -4.945257    0.272437   -0.286062
     40          6           0       -0.072079    0.984444   -0.014840
     41          6           0       -3.739411    0.846871   -0.068782
     42          6           0       -1.415672    1.263847    0.057608
     43          6           0       -2.519518    0.378083   -0.205984
     44          6           0       -2.296511   -1.111992   -0.547179
     45          1           0       12.452044   -3.211093    0.957691
     46          1           0       13.650378   -2.001150    1.776146
     47          1           0       13.864737    0.141968   -1.572867
     48          1           0       13.773834    0.441469    0.232012
     49          1           0       14.512899   -1.682360   -0.277316
     50          1           0       10.219148   -2.943119    1.619555
     51          1           0       11.342715   -2.506599    2.618831
     52          1           0        9.695841   -1.595169    2.604665
     53          1           0        9.244184    1.094921    0.900006
     54          1           0       10.175545    0.637087   -2.149061
     55          1           0       11.678946    0.418626   -3.077755
     56          1           0       10.892264   -0.928753   -2.279316
     57          1           0       12.028470    2.249490    0.458918
     58          1           0       12.561540    2.516818   -1.098945
     59          1           0       10.905151    2.383302   -1.161919
     60          1           0       12.133461   -2.354165   -1.717738
     61          1           0        8.851499   -1.806232   -0.573642
     62          1           0        5.542826   -1.956973    0.211180
     63          1           0        5.812900   -1.544271   -1.626525
     64          1           0        6.979616   -2.567938   -1.007964
     65          1           0        7.350506    1.461779    0.321435
     66          1           0        4.546471   -0.008534   -0.151638
     67          1           0      -13.353295   -1.481683   -2.233225
     68          1           0      -11.903181   -2.240514   -1.463225
     69          1           0      -13.837970   -2.934774   -0.080110
     70          1           0      -12.592146   -2.243558    2.108685
     71          1           0      -11.441324   -2.660068    0.837499
     72          1           0      -11.847083    0.016167   -3.360307
     73          1           0      -10.764883    1.336897   -2.703715
     74          1           0      -10.344042   -0.424128   -2.537793
     75          1           0      -13.746123    0.986393   -0.216614
     76          1           0      -12.481167    1.861871   -1.101168
     77          1           0      -13.751180    1.264136   -1.912065
     78          1           0      -12.368444   -0.004021    3.261825
     79          1           0      -11.464892    1.159196    2.576858
     80          1           0      -13.023213    0.824240    1.868184
     81          1           0        5.422364    2.921158    0.468878
     82          1           0       -9.739694   -0.235796    2.202279
     83          1           0      -14.861917   -0.690965   -0.621800
     84          1           0       -8.685170    2.113574    0.271536
     85          1           0        2.355150    4.597215    0.049416
     86          1           0        2.159009    3.743605    1.548216
     87          1           0        3.861891    4.334597    1.338925
     88          1           0        2.629316    0.501814   -0.171773
     89          1           0       -6.806579   -1.708384   -0.819501
     90          1           0       -8.170599   -1.711524    0.301913
     91          1           0       -8.700801   -1.347563   -1.483014
     92          1           0       -6.350082    2.035366   -0.181362
     93          1           0        0.484361    2.840683    0.683125
     94          1           0       -5.178474   -0.834692   -0.522182
     95          1           0        0.305947    0.011593   -0.062265
     96          1           0       -3.749892    1.874760    0.263253
     97          1           0       -1.491408    2.348778    0.061204
     98          1           0       -1.214512   -1.194338   -0.394759
     99          1           0       -2.811643   -1.883114    0.019194
    100          1           0       -2.710481   -1.315988   -1.610155
 ---------------------------------------------------------------------

 SCF Done:  E(RCAM-B3LYP) =  -1857.28594509     A.U. after   17 cycles

 Excitation energies and oscillator strengths:

 Excited State   1:      Singlet-A      1.7762 eV  698.01 nm  f=2.7202  <S**2>=0.000
     163 ->166         0.10852
     164 ->165         0.71012
     164 <-165        -0.14792
 This state for optimization and/or second-order correction.
 Total Energy, E(TD-HF/TD-DFT) =  -1857.22066941
 Copying the excited state density for this state as the 1-particle RhoCI density.

 The electronic state is 1-A.
 Alpha  occ. eigenvalues --  -19.22490 -19.21996 -19.21137 -19.20891 -10.32294
 Alpha  occ. eigenvalues --  -10.32040 -10.32035 -10.31457 -10.31367 -10.29065
 Alpha  occ. eigenvalues --  -10.28939 -10.28905 -10.28694 -10.28157 -10.28096
 Alpha  occ. eigenvalues --  -10.28068 -10.27884 -10.27706 -10.27639 -10.27456
 Alpha  occ. eigenvalues --  -10.27363 -10.27346 -10.27346 -10.27244 -10.27202
 Alpha  occ. eigenvalues --  -10.27126 -10.26827 -10.26814 -10.26502 -10.26467
 Alpha  occ. eigenvalues --  -10.26451 -10.26350 -10.26098 -10.25808 -10.25633
 Alpha  occ. eigenvalues --  -10.25593 -10.25542 -10.25408 -10.25287 -10.24862
 Alpha  occ. eigenvalues --  -10.24601 -10.24324 -10.23440 -10.23407  -1.15478
 Alpha  occ. eigenvalues --   -1.08194  -1.08061  -1.06205  -0.92680  -0.92526
 Alpha  occ. eigenvalues --   -0.91894  -0.90753  -0.90095  -0.89577  -0.88154
 Alpha  occ. eigenvalues --   -0.87164  -0.85610  -0.85396  -0.84584  -0.82929
 Alpha  occ. eigenvalues --   -0.81898  -0.81425  -0.80208  -0.78280  -0.77550
 Alpha  occ. eigenvalues --   -0.76654  -0.76633  -0.76456  -0.76320  -0.76235
 Alpha  occ. eigenvalues --   -0.75958  -0.73339  -0.72772  -0.70865  -0.69092
 Alpha  occ. eigenvalues --   -0.68100  -0.67051  -0.65225  -0.64577  -0.64382
 Alpha  occ. eigenvalues --   -0.63219  -0.62133  -0.61231  -0.59743  -0.59323
 Alpha  occ. eigenvalues --   -0.59079  -0.57886  -0.57099  -0.56084  -0.55953
 Alpha  occ. eigenvalues --   -0.55408  -0.54999  -0.54606  -0.54517  -0.54110
 Alpha  occ. eigenvalues --   -0.53549  -0.52880  -0.52559  -0.52314  -0.51779
 Alpha  occ. eigenvalues --   -0.51593  -0.51437  -0.51123  -0.50735  -0.50202
 Alpha  occ. eigenvalues --   -0.49319  -0.49181  -0.48777  -0.48029  -0.47717
 Alpha  occ. eigenvalues --   -0.47392  -0.47162  -0.47078  -0.46847  -0.46830
 Alpha  occ. eigenvalues --   -0.46338  -0.46055  -0.45852  -0.45763  -0.45736
 Alpha  occ. eigenvalues --   -0.45328  -0.45304  -0.44663  -0.44284  -0.44194
 Alpha  occ. eigenvalues --   -0.44061  -0.44044  -0.43654  -0.43002  -0.42868
 Alpha  occ. eigenvalues --   -0.42453  -0.42402  -0.42209  -0.41509  -0.41471
 Alpha  occ. eigenvalues --   -0.40952  -0.40724  -0.40453  -0.40092  -0.39679
 Alpha  occ. eigenvalues --   -0.39562  -0.39433  -0.39257  -0.38959  -0.38262
 Alpha  occ. eigenvalues --   -0.38183  -0.38167  -0.37782  -0.37349  -0.37257
 Alpha  occ. eigenvalues --   -0.36572  -0.36113  -0.35600  -0.34766  -0.33978
 Alpha  occ. eigenvalues --   -0.32427  -0.31780  -0.31608  -0.31522  -0.31169
 Alpha  occ. eigenvalues --   -0.29132  -0.28207  -0.24836  -0.18353
 Alpha virt. eigenvalues --   -0.07397  -0.00821   0.03255   0.06086   0.06629
 Alpha virt. eigenvalues --    0.07782   0.09937   0.10343   0.10751   0.11233
 Alpha virt. eigenvalues --    0.11752   0.12348   0.12684   0.13210   0.13379

 Mulliken charges:
               1
     1  O   -0.512168
     2  O   -0.560050
     3  O   -0.579215
     4  O   -0.553320
     5  C    0.195241
     6  C    0.273920
     7  C    0.045368
     8  C   -0.240465
     9  C   -0.201440
    10  C    0.154816
    11  C   -0.338844
    12  C   -0.145211
    13  C   -0.312263
    14  C   -0.332160
    15  C   -0.020352
    16  C    0.046092
    17  C   -0.373872
    18  C   -0.107688
    19  C   -0.056509
    20  C    0.025972
    21  C    0.206007
    22  C   -0.223854
    23  C    0.178309
    24  C   -0.187836
    25  C   -0.045454
    26  C   -0.303751
    27  C   -0.321381
    28  C   -0.292640
    29  C   -0.100301
    30  C    0.092060
    31  C    0.083189
    32  C   -0.258520
    33  C   -0.370332
    34  C   -0.123624
    35  C    0.080412
    36  C   -0.349485
    37  C   -0.093739
    38  C   -0.079776
    39  C   -0.111314
    40  C   -0.075236
    41  C   -0.092291
    42  C   -0.142966
    43  C    0.114996
    44  C   -0.360940
    45  H    0.096766
    46  H    0.105937
    47  H    0.111804
    48  H    0.104541
    49  H    0.114541
    50  H    0.115443
    51  H    0.107609
    52  H    0.120181
    53  H    0.112978
    54  H    0.109149
    55  H    0.075993
    56  H    0.093216
    57  H    0.127060
    58  H    0.111323
    59  H    0.111369
    60  H    0.305806
    61  H    0.057421
    62  H    0.117209
    63  H    0.126822
    64  H    0.112073
    65  H    0.089563
    66  H    0.091148
    67  H    0.093933
    68  H    0.090296
    69  H    0.075098
    70  H    0.126596
    71  H    0.117721
    72  H    0.086697
    73  H    0.108148
    74  H    0.120169
    75  H    0.132919
    76  H    0.113593
    77  H    0.088272
    78  H    0.112071
    79  H    0.076648
    80  H    0.127578
    81  H    0.085171
    82  H    0.308723
    83  H    0.303087
    84  H    0.113679
    85  H    0.110288
    86  H    0.139542
    87  H    0.077738
    88  H    0.065327
    89  H    0.115943
    90  H    0.149249
    91  H    0.096130
    92  H    0.089060
    93  H    0.073071
    94  H    0.069792
    95  H    0.076773
    96  H    0.078553
    97  H    0.083647
    98  H    0.109195
    99  H    0.123970
   100  H    0.113984
 Sum of Mulliken charges =  -0.00000

 Dipole moment (field-independent basis, Debye):
    X=             -1.6750    Y=              0.4054    Z=             -2.4127  Tot=              2.9650
 Quadrupole moment (field-independent basis, Debye-Ang):
   XX=           -275.2642   YY=           -261.4301   ZZ=           -279.9836
   XY=             -8.0136   XZ=             30.2033   YZ=              2.2640

 Normal termination of Gaussian 16 at Thu Aug  1 10:01:59 2019.
