 Gaussian 16, Revision A.03,
 Gaussian 16:  ES64L-G16RevA.03 25-Dec-2016

 -------------------------------------
 # td=(NStates=1) CAM-B3LYP/6-31G(d,p)
 -------------------------------------

 --
 TD
 --
 Symbolic Z-matrix:
 Charge =  0 Multiplicity = 1

                         Standard orientation:
 ---------------------------------------------------------------------
 Center     Atomic      Atomic             Coordinates (Angstroms)
 Number     Number       Type             X           Y           Z
 ---------------------------------------------------------------------
      1          8           0      -11.617900    0.082613   -1.714561
      2          8           0      -13.032970   -2.207925    1.518679
      3          8           0       10.729112   -0.963957   -2.140160
      4          8           0       14.457291   -0.813401   -0.041717
      5          6           0      -11.073351   -0.080190   -0.360662
      6          6           0      -11.628491   -1.210107   -1.273164
      7          6           0      -11.816992    0.538716    0.779787
      8          6           0      -13.002946   -1.741793   -0.989473
      9          6           0      -13.314488    0.042073    0.685031
     10          6           0      -13.604018   -1.429658    0.491382
     11          6           0      -10.741313   -2.158495   -1.930801
     12          6           0       -9.532657    0.007091   -0.314087
     13          6           0      -11.316421    0.002154    2.164343
     14          6           0      -11.735027    1.972688    0.708307
     15          6           0       -8.645699   -0.778744    0.291565
     16          6           0       -7.209989   -0.581746    0.298208
     17          6           0       -6.289173   -1.771879    0.721277
     18          6           0       -6.640821    0.565268   -0.047367
     19          6           0       -5.206914    0.809342   -0.135236
     20          6           0       11.923228    0.010066    1.391578
     21          6           0       11.729193   -0.549597   -1.173273
     22          6           0       12.749320   -1.237490    1.546196
     23          6           0       13.402996   -1.762094    0.290720
     24          6           0       12.542077   -1.859325   -0.938898
     25          6           0       11.127729   -0.051439    0.062432
     26          6           0       10.921174    0.156464    2.591679
     27          6           0       12.806787    1.138205    1.452215
     28          6           0       12.500650    0.440175   -1.946941
     29          6           0       -4.765200    2.119254   -0.310644
     30          6           0        9.898724    0.396550   -0.098363
     31          6           0       -3.358703    2.473798   -0.366655
     32          6           0        8.675984    0.871286   -0.159955
     33          6           0       -2.887713    3.886365   -0.622472
     34          6           0       -2.385039    1.480718   -0.283099
     35          6           0        7.382551    0.121892   -0.215703
     36          6           0        7.588407   -1.350445    0.003984
     37          6           0        6.252095    0.843272   -0.241778
     38          6           0       -1.032345    1.801759   -0.248983
     39          6           0        5.023645    0.191198   -0.052225
     40          6           0        0.038375    0.930874   -0.135458
     41          6           0        3.776377    0.851028   -0.188257
     42          6           0        1.333579    1.169929   -0.143121
     43          6           0        2.458561    0.279302   -0.013652
     44          6           0        2.207861   -1.227156    0.225250
     45          1           0      -13.253703   -2.872256   -1.000355
     46          1           0      -13.662682   -1.170013   -1.707017
     47          1           0      -13.642329    0.308663    1.626324
     48          1           0      -13.835749    0.862400    0.189878
     49          1           0      -14.522100   -1.665433    0.617507
     50          1           0      -10.531682   -2.906683   -1.090143
     51          1           0      -11.137357   -2.531890   -2.773818
     52          1           0       -9.645047   -1.874776   -2.305913
     53          1           0       -9.011359    0.735200   -1.203743
     54          1           0      -10.226014    0.288196    2.233524
     55          1           0      -11.800409    0.543687    2.954522
     56          1           0      -11.212274   -1.289528    2.196290
     57          1           0      -11.978832    2.278168   -0.546726
     58          1           0      -12.703868    2.508165    1.300257
     59          1           0      -10.823318    2.508065    0.918235
     60          1           0      -12.186345   -2.578307    1.347063
     61          1           0       -9.047659   -1.551935    1.026956
     62          1           0       -6.079470   -2.375028   -0.340969
     63          1           0       -5.270922   -1.348044    1.319417
     64          1           0       -6.914890   -2.657008    1.136712
     65          1           0       -7.038216    1.478859    0.019575
     66          1           0       -4.597026   -0.043243   -0.029409
     67          1           0       13.544625   -1.099207    2.470411
     68          1           0       11.982041   -2.024625    1.987279
     69          1           0       13.912228   -2.752187    0.566108
     70          1           0       13.018176   -2.030333   -1.646835
     71          1           0       11.954811   -2.807765   -0.882274
     72          1           0       11.373794   -0.110857    3.526767
     73          1           0       10.439129    1.221342    2.554774
     74          1           0       10.081930   -0.527224    2.692085
     75          1           0       13.619246    1.511506    0.675150
     76          1           0       12.160479    2.127821    1.612635
     77          1           0       13.245861    1.086632    2.406142
     78          1           0       12.707442   -0.030320   -2.899606
     79          1           0       12.229009    1.428530   -2.022982
     80          1           0       13.336517    0.822500   -1.562684
     81          1           0       -5.630507    2.878358   -0.409542
     82          1           0       10.248999   -0.229819   -2.571567
     83          1           0       14.979159   -0.759736    0.725398
     84          1           0        8.438638    1.927802   -0.517868
     85          1           0       -2.357866    4.397311    0.280929
     86          1           0       -2.116787    4.258941   -1.450244
     87          1           0       -3.776293    4.608230   -0.746426
     88          1           0       -2.683873    0.552225    0.092574
     89          1           0        6.703973   -2.086037   -0.859945
     90          1           0        8.627823   -1.511963   -0.392869
     91          1           0        7.452508   -1.599769    1.147616
     92          1           0        6.439299    1.765064   -0.565632
     93          1           0       -0.761834    2.727332   -0.623358
     94          1           0        4.953080   -0.799954    0.268616
     95          1           0       -0.348936    0.044874    0.081613
     96          1           0        3.828352    1.937881   -0.413259
     97          1           0        1.616195    2.235948   -0.323361
     98          1           0        1.278565   -1.449540   -0.067565
     99          1           0        2.891828   -1.719479   -0.431068
    100          1           0        2.537294   -1.275244    1.350769
 ---------------------------------------------------------------------

 SCF Done:  E(RCAM-B3LYP) =  -1857.16381720     A.U. after   15 cycles

 Excitation energies and oscillator strengths:

 Excited State   1:      Singlet-A      2.1019 eV  589.87 nm  f=3.0076  <S**2>=0.000
     163 ->166         0.13017
     164 ->165         0.69763
     164 <-165        -0.10472
 This state for optimization and/or second-order correction.
 Total Energy, E(TD-HF/TD-DFT) =  -1857.08657426
 Copying the excited state density for this state as the 1-particle RhoCI density.

 The electronic state is 1-A.
 Alpha  occ. eigenvalues --  -19.22607 -19.21074 -19.21062 -19.20154 -10.32285
 Alpha  occ. eigenvalues --  -10.32267 -10.31836 -10.31679 -10.30288 -10.29419
 Alpha  occ. eigenvalues --  -10.28518 -10.28272 -10.28188 -10.27931 -10.27924
 Alpha  occ. eigenvalues --  -10.27672 -10.27651 -10.27377 -10.27331 -10.27307
 Alpha  occ. eigenvalues --  -10.27175 -10.27087 -10.26916 -10.26900 -10.26873
 Alpha  occ. eigenvalues --  -10.26766 -10.26731 -10.26619 -10.26052 -10.26043
 Alpha  occ. eigenvalues --  -10.25966 -10.25625 -10.25599 -10.25572 -10.25352
 Alpha  occ. eigenvalues --  -10.25347 -10.25140 -10.24743 -10.24457 -10.24204
 Alpha  occ. eigenvalues --  -10.24110 -10.23628 -10.23563 -10.21831  -1.16268
 Alpha  occ. eigenvalues --   -1.10505  -1.10286  -1.08517  -0.94203  -0.92264
 Alpha  occ. eigenvalues --   -0.91864  -0.91581  -0.90952  -0.89618  -0.87959
 Alpha  occ. eigenvalues --   -0.87130  -0.86556  -0.85878  -0.84675  -0.83169
 Alpha  occ. eigenvalues --   -0.82430  -0.80999  -0.80381  -0.78278  -0.77814
 Alpha  occ. eigenvalues --   -0.77208  -0.76202  -0.76119  -0.75725  -0.75184
 Alpha  occ. eigenvalues --   -0.74710  -0.73977  -0.73005  -0.71445  -0.70162
 Alpha  occ. eigenvalues --   -0.69070  -0.67124  -0.66639  -0.64544  -0.64059
 Alpha  occ. eigenvalues --   -0.64023  -0.63201  -0.61432  -0.60533  -0.60185
 Alpha  occ. eigenvalues --   -0.59513  -0.58588  -0.57987  -0.57517  -0.56436
 Alpha  occ. eigenvalues --   -0.55469  -0.55161  -0.55064  -0.54925  -0.54558
 Alpha  occ. eigenvalues --   -0.54242  -0.53814  -0.53394  -0.52220  -0.52124
 Alpha  occ. eigenvalues --   -0.51876  -0.51384  -0.50852  -0.50405  -0.49920
 Alpha  occ. eigenvalues --   -0.49492  -0.48983  -0.48808  -0.48672  -0.47968
 Alpha  occ. eigenvalues --   -0.47757  -0.47589  -0.47373  -0.47049  -0.47005
 Alpha  occ. eigenvalues --   -0.46417  -0.45958  -0.45879  -0.45547  -0.44825
 Alpha  occ. eigenvalues --   -0.44556  -0.44456  -0.44217  -0.44082  -0.43445
 Alpha  occ. eigenvalues --   -0.43133  -0.42829  -0.42547  -0.42476  -0.42019
 Alpha  occ. eigenvalues --   -0.41688  -0.41442  -0.41401  -0.41094  -0.40964
 Alpha  occ. eigenvalues --   -0.40940  -0.40424  -0.40364  -0.39956  -0.39803
 Alpha  occ. eigenvalues --   -0.39489  -0.39129  -0.38572  -0.38301  -0.38130
 Alpha  occ. eigenvalues --   -0.37754  -0.37657  -0.37594  -0.37250  -0.36868
 Alpha  occ. eigenvalues --   -0.35867  -0.35417  -0.34814  -0.34101  -0.33215
 Alpha  occ. eigenvalues --   -0.33126  -0.32777  -0.32311  -0.31838  -0.30587
 Alpha  occ. eigenvalues --   -0.29449  -0.27744  -0.24591  -0.18993
 Alpha virt. eigenvalues --   -0.06013  -0.00252   0.03538   0.05890   0.07010
 Alpha virt. eigenvalues --    0.08361   0.09906   0.10339   0.11138   0.11804
 Alpha virt. eigenvalues --    0.12042   0.12439   0.13416   0.13805   0.14129

 Mulliken charges:
               1
     1  O   -0.500209
     2  O   -0.543224
     3  O   -0.585769
     4  O   -0.537663
     5  C    0.188753
     6  C    0.280164
     7  C    0.047333
     8  C   -0.247670
     9  C   -0.197645
    10  C    0.189297
    11  C   -0.323395
    12  C   -0.112840
    13  C   -0.272161
    14  C   -0.311145
    15  C   -0.072066
    16  C    0.084017
    17  C   -0.357460
    18  C   -0.100765
    19  C   -0.058758
    20  C    0.048204
    21  C    0.246919
    22  C   -0.193917
    23  C    0.123328
    24  C   -0.108548
    25  C   -0.072775
    26  C   -0.317894
    27  C   -0.285952
    28  C   -0.311611
    29  C   -0.147368
    30  C    0.189418
    31  C    0.106725
    32  C   -0.325511
    33  C   -0.390892
    34  C   -0.102774
    35  C    0.115349
    36  C   -0.338126
    37  C   -0.064086
    38  C   -0.085493
    39  C   -0.102158
    40  C   -0.054935
    41  C   -0.114633
    42  C   -0.115089
    43  C    0.056920
    44  C   -0.346076
    45  H    0.096471
    46  H    0.123474
    47  H    0.096899
    48  H    0.100160
    49  H    0.102623
    50  H    0.089221
    51  H    0.124912
    52  H    0.109575
    53  H    0.087637
    54  H    0.093445
    55  H    0.113293
    56  H    0.055884
    57  H    0.084880
    58  H    0.073978
    59  H    0.123416
    60  H    0.301040
    61  H    0.069867
    62  H    0.099874
    63  H    0.111891
    64  H    0.108731
    65  H    0.077078
    66  H    0.085931
    67  H    0.067648
    68  H    0.085186
    69  H    0.077590
    70  H    0.096850
    71  H    0.108733
    72  H    0.101144
    73  H    0.108097
    74  H    0.110884
    75  H    0.117247
    76  H    0.072065
    77  H    0.102789
    78  H    0.115223
    79  H    0.095725
    80  H    0.124901
    81  H    0.092622
    82  H    0.306603
    83  H    0.296842
    84  H    0.091129
    85  H    0.115050
    86  H    0.118899
    87  H    0.096418
    88  H    0.076401
    89  H    0.042359
    90  H    0.142309
    91  H    0.116722
    92  H    0.068979
    93  H    0.071357
    94  H    0.090694
    95  H    0.057089
    96  H    0.080335
    97  H    0.068679
    98  H    0.126117
    99  H    0.125724
   100  H    0.123493
 Sum of Mulliken charges =  -0.00000

 Dipole moment (field-independent basis, Debye):
    X=              3.3011    Y=             -0.6565    Z=              1.9038  Tot=              3.8669
 Quadrupole moment (field-independent basis, Debye-Ang):
   XX=           -246.2736   YY=           -257.6727   ZZ=           -276.3053
   XY=              9.7263   XZ=             24.2852   YZ=             -3.0181

 Normal termination of Gaussian 16 at Wed Jul 31 01:39:28 2019.
