 Gaussian 16, Revision A.03,
 Gaussian 16:  ES64L-G16RevA.03 25-Dec-2016

 -------------------------------------
 # td=(NStates=1) CAM-B3LYP/6-31G(d,p)
 -------------------------------------

 --
 TD
 --
 Symbolic Z-matrix:
 Charge =  0 Multiplicity = 1

                         Standard orientation:
 ---------------------------------------------------------------------
 Center     Atomic      Atomic             Coordinates (Angstroms)
 Number     Number       Type             X           Y           Z
 ---------------------------------------------------------------------
      1          8           0      -11.715824    0.198640   -1.654468
      2          8           0      -13.032709   -2.647615    1.302385
      3          8           0       10.591944   -1.193939   -2.127597
      4          8           0       14.586004   -1.069378   -0.265897
      5          6           0      -11.097428   -0.049222   -0.333641
      6          6           0      -11.531821   -1.154184   -1.307439
      7          6           0      -11.905568    0.355674    0.893020
      8          6           0      -12.797905   -1.972905   -1.054332
      9          6           0      -13.367739   -0.194123    0.722281
     10          6           0      -13.437977   -1.682643    0.330297
     11          6           0      -10.465725   -1.935247   -2.111082
     12          6           0       -9.582413    0.293852   -0.302043
     13          6           0      -11.278360   -0.135743    2.235586
     14          6           0      -11.819256    1.965617    0.814281
     15          6           0       -8.671217   -0.559223    0.137406
     16          6           0       -7.295910   -0.450620    0.241531
     17          6           0       -6.417973   -1.650227    0.549505
     18          6           0       -6.653992    0.708856   -0.079384
     19          6           0       -5.256873    1.011681   -0.105604
     20          6           0       11.866081    0.063692    1.266320
     21          6           0       11.672178   -0.676876   -1.349941
     22          6           0       12.705559   -1.204767    1.407466
     23          6           0       13.414361   -1.753833    0.149603
     24          6           0       12.467853   -1.938375   -0.934267
     25          6           0       11.073463    0.062047   -0.017725
     26          6           0       11.010619    0.232630    2.517595
     27          6           0       12.859667    1.242052    1.248071
     28          6           0       12.507501    0.345345   -2.177837
     29          6           0       -4.623261    2.262284   -0.366647
     30          6           0        9.800882    0.545901   -0.086050
     31          6           0       -3.277231    2.569067   -0.420363
     32          6           0        8.619183    0.985032   -0.210846
     33          6           0       -2.925836    4.105917   -0.868755
     34          6           0       -2.347487    1.681029   -0.214735
     35          6           0        7.454158    0.131129    0.056881
     36          6           0        7.573507   -1.341991    0.454759
     37          6           0        6.221846    0.728240   -0.030581
     38          6           0       -0.978906    1.888625   -0.115201
     39          6           0        4.977339    0.108245    0.194231
     40          6           0       -0.020354    0.961183    0.079816
     41          6           0        3.755120    0.812116    0.124186
     42          6           0        1.358780    1.140008   -0.036060
     43          6           0        2.478448    0.201709    0.159881
     44          6           0        2.198985   -1.197485    0.560221
     45          1           0      -12.552987   -3.157866   -1.263222
     46          1           0      -13.462866   -1.863175   -1.813051
     47          1           0      -13.995177   -0.189874    1.626875
     48          1           0      -13.834906    0.600294    0.063854
     49          1           0      -14.628679   -2.118225    0.225277
     50          1           0       -9.883793   -2.901208   -1.623873
     51          1           0      -10.999541   -2.303088   -3.030868
     52          1           0       -9.490954   -1.275705   -2.316430
     53          1           0       -9.264076    1.321727   -0.908296
     54          1           0      -10.232892   -0.105286    2.131905
     55          1           0      -11.846442    0.435703    3.081449
     56          1           0      -11.515755   -1.351249    2.441150
     57          1           0      -12.129913    2.350238   -0.084078
     58          1           0      -12.480263    2.108780    1.533681
     59          1           0      -10.885699    2.255758    1.104900
     60          1           0      -12.107393   -2.674749    1.182403
     61          1           0       -9.063904   -1.551723    0.573936
     62          1           0       -5.723898   -1.755316   -0.569852
     63          1           0       -5.725671   -1.198248    1.271902
     64          1           0       -6.995732   -2.268856    0.978675
     65          1           0       -7.346532    1.670888   -0.061492
     66          1           0       -4.607886    0.093685   -0.103186
     67          1           0       13.351155   -0.969106    2.294086
     68          1           0       12.221340   -2.172462    1.639141
     69          1           0       13.636121   -2.790133    0.342998
     70          1           0       12.946899   -2.270084   -1.728832
     71          1           0       11.537159   -2.513198   -0.565298
     72          1           0       11.572757   -0.017879    3.292821
     73          1           0       10.367052    1.284011    2.366430
     74          1           0       10.185007   -0.506667    2.675881
     75          1           0       13.538717    1.106150    0.353996
     76          1           0       12.358422    2.023510    1.011201
     77          1           0       13.432772    1.144320    2.237083
     78          1           0       12.883214   -0.153268   -2.949694
     79          1           0       11.895156    1.296111   -2.442063
     80          1           0       13.407893    0.661001   -1.556547
     81          1           0       -5.359359    2.984728   -0.532865
     82          1           0        9.989448   -0.474499   -2.289988
     83          1           0       15.142897   -0.565706    0.564531
     84          1           0        8.394360    1.999990   -0.359447
     85          1           0       -2.054504    4.436156   -0.321340
     86          1           0       -2.489800    3.847800   -2.016523
     87          1           0       -3.806944    4.831367   -0.693513
     88          1           0       -2.657739    0.705360    0.238916
     89          1           0        6.501098   -1.838021    0.516123
     90          1           0        8.213752   -1.884689   -0.415776
     91          1           0        8.182828   -1.409056    1.591336
     92          1           0        6.211968    1.907708   -0.291774
     93          1           0       -0.638858    3.044079   -0.435126
     94          1           0        4.845656   -1.058096    0.570766
     95          1           0       -0.293064    0.029191    0.598371
     96          1           0        3.965330    1.833269   -0.205821
     97          1           0        1.744521    2.238481   -0.404871
     98          1           0        1.148384   -1.158106    0.774532
     99          1           0        2.670348   -1.776611   -0.139208
    100          1           0        2.721898   -1.266621    1.680992
 ---------------------------------------------------------------------

 SCF Done:  E(RCAM-B3LYP) =  -1857.20129587     A.U. after   15 cycles

 Excitation energies and oscillator strengths:

 Excited State   1:      Singlet-A      2.0728 eV  598.14 nm  f=3.1041  <S**2>=0.000
     163 ->166         0.14130
     164 ->165         0.69409
 This state for optimization and/or second-order correction.
 Total Energy, E(TD-HF/TD-DFT) =  -1857.12512101
 Copying the excited state density for this state as the 1-particle RhoCI density.

 The electronic state is 1-A.
 Alpha  occ. eigenvalues --  -19.22746 -19.22668 -19.21641 -19.21069 -10.32776
 Alpha  occ. eigenvalues --  -10.32409 -10.32347 -10.32229 -10.30451 -10.29127
 Alpha  occ. eigenvalues --  -10.28571 -10.28487 -10.28277 -10.28163 -10.28027
 Alpha  occ. eigenvalues --  -10.27958 -10.27894 -10.27865 -10.27786 -10.27570
 Alpha  occ. eigenvalues --  -10.27404 -10.27399 -10.27338 -10.27309 -10.26955
 Alpha  occ. eigenvalues --  -10.26889 -10.26843 -10.26812 -10.26745 -10.26619
 Alpha  occ. eigenvalues --  -10.26619 -10.26608 -10.26600 -10.26591 -10.26577
 Alpha  occ. eigenvalues --  -10.26221 -10.26204 -10.26153 -10.25586 -10.25359
 Alpha  occ. eigenvalues --  -10.24588 -10.24483 -10.24191 -10.22558  -1.14381
 Alpha  occ. eigenvalues --   -1.10791  -1.09893  -1.07854  -0.93416  -0.93032
 Alpha  occ. eigenvalues --   -0.92332  -0.91789  -0.90646  -0.90219  -0.87701
 Alpha  occ. eigenvalues --   -0.87350  -0.85880  -0.85589  -0.84630  -0.82783
 Alpha  occ. eigenvalues --   -0.82102  -0.80513  -0.79967  -0.78395  -0.77295
 Alpha  occ. eigenvalues --   -0.77018  -0.76790  -0.76534  -0.76100  -0.75453
 Alpha  occ. eigenvalues --   -0.75341  -0.74440  -0.72857  -0.70581  -0.69872
 Alpha  occ. eigenvalues --   -0.68717  -0.67064  -0.65144  -0.64675  -0.64061
 Alpha  occ. eigenvalues --   -0.63184  -0.61167  -0.59836  -0.59236  -0.58911
 Alpha  occ. eigenvalues --   -0.58850  -0.58336  -0.58174  -0.57493  -0.56753
 Alpha  occ. eigenvalues --   -0.56373  -0.55445  -0.55009  -0.54933  -0.54278
 Alpha  occ. eigenvalues --   -0.53272  -0.52934  -0.52677  -0.52383  -0.52055
 Alpha  occ. eigenvalues --   -0.51214  -0.51019  -0.50546  -0.50318  -0.49816
 Alpha  occ. eigenvalues --   -0.49412  -0.48974  -0.48732  -0.48348  -0.47902
 Alpha  occ. eigenvalues --   -0.47838  -0.47466  -0.47390  -0.47279  -0.46735
 Alpha  occ. eigenvalues --   -0.46616  -0.46467  -0.46335  -0.46235  -0.46210
 Alpha  occ. eigenvalues --   -0.45716  -0.45175  -0.44616  -0.44326  -0.44005
 Alpha  occ. eigenvalues --   -0.43974  -0.43781  -0.43520  -0.43393  -0.42869
 Alpha  occ. eigenvalues --   -0.42410  -0.42141  -0.41605  -0.41435  -0.41231
 Alpha  occ. eigenvalues --   -0.41076  -0.40512  -0.40346  -0.39843  -0.39756
 Alpha  occ. eigenvalues --   -0.39374  -0.39088  -0.38951  -0.38836  -0.38449
 Alpha  occ. eigenvalues --   -0.38210  -0.38144  -0.37686  -0.37472  -0.36721
 Alpha  occ. eigenvalues --   -0.36118  -0.35904  -0.35250  -0.34996  -0.33672
 Alpha  occ. eigenvalues --   -0.32833  -0.32326  -0.32129  -0.31815  -0.30732
 Alpha  occ. eigenvalues --   -0.29028  -0.28563  -0.24390  -0.19659
 Alpha virt. eigenvalues --   -0.06627  -0.01469   0.03457   0.05801   0.06927
 Alpha virt. eigenvalues --    0.07915   0.09809   0.10455   0.10508   0.10874
 Alpha virt. eigenvalues --    0.11654   0.11972   0.12201   0.12681   0.13140

 Mulliken charges:
               1
     1  O   -0.506383
     2  O   -0.520130
     3  O   -0.557378
     4  O   -0.576182
     5  C    0.191708
     6  C    0.268217
     7  C   -0.009623
     8  C   -0.217379
     9  C   -0.189518
    10  C    0.146568
    11  C   -0.327011
    12  C   -0.138340
    13  C   -0.307762
    14  C   -0.312757
    15  C   -0.054690
    16  C    0.068679
    17  C   -0.322620
    18  C   -0.112250
    19  C   -0.093367
    20  C    0.005174
    21  C    0.233997
    22  C   -0.203656
    23  C    0.180683
    24  C   -0.174574
    25  C   -0.083759
    26  C   -0.279794
    27  C   -0.272291
    28  C   -0.298123
    29  C   -0.120935
    30  C    0.173457
    31  C    0.114768
    32  C   -0.313709
    33  C   -0.357667
    34  C   -0.114511
    35  C    0.118028
    36  C   -0.340411
    37  C   -0.111313
    38  C   -0.082868
    39  C   -0.101240
    40  C   -0.090698
    41  C   -0.100924
    42  C   -0.120548
    43  C    0.071793
    44  C   -0.342416
    45  H    0.085808
    46  H    0.133084
    47  H    0.108566
    48  H    0.114461
    49  H    0.065319
    50  H    0.082730
    51  H    0.107423
    52  H    0.113978
    53  H    0.102906
    54  H    0.118631
    55  H    0.104353
    56  H    0.071799
    57  H    0.128796
    58  H    0.108572
    59  H    0.117111
    60  H    0.297109
    61  H    0.067326
    62  H    0.106333
    63  H    0.131705
    64  H    0.102078
    65  H    0.066234
    66  H    0.073853
    67  H    0.073030
    68  H    0.097880
    69  H    0.086983
    70  H    0.115891
    71  H    0.122646
    72  H    0.101529
    73  H    0.089622
    74  H    0.096880
    75  H    0.095956
    76  H    0.112514
    77  H    0.086102
    78  H    0.121082
    79  H    0.082562
    80  H    0.115896
    81  H    0.077852
    82  H    0.303636
    83  H    0.317760
    84  H    0.109101
    85  H    0.129982
    86  H    0.111791
    87  H    0.115321
    88  H    0.082292
    89  H    0.102231
    90  H    0.122287
    91  H    0.093699
    92  H    0.074895
    93  H    0.061284
    94  H    0.075667
    95  H    0.085106
    96  H    0.084453
    97  H    0.066016
    98  H    0.118122
    99  H    0.143135
   100  H    0.100377
 Sum of Mulliken charges =  -0.00000

 Dipole moment (field-independent basis, Debye):
    X=              3.5379    Y=              0.8921    Z=              2.2480  Tot=              4.2856
 Quadrupole moment (field-independent basis, Debye-Ang):
   XX=           -288.2083   YY=           -264.8264   ZZ=           -279.4050
   XY=              3.2056   XZ=             26.4003   YZ=             -2.4299

 Normal termination of Gaussian 16 at Tue Jul 30 06:30:25 2019.
