 Gaussian 16, Revision A.03,
 Gaussian 16:  ES64L-G16RevA.03 25-Dec-2016

 -------------------------------------
 # td=(NStates=1) CAM-B3LYP/6-31G(d,p)
 -------------------------------------

 --
 TD
 --
 Symbolic Z-matrix:
 Charge =  0 Multiplicity = 1

                         Standard orientation:
 ---------------------------------------------------------------------
 Center     Atomic      Atomic             Coordinates (Angstroms)
 Number     Number       Type             X           Y           Z
 ---------------------------------------------------------------------
      1          8           0      -11.642565    0.088666   -1.561247
      2          8           0      -13.008524   -2.532679    1.510413
      3          8           0       10.633287   -1.349656   -2.061766
      4          8           0       14.474037   -1.039018    0.025142
      5          6           0      -11.028857   -0.199683   -0.329027
      6          6           0      -11.651458   -1.219073   -1.178310
      7          6           0      -11.819993    0.338146    0.945976
      8          6           0      -12.966393   -1.856917   -0.915668
      9          6           0      -13.291787   -0.132690    0.946508
     10          6           0      -13.612044   -1.602903    0.493448
     11          6           0      -10.785630   -2.049180   -2.128364
     12          6           0       -9.550805    0.047852   -0.334854
     13          6           0      -11.110150   -0.204110    2.160262
     14          6           0      -11.749687    1.927441    0.817980
     15          6           0       -8.565004   -0.767407    0.127672
     16          6           0       -7.284282   -0.551663    0.166970
     17          6           0       -6.300439   -1.763874    0.373341
     18          6           0       -6.696548    0.677599   -0.079492
     19          6           0       -5.291262    0.910483   -0.025995
     20          6           0       11.909217    0.054718    1.286233
     21          6           0       11.734058   -0.817500   -1.271105
     22          6           0       12.660252   -1.307031    1.569270
     23          6           0       13.353023   -1.850706    0.413283
     24          6           0       12.379759   -2.041206   -0.768325
     25          6           0       11.127577   -0.054132    0.035933
     26          6           0       10.975821    0.291776    2.491882
     27          6           0       12.948256    1.252403    1.304976
     28          6           0       12.580796    0.062090   -2.211429
     29          6           0       -4.749323    2.167242   -0.239614
     30          6           0        9.901707    0.520932   -0.080868
     31          6           0       -3.414231    2.540238   -0.497781
     32          6           0        8.688887    0.995145   -0.303784
     33          6           0       -3.132857    4.100705   -0.773527
     34          6           0       -2.295219    1.704837   -0.384928
     35          6           0        7.520676    0.243742   -0.166472
     36          6           0        7.538141   -1.198776    0.044487
     37          6           0        6.225999    0.920292   -0.072122
     38          6           0       -0.966868    2.000400   -0.396955
     39          6           0        4.966814    0.344807    0.098170
     40          6           0       -0.031872    1.049350   -0.291544
     41          6           0        3.825297    1.032216    0.046446
     42          6           0        1.385338    1.342104   -0.163922
     43          6           0        2.482469    0.538870    0.109266
     44          6           0        2.314830   -0.881650    0.490716
     45          1           0      -13.042156   -2.920742   -0.885160
     46          1           0      -13.559487   -1.527136   -1.713517
     47          1           0      -13.673678    0.137169    1.927345
     48          1           0      -13.802145    0.576476    0.152481
     49          1           0      -14.721649   -1.806723    0.454882
     50          1           0      -10.722700   -3.053148   -1.639909
     51          1           0      -11.559944   -2.020019   -3.153792
     52          1           0       -9.820647   -1.526496   -2.368273
     53          1           0       -9.402673    1.244671   -0.571338
     54          1           0      -10.071436    0.339114    2.370396
     55          1           0      -11.810947    0.153433    2.965840
     56          1           0      -11.019225   -1.230557    2.431271
     57          1           0      -12.316320    2.143526   -0.067512
     58          1           0      -12.371583    2.404773    1.639508
     59          1           0      -10.860290    2.313902    0.746164
     60          1           0      -12.046362   -2.657563    1.262267
     61          1           0       -9.028140   -1.826719    0.263681
     62          1           0       -5.911390   -2.088389   -0.556962
     63          1           0       -5.569909   -1.549780    1.051959
     64          1           0       -7.012019   -2.553272    0.763563
     65          1           0       -7.250896    1.642532   -0.216554
     66          1           0       -4.631876    0.138643    0.025146
     67          1           0       13.416828   -1.277443    2.363140
     68          1           0       11.951205   -2.020408    1.914977
     69          1           0       13.879675   -2.885179    0.759339
     70          1           0       12.819532   -2.608686   -1.540479
     71          1           0       11.723714   -2.871536   -0.386454
     72          1           0       11.804515    0.478602    3.396161
     73          1           0       10.350137    1.203804    2.497932
     74          1           0       10.289480   -0.609297    2.536465
     75          1           0       13.847418    1.265472    0.604818
     76          1           0       12.341474    1.970234    1.099001
     77          1           0       13.433341    1.456976    2.313893
     78          1           0       12.881413   -0.661405   -2.993846
     79          1           0       12.251026    1.110557   -2.565460
     80          1           0       13.512270    0.391652   -1.490177
     81          1           0       -5.355649    3.014620   -0.270313
     82          1           0       10.303266   -0.467781   -2.603575
     83          1           0       15.122742   -1.240531    0.773462
     84          1           0        8.793064    2.150250   -0.549578
     85          1           0       -2.466637    4.383037   -0.081068
     86          1           0       -2.688517    4.168913   -1.870673
     87          1           0       -4.011411    4.720284   -0.856673
     88          1           0       -2.622782    0.748769   -0.227548
     89          1           0        6.384489   -1.398711    0.034420
     90          1           0        8.408237   -1.745105   -0.293733
     91          1           0        7.995665   -1.388427    0.965160
     92          1           0        6.416184    1.997590   -0.013998
     93          1           0       -0.577490    3.306459   -0.449432
     94          1           0        5.029813   -0.739734    0.199232
     95          1           0       -0.331165   -0.013739   -0.395029
     96          1           0        4.049829    2.086108   -0.294478
     97          1           0        1.660527    2.438309   -0.245575
     98          1           0        1.299132   -1.094018    1.264624
     99          1           0        1.993040   -1.563541   -0.600031
    100          1           0        3.305973   -1.367628    0.971285
 ---------------------------------------------------------------------

 SCF Done:  E(RCAM-B3LYP) =  -1857.26861641     A.U. after   15 cycles

 Excitation energies and oscillator strengths:

 Excited State   1:      Singlet-A      2.0741 eV  597.79 nm  f=3.2399  <S**2>=0.000
     163 ->166         0.14799
     164 ->165         0.69099
 This state for optimization and/or second-order correction.
 Total Energy, E(TD-HF/TD-DFT) =  -1857.19239644
 Copying the excited state density for this state as the 1-particle RhoCI density.

 The electronic state is 1-A.
 Alpha  occ. eigenvalues --  -19.22258 -19.22037 -19.21842 -19.21513 -10.32903
 Alpha  occ. eigenvalues --  -10.32362 -10.31878 -10.31373 -10.31335 -10.29906
 Alpha  occ. eigenvalues --  -10.28373 -10.28335 -10.28103 -10.28026 -10.27783
 Alpha  occ. eigenvalues --  -10.27758 -10.27733 -10.27601 -10.27580 -10.27576
 Alpha  occ. eigenvalues --  -10.27006 -10.26997 -10.26808 -10.26735 -10.26639
 Alpha  occ. eigenvalues --  -10.26638 -10.26606 -10.26545 -10.26265 -10.26095
 Alpha  occ. eigenvalues --  -10.26044 -10.26018 -10.25981 -10.25967 -10.25553
 Alpha  occ. eigenvalues --  -10.25417 -10.25388 -10.25317 -10.25285 -10.25037
 Alpha  occ. eigenvalues --  -10.24846 -10.24608 -10.24000 -10.23957  -1.18413
 Alpha  occ. eigenvalues --   -1.09710  -1.07412  -1.06780  -0.93099  -0.93046
 Alpha  occ. eigenvalues --   -0.92234  -0.91616  -0.90414  -0.89952  -0.88140
 Alpha  occ. eigenvalues --   -0.86851  -0.86470  -0.85613  -0.84289  -0.83258
 Alpha  occ. eigenvalues --   -0.81791  -0.80918  -0.79884  -0.77987  -0.77326
 Alpha  occ. eigenvalues --   -0.77035  -0.76604  -0.76542  -0.75592  -0.75282
 Alpha  occ. eigenvalues --   -0.75151  -0.74647  -0.72760  -0.70375  -0.69501
 Alpha  occ. eigenvalues --   -0.68237  -0.67222  -0.65726  -0.64791  -0.64114
 Alpha  occ. eigenvalues --   -0.63718  -0.62265  -0.61193  -0.60093  -0.59717
 Alpha  occ. eigenvalues --   -0.59089  -0.57867  -0.56831  -0.56671  -0.56646
 Alpha  occ. eigenvalues --   -0.55935  -0.55589  -0.54949  -0.54630  -0.53628
 Alpha  occ. eigenvalues --   -0.53518  -0.53107  -0.52821  -0.52380  -0.51949
 Alpha  occ. eigenvalues --   -0.51191  -0.50511  -0.50453  -0.50419  -0.50164
 Alpha  occ. eigenvalues --   -0.49926  -0.49814  -0.49180  -0.48928  -0.48480
 Alpha  occ. eigenvalues --   -0.48140  -0.47696  -0.47267  -0.46610  -0.46022
 Alpha  occ. eigenvalues --   -0.45891  -0.45536  -0.45412  -0.45242  -0.44982
 Alpha  occ. eigenvalues --   -0.44833  -0.44564  -0.44282  -0.44017  -0.43914
 Alpha  occ. eigenvalues --   -0.43698  -0.43309  -0.42894  -0.42583  -0.42542
 Alpha  occ. eigenvalues --   -0.42130  -0.41942  -0.41703  -0.41438  -0.41143
 Alpha  occ. eigenvalues --   -0.40846  -0.40614  -0.40330  -0.40088  -0.39892
 Alpha  occ. eigenvalues --   -0.39682  -0.39402  -0.39040  -0.38740  -0.38723
 Alpha  occ. eigenvalues --   -0.38373  -0.37867  -0.37749  -0.37648  -0.37512
 Alpha  occ. eigenvalues --   -0.36750  -0.36418  -0.35827  -0.34722  -0.33929
 Alpha  occ. eigenvalues --   -0.33010  -0.32247  -0.31864  -0.31400  -0.31099
 Alpha  occ. eigenvalues --   -0.29253  -0.27655  -0.23414  -0.19510
 Alpha virt. eigenvalues --   -0.06385  -0.01720   0.02465   0.05773   0.07025
 Alpha virt. eigenvalues --    0.08724   0.09097   0.10179   0.10777   0.10912
 Alpha virt. eigenvalues --    0.12049   0.12318   0.12624   0.13148   0.13529

 Mulliken charges:
               1
     1  O   -0.486439
     2  O   -0.563690
     3  O   -0.562171
     4  O   -0.540535
     5  C    0.196808
     6  C    0.218403
     7  C    0.011084
     8  C   -0.226372
     9  C   -0.176416
    10  C    0.137684
    11  C   -0.292028
    12  C   -0.108524
    13  C   -0.297037
    14  C   -0.310605
    15  C   -0.086520
    16  C    0.080347
    17  C   -0.363354
    18  C   -0.097111
    19  C   -0.057763
    20  C    0.000934
    21  C    0.259200
    22  C   -0.141281
    23  C    0.116358
    24  C   -0.182936
    25  C   -0.067277
    26  C   -0.286902
    27  C   -0.294847
    28  C   -0.327875
    29  C   -0.116806
    30  C    0.109607
    31  C    0.050572
    32  C   -0.280679
    33  C   -0.363367
    34  C   -0.102582
    35  C    0.126395
    36  C   -0.367862
    37  C   -0.130420
    38  C   -0.042036
    39  C   -0.070410
    40  C   -0.089967
    41  C   -0.125964
    42  C   -0.142493
    43  C    0.144409
    44  C   -0.347498
    45  H    0.119160
    46  H    0.125977
    47  H    0.104819
    48  H    0.083662
    49  H    0.108411
    50  H    0.094144
    51  H    0.073365
    52  H    0.125005
    53  H    0.081972
    54  H    0.090606
    55  H    0.091872
    56  H    0.105219
    57  H    0.126826
    58  H    0.092443
    59  H    0.110930
    60  H    0.306457
    61  H    0.071455
    62  H    0.136322
    63  H    0.132434
    64  H    0.097278
    65  H    0.083887
    66  H    0.078581
    67  H    0.075777
    68  H    0.097734
    69  H    0.051567
    70  H    0.113456
    71  H    0.116324
    72  H    0.072394
    73  H    0.113344
    74  H    0.099786
    75  H    0.115838
    76  H    0.111882
    77  H    0.084101
    78  H    0.122087
    79  H    0.104818
    80  H    0.125539
    81  H    0.075281
    82  H    0.308021
    83  H    0.309753
    84  H    0.112763
    85  H    0.137629
    86  H    0.106726
    87  H    0.109370
    88  H    0.071542
    89  H    0.099227
    90  H    0.140112
    91  H    0.125133
    92  H    0.076553
    93  H    0.063009
    94  H    0.083464
    95  H    0.096019
    96  H    0.084746
    97  H    0.075611
    98  H    0.089868
    99  H    0.079192
   100  H    0.108478
 Sum of Mulliken charges =  -0.00000

 Dipole moment (field-independent basis, Debye):
    X=              3.8094    Y=              0.0536    Z=              1.1860  Tot=              3.9901
 Quadrupole moment (field-independent basis, Debye-Ang):
   XX=           -246.3720   YY=           -260.2906   ZZ=           -280.5418
   XY=             -5.3051   XZ=             26.0168   YZ=             -3.0711

 Normal termination of Gaussian 16 at Tue Jul 30 03:13:02 2019.
