 Gaussian 16, Revision A.03,
 Gaussian 16:  ES64L-G16RevA.03 25-Dec-2016

 -------------------------------------
 # td=(NStates=1) CAM-B3LYP/6-31G(d,p)
 -------------------------------------

 --
 TD
 --
 Symbolic Z-matrix:
 Charge =  0 Multiplicity = 1

                         Standard orientation:
 ---------------------------------------------------------------------
 Center     Atomic      Atomic             Coordinates (Angstroms)
 Number     Number       Type             X           Y           Z
 ---------------------------------------------------------------------
      1          8           0      -11.838087    0.377692   -1.500151
      2          8           0      -12.898315   -2.584521    1.440397
      3          8           0       10.497996   -1.166615   -2.044654
      4          8           0       14.520535   -0.899024   -0.284587
      5          6           0      -11.021945   -0.051888   -0.322623
      6          6           0      -11.660667   -1.056475   -1.223850
      7          6           0      -11.723349    0.307101    1.024647
      8          6           0      -12.947073   -1.735480   -0.898176
      9          6           0      -13.222290   -0.136876    1.034062
     10          6           0      -13.520411   -1.541045    0.520700
     11          6           0      -10.931279   -1.858941   -2.266112
     12          6           0       -9.515558    0.165838   -0.507092
     13          6           0      -10.967130   -0.275528    2.232371
     14          6           0      -11.725103    1.881983    1.016556
     15          6           0       -8.708598   -0.847315   -0.042354
     16          6           0       -7.177429   -0.648094    0.024523
     17          6           0       -6.440071   -1.908300    0.279171
     18          6           0       -6.584315    0.593555   -0.075143
     19          6           0       -5.224873    0.958103   -0.196299
     20          6           0       11.984242    0.042931    1.270392
     21          6           0       11.596174   -0.678790   -1.267270
     22          6           0       12.805380   -1.166909    1.411353
     23          6           0       13.455721   -1.748174    0.157551
     24          6           0       12.503021   -1.944260   -0.907742
     25          6           0       11.136190   -0.054281   -0.005589
     26          6           0       10.983210    0.246458    2.410418
     27          6           0       12.988065    1.201492    1.309130
     28          6           0       12.409927    0.283994   -2.116065
     29          6           0       -4.725659    2.266472   -0.502774
     30          6           0        9.860682    0.353607   -0.053865
     31          6           0       -3.351409    2.649051   -0.584709
     32          6           0        8.614930    0.825413   -0.080635
     33          6           0       -3.033819    4.118363   -0.620757
     34          6           0       -2.441769    1.674202   -0.475308
     35          6           0        7.431707    0.178906    0.098732
     36          6           0        7.477780   -1.272298    0.421989
     37          6           0        6.277625    0.819026    0.179160
     38          6           0       -1.011623    1.881228   -0.335897
     39          6           0        4.931506    0.284497    0.255894
     40          6           0       -0.013134    0.873422   -0.091595
     41          6           0        3.790660    0.908789   -0.014649
     42          6           0        1.384392    1.227881   -0.142313
     43          6           0        2.453853    0.470419    0.189351
     44          6           0        2.334894   -1.022723    0.551479
     45          1           0      -12.912825   -2.908314   -1.153722
     46          1           0      -13.714478   -1.510038   -1.564915
     47          1           0      -13.682358   -0.211228    1.999199
     48          1           0      -13.861121    0.849419    0.406231
     49          1           0      -14.571630   -1.740918    0.545770
     50          1           0      -10.503438   -2.846944   -1.990610
     51          1           0      -11.470387   -2.092275   -3.103315
     52          1           0      -10.148931   -1.241516   -2.758912
     53          1           0       -9.069940    1.106149   -0.857302
     54          1           0       -9.828680   -0.128234    2.257146
     55          1           0      -11.527545   -0.100067    3.169725
     56          1           0      -10.911342   -1.415597    2.287688
     57          1           0      -12.335948    2.191243    0.084138
     58          1           0      -12.332438    2.287613    1.968284
     59          1           0      -10.721580    2.252380    1.042250
     60          1           0      -12.016254   -2.627961    1.044109
     61          1           0       -9.155195   -1.618612    0.618507
     62          1           0       -5.903543   -2.509856   -0.689703
     63          1           0       -5.777706   -1.729380    1.056618
     64          1           0       -7.018011   -2.726922    0.536430
     65          1           0       -7.276823    1.518121    0.008038
     66          1           0       -4.653989   -0.130322   -0.245966
     67          1           0       13.381936   -0.949777    2.330025
     68          1           0       11.982685   -2.124731    1.772901
     69          1           0       13.817521   -2.581333    0.462825
     70          1           0       13.020232   -2.042830   -1.871304
     71          1           0       11.795648   -2.754754   -0.781009
     72          1           0       11.647603    0.549588    3.376344
     73          1           0       10.430540    1.113815    2.332833
     74          1           0       10.230526   -0.541187    2.459197
     75          1           0       13.793894    0.789613    0.674798
     76          1           0       12.542718    2.106963    1.116067
     77          1           0       13.248161    1.363477    2.382918
     78          1           0       12.727560   -0.441791   -2.951587
     79          1           0       11.930723    0.972958   -2.528837
     80          1           0       13.338039    0.655551   -1.621638
     81          1           0       -5.599822    3.067770   -0.458494
     82          1           0        9.962738   -0.458272   -2.243690
     83          1           0       15.257290   -1.270333    0.472363
     84          1           0        8.495050    1.761937   -0.374877
     85          1           0       -2.630457    4.460923    0.383765
     86          1           0       -2.124038    4.213837   -1.303891
     87          1           0       -3.949341    4.775398   -0.786085
     88          1           0       -2.982636    0.777753   -0.570020
     89          1           0        6.505839   -1.988210    0.390428
     90          1           0        8.203906   -1.926047   -0.263609
     91          1           0        8.041999   -1.482974    1.282095
     92          1           0        6.349286    1.886797   -0.249965
     93          1           0       -0.404437    2.915052   -0.336201
     94          1           0        4.955589   -0.780947    0.405294
     95          1           0       -0.301206   -0.110348    0.246318
     96          1           0        3.923218    2.006664   -0.492384
     97          1           0        1.693765    2.299891   -0.657760
     98          1           0        1.336184   -1.403239    0.887242
     99          1           0        2.658149   -1.641272   -0.286606
    100          1           0        3.023545   -1.299050    1.314825
 ---------------------------------------------------------------------

 SCF Done:  E(RCAM-B3LYP) =  -1857.29929462     A.U. after   15 cycles

 Excitation energies and oscillator strengths:

 Excited State   1:      Singlet-A      2.3630 eV  524.70 nm  f=2.7183  <S**2>=0.000
     163 ->166        -0.14366
     164 ->165         0.68891
 This state for optimization and/or second-order correction.
 Total Energy, E(TD-HF/TD-DFT) =  -1857.21245757
 Copying the excited state density for this state as the 1-particle RhoCI density.

 The electronic state is 1-A.
 Alpha  occ. eigenvalues --  -19.24304 -19.21946 -19.20989 -19.20707 -10.32783
 Alpha  occ. eigenvalues --  -10.32300 -10.31686 -10.31012 -10.30348 -10.28818
 Alpha  occ. eigenvalues --  -10.28773 -10.28655 -10.28570 -10.28547 -10.28057
 Alpha  occ. eigenvalues --  -10.27701 -10.27423 -10.27386 -10.27300 -10.27264
 Alpha  occ. eigenvalues --  -10.27223 -10.27210 -10.27155 -10.27153 -10.27137
 Alpha  occ. eigenvalues --  -10.26867 -10.26791 -10.26616 -10.26515 -10.26148
 Alpha  occ. eigenvalues --  -10.26147 -10.25989 -10.25887 -10.25827 -10.25808
 Alpha  occ. eigenvalues --  -10.25707 -10.25667 -10.25431 -10.25431 -10.25081
 Alpha  occ. eigenvalues --  -10.24724 -10.24689 -10.23559 -10.23119  -1.12400
 Alpha  occ. eigenvalues --   -1.10992  -1.10019  -1.07102  -0.94124  -0.92892
 Alpha  occ. eigenvalues --   -0.92300  -0.91040  -0.90690  -0.89659  -0.87419
 Alpha  occ. eigenvalues --   -0.86930  -0.86663  -0.85516  -0.84902  -0.83263
 Alpha  occ. eigenvalues --   -0.82289  -0.81043  -0.80726  -0.78066  -0.77670
 Alpha  occ. eigenvalues --   -0.76690  -0.76655  -0.76152  -0.76049  -0.75749
 Alpha  occ. eigenvalues --   -0.75684  -0.74377  -0.73333  -0.71178  -0.69978
 Alpha  occ. eigenvalues --   -0.68569  -0.66733  -0.65938  -0.64906  -0.64611
 Alpha  occ. eigenvalues --   -0.63713  -0.61545  -0.60222  -0.59646  -0.59548
 Alpha  occ. eigenvalues --   -0.58846  -0.58267  -0.57893  -0.57540  -0.56611
 Alpha  occ. eigenvalues --   -0.56289  -0.55769  -0.55314  -0.54937  -0.54503
 Alpha  occ. eigenvalues --   -0.53586  -0.53105  -0.52689  -0.52402  -0.52204
 Alpha  occ. eigenvalues --   -0.51860  -0.50681  -0.50555  -0.50350  -0.50022
 Alpha  occ. eigenvalues --   -0.49451  -0.49192  -0.48883  -0.48553  -0.48081
 Alpha  occ. eigenvalues --   -0.47932  -0.47635  -0.47547  -0.47129  -0.46809
 Alpha  occ. eigenvalues --   -0.46554  -0.46154  -0.45780  -0.45414  -0.45156
 Alpha  occ. eigenvalues --   -0.45062  -0.44778  -0.44036  -0.43562  -0.43430
 Alpha  occ. eigenvalues --   -0.43278  -0.43201  -0.42915  -0.42702  -0.42352
 Alpha  occ. eigenvalues --   -0.42284  -0.42237  -0.41638  -0.41601  -0.41426
 Alpha  occ. eigenvalues --   -0.41119  -0.40344  -0.40285  -0.40154  -0.39921
 Alpha  occ. eigenvalues --   -0.39843  -0.39413  -0.39133  -0.38982  -0.38213
 Alpha  occ. eigenvalues --   -0.38013  -0.37493  -0.37380  -0.37246  -0.37208
 Alpha  occ. eigenvalues --   -0.36866  -0.36771  -0.35686  -0.35051  -0.33932
 Alpha  occ. eigenvalues --   -0.33435  -0.32715  -0.32377  -0.31996  -0.31167
 Alpha  occ. eigenvalues --   -0.29228  -0.28203  -0.24645  -0.20540
 Alpha virt. eigenvalues --   -0.05535  -0.00990   0.02653   0.05888   0.06671
 Alpha virt. eigenvalues --    0.06789   0.09451   0.09870   0.11547   0.11722
 Alpha virt. eigenvalues --    0.12034   0.12494   0.12736   0.12999   0.13201

 Mulliken charges:
               1
     1  O   -0.525239
     2  O   -0.554643
     3  O   -0.558063
     4  O   -0.534872
     5  C    0.194128
     6  C    0.262636
     7  C    0.034443
     8  C   -0.230870
     9  C   -0.153333
    10  C    0.115633
    11  C   -0.348701
    12  C   -0.094841
    13  C   -0.323344
    14  C   -0.303404
    15  C   -0.091799
    16  C    0.063994
    17  C   -0.372441
    18  C   -0.114265
    19  C   -0.075238
    20  C    0.016483
    21  C    0.204640
    22  C   -0.182283
    23  C    0.170620
    24  C   -0.200857
    25  C   -0.023220
    26  C   -0.300758
    27  C   -0.308435
    28  C   -0.283511
    29  C   -0.157333
    30  C    0.109729
    31  C    0.129269
    32  C   -0.292608
    33  C   -0.374676
    34  C   -0.090213
    35  C    0.215343
    36  C   -0.403864
    37  C   -0.148739
    38  C   -0.120688
    39  C   -0.079291
    40  C   -0.077853
    41  C   -0.114597
    42  C   -0.139639
    43  C    0.130149
    44  C   -0.383418
    45  H    0.089706
    46  H    0.134678
    47  H    0.116291
    48  H    0.065747
    49  H    0.107986
    50  H    0.107361
    51  H    0.124272
    52  H    0.117150
    53  H    0.116385
    54  H    0.105038
    55  H    0.113918
    56  H    0.089065
    57  H    0.126795
    58  H    0.083511
    59  H    0.105165
    60  H    0.303753
    61  H    0.093033
    62  H    0.087926
    63  H    0.134421
    64  H    0.122035
    65  H    0.070682
    66  H    0.088369
    67  H    0.093318
    68  H    0.038648
    69  H    0.100801
    70  H    0.113728
    71  H    0.125017
    72  H    0.062906
    73  H    0.124114
    74  H    0.108710
    75  H    0.138206
    76  H    0.107148
    77  H    0.085670
    78  H    0.094721
    79  H    0.098621
    80  H    0.130057
    81  H    0.088813
    82  H    0.296302
    83  H    0.311447
    84  H    0.098423
    85  H    0.125334
    86  H    0.121825
    87  H    0.109981
    88  H    0.084826
    89  H    0.098062
    90  H    0.110654
    91  H    0.132058
    92  H    0.059927
    93  H    0.090323
    94  H    0.076084
    95  H    0.092336
    96  H    0.066929
    97  H    0.071523
    98  H    0.103481
    99  H    0.129401
   100  H    0.123290
 Sum of Mulliken charges =  -0.00000

 Dipole moment (field-independent basis, Debye):
    X=              3.8483    Y=             -1.1000    Z=              1.2151  Tot=              4.1828
 Quadrupole moment (field-independent basis, Debye-Ang):
   XX=           -249.2066   YY=           -259.9862   ZZ=           -280.3364
   XY=             -7.9318   XZ=             25.8063   YZ=              0.0689

 Normal termination of Gaussian 16 at Wed Jul 31 15:50:48 2019.
