 Gaussian 16, Revision A.03,
 Gaussian 16:  ES64L-G16RevA.03 25-Dec-2016

 -------------------------------------
 # td=(NStates=1) CAM-B3LYP/6-31G(d,p)
 -------------------------------------

 --
 TD
 --
 Symbolic Z-matrix:
 Charge =  0 Multiplicity = 1

                         Standard orientation:
 ---------------------------------------------------------------------
 Center     Atomic      Atomic             Coordinates (Angstroms)
 Number     Number       Type             X           Y           Z
 ---------------------------------------------------------------------
      1          8           0      -11.834782    0.476776   -1.385817
      2          8           0      -12.891878   -2.769374    1.165676
      3          8           0       10.475780   -0.978287   -2.118408
      4          8           0       14.399609   -1.091033   -0.130869
      5          6           0      -11.067145   -0.116570   -0.297584
      6          6           0      -11.673281   -0.957127   -1.339485
      7          6           0      -11.727455    0.168300    1.089868
      8          6           0      -12.889514   -1.654580   -1.008188
      9          6           0      -13.228764   -0.338041    1.048168
     10          6           0      -13.500891   -1.663404    0.379898
     11          6           0      -10.858059   -1.518339   -2.518720
     12          6           0       -9.560633    0.215232   -0.357155
     13          6           0      -11.022052   -0.482455    2.361331
     14          6           0      -11.727496    1.728005    1.339140
     15          6           0       -8.671880   -0.754086   -0.130913
     16          6           0       -7.148973   -0.532505   -0.013510
     17          6           0       -6.269703   -1.709392    0.415900
     18          6           0       -6.585282    0.697548   -0.252402
     19          6           0       -5.162282    1.039059   -0.243777
     20          6           0       11.874130   -0.010372    1.248785
     21          6           0       11.588979   -0.605612   -1.349778
     22          6           0       12.516694   -1.410545    1.444656
     23          6           0       13.286700   -1.876257    0.197730
     24          6           0       12.271847   -1.906748   -0.942894
     25          6           0       11.131522    0.055593   -0.012954
     26          6           0       10.995081    0.119583    2.457334
     27          6           0       12.971527    1.066714    1.281186
     28          6           0       12.507576    0.322296   -2.048057
     29          6           0       -4.689865    2.323916   -0.333224
     30          6           0        9.914173    0.538234   -0.015220
     31          6           0       -3.339630    2.665418   -0.409662
     32          6           0        8.589910    1.062375   -0.040654
     33          6           0       -2.965331    4.117331   -0.489891
     34          6           0       -2.303324    1.657160   -0.190806
     35          6           0        7.402739    0.187492    0.036815
     36          6           0        7.595714   -1.195977    0.215465
     37          6           0        6.243454    0.937178   -0.007072
     38          6           0       -0.936084    1.814695   -0.280894
     39          6           0        5.023736    0.188400    0.173621
     40          6           0        0.037079    0.894575   -0.074501
     41          6           0        3.784006    0.899043    0.124715
     42          6           0        1.380050    1.167900   -0.068490
     43          6           0        2.512519    0.348581    0.152991
     44          6           0        2.366688   -1.153913    0.165831
     45          1           0      -12.788884   -2.793073   -1.483738
     46          1           0      -13.573348   -1.284952   -1.784000
     47          1           0      -13.901537   -0.330393    2.002936
     48          1           0      -13.866088    0.250494    0.456214
     49          1           0      -14.499935   -1.794204    0.494207
     50          1           0      -10.477542   -2.516359   -2.134182
     51          1           0      -11.448319   -1.610562   -3.264784
     52          1           0       -9.980502   -0.742058   -2.771419
     53          1           0       -9.516806    1.321275   -0.556363
     54          1           0       -9.962841   -0.076909    2.627201
     55          1           0      -11.742737   -0.275610    3.100976
     56          1           0      -10.913828   -1.676623    2.316477
     57          1           0      -12.305833    2.257534    0.388098
     58          1           0      -12.392228    1.910470    2.157365
     59          1           0      -10.714543    2.165928    1.739811
     60          1           0      -11.846659   -2.867368    1.049671
     61          1           0       -9.075921   -1.750716    0.267483
     62          1           0       -5.414122   -1.943741   -0.437331
     63          1           0       -5.720146   -1.626852    1.387174
     64          1           0       -6.850400   -2.705632    0.145862
     65          1           0       -7.220820    1.611218   -0.335179
     66          1           0       -4.577434    0.058985   -0.377084
     67          1           0       13.175242   -1.374306    2.326815
     68          1           0       11.892519   -2.168064    1.903507
     69          1           0       13.709418   -2.854364    0.532526
     70          1           0       12.695992   -2.158363   -1.839185
     71          1           0       11.510534   -2.626314   -0.542791
     72          1           0       11.697149    0.252697    3.389323
     73          1           0       10.301790    0.953578    2.437306
     74          1           0       10.455136   -0.859811    2.473319
     75          1           0       13.604491    1.050806    0.228097
     76          1           0       12.535210    2.009346    1.655230
     77          1           0       13.683830    0.918330    2.213219
     78          1           0       12.679680   -0.149596   -2.979223
     79          1           0       12.015590    1.285516   -2.191999
     80          1           0       13.337009    0.595819   -1.620454
     81          1           0       -5.399311    3.117579   -0.303042
     82          1           0        9.929258   -0.153685   -2.248029
     83          1           0       14.896455   -0.814592    0.762477
     84          1           0        8.629566    2.050901   -0.235822
     85          1           0       -2.276042    4.356394    0.089708
     86          1           0       -2.527041    4.490481   -1.402097
     87          1           0       -3.805776    4.708259   -0.301766
     88          1           0       -2.498213    0.549198   -0.003353
     89          1           0        6.725221   -1.980234    0.041087
     90          1           0        8.437492   -1.595052   -0.329574
     91          1           0        7.763370   -1.322392    1.222413
     92          1           0        6.016139    1.863318   -0.376923
     93          1           0       -0.560109    2.753336   -0.709027
     94          1           0        4.960708   -0.831003    0.219347
     95          1           0       -0.313836   -0.229030   -0.126332
     96          1           0        3.901288    1.991683   -0.015808
     97          1           0        1.535932    2.302452   -0.134766
     98          1           0        1.360212   -1.357796    0.047596
     99          1           0        2.845959   -1.693291   -0.769552
    100          1           0        2.686884   -1.739557    1.108110
 ---------------------------------------------------------------------

 SCF Done:  E(RCAM-B3LYP) =  -1857.32754338     A.U. after   15 cycles

 Excitation energies and oscillator strengths:

 Excited State   1:      Singlet-A      1.9676 eV  630.13 nm  f=3.0263  <S**2>=0.000
     163 ->166         0.12888
     164 ->165         0.70012
     164 <-165        -0.11421
 This state for optimization and/or second-order correction.
 Total Energy, E(TD-HF/TD-DFT) =  -1857.25523563
 Copying the excited state density for this state as the 1-particle RhoCI density.

 The electronic state is 1-A.
 Alpha  occ. eigenvalues --  -19.22657 -19.21976 -19.21414 -19.20421 -10.31894
 Alpha  occ. eigenvalues --  -10.31509 -10.31477 -10.31249 -10.30481 -10.29124
 Alpha  occ. eigenvalues --  -10.28322 -10.28288 -10.28083 -10.28066 -10.27916
 Alpha  occ. eigenvalues --  -10.27510 -10.27420 -10.27363 -10.27339 -10.26946
 Alpha  occ. eigenvalues --  -10.26861 -10.26853 -10.26556 -10.26525 -10.26491
 Alpha  occ. eigenvalues --  -10.26471 -10.26373 -10.26317 -10.26309 -10.26255
 Alpha  occ. eigenvalues --  -10.26142 -10.25966 -10.25588 -10.25555 -10.25552
 Alpha  occ. eigenvalues --  -10.25478 -10.25471 -10.25427 -10.25321 -10.25275
 Alpha  occ. eigenvalues --  -10.25174 -10.24779 -10.23242 -10.22479  -1.14061
 Alpha  occ. eigenvalues --   -1.10711  -1.09599  -1.05274  -0.94061  -0.92232
 Alpha  occ. eigenvalues --   -0.91704  -0.90664  -0.89845  -0.89095  -0.87490
 Alpha  occ. eigenvalues --   -0.87255  -0.86945  -0.85177  -0.84729  -0.83186
 Alpha  occ. eigenvalues --   -0.82304  -0.81255  -0.81069  -0.79079  -0.78131
 Alpha  occ. eigenvalues --   -0.76658  -0.76657  -0.76171  -0.75905  -0.75610
 Alpha  occ. eigenvalues --   -0.74521  -0.73647  -0.72374  -0.70293  -0.69716
 Alpha  occ. eigenvalues --   -0.68557  -0.66814  -0.65357  -0.65071  -0.64189
 Alpha  occ. eigenvalues --   -0.63277  -0.62345  -0.61706  -0.60562  -0.59419
 Alpha  occ. eigenvalues --   -0.58702  -0.58410  -0.57754  -0.57433  -0.55907
 Alpha  occ. eigenvalues --   -0.55692  -0.55229  -0.54581  -0.54431  -0.54163
 Alpha  occ. eigenvalues --   -0.53367  -0.53282  -0.52883  -0.52348  -0.51888
 Alpha  occ. eigenvalues --   -0.51840  -0.51433  -0.50705  -0.50386  -0.50111
 Alpha  occ. eigenvalues --   -0.49510  -0.49176  -0.48882  -0.48606  -0.48278
 Alpha  occ. eigenvalues --   -0.48164  -0.47820  -0.47480  -0.47192  -0.47025
 Alpha  occ. eigenvalues --   -0.46886  -0.46595  -0.46153  -0.45943  -0.45694
 Alpha  occ. eigenvalues --   -0.45004  -0.44575  -0.44332  -0.44129  -0.43583
 Alpha  occ. eigenvalues --   -0.43468  -0.43406  -0.43108  -0.43051  -0.42803
 Alpha  occ. eigenvalues --   -0.42667  -0.41836  -0.41510  -0.40948  -0.40834
 Alpha  occ. eigenvalues --   -0.40394  -0.40333  -0.40111  -0.39948  -0.39796
 Alpha  occ. eigenvalues --   -0.39432  -0.39225  -0.38895  -0.38619  -0.38525
 Alpha  occ. eigenvalues --   -0.38135  -0.38082  -0.37989  -0.37399  -0.37242
 Alpha  occ. eigenvalues --   -0.36765  -0.36397  -0.35085  -0.34381  -0.34003
 Alpha  occ. eigenvalues --   -0.33316  -0.31892  -0.31729  -0.31055  -0.30646
 Alpha  occ. eigenvalues --   -0.29941  -0.27774  -0.24096  -0.18545
 Alpha virt. eigenvalues --   -0.06340  -0.00440   0.03159   0.06519   0.07939
 Alpha virt. eigenvalues --    0.08317   0.09185   0.10161   0.11833   0.12331
 Alpha virt. eigenvalues --    0.12695   0.12877   0.13312   0.13624   0.13911

 Mulliken charges:
               1
     1  O   -0.517393
     2  O   -0.580325
     3  O   -0.567219
     4  O   -0.555855
     5  C    0.153091
     6  C    0.253927
     7  C    0.035953
     8  C   -0.220766
     9  C   -0.206002
    10  C    0.179925
    11  C   -0.300920
    12  C   -0.081435
    13  C   -0.290852
    14  C   -0.316966
    15  C   -0.092666
    16  C    0.071203
    17  C   -0.378740
    18  C   -0.113079
    19  C   -0.056360
    20  C    0.035653
    21  C    0.249601
    22  C   -0.225480
    23  C    0.178477
    24  C   -0.166437
    25  C   -0.063899
    26  C   -0.298575
    27  C   -0.307501
    28  C   -0.292462
    29  C   -0.125238
    30  C    0.049014
    31  C    0.075101
    32  C   -0.223028
    33  C   -0.366994
    34  C   -0.116140
    35  C    0.120812
    36  C   -0.395341
    37  C   -0.095592
    38  C   -0.083003
    39  C   -0.076037
    40  C   -0.075394
    41  C   -0.137302
    42  C   -0.134857
    43  C    0.118010
    44  C   -0.371595
    45  H    0.079952
    46  H    0.119239
    47  H    0.089511
    48  H    0.113100
    49  H    0.109759
    50  H    0.098008
    51  H    0.123605
    52  H    0.116022
    53  H    0.121605
    54  H    0.101388
    55  H    0.122217
    56  H    0.066312
    57  H    0.111060
    58  H    0.112227
    59  H    0.097794
    60  H    0.300932
    61  H    0.082185
    62  H    0.095916
    63  H    0.140858
    64  H    0.100687
    65  H    0.075980
    66  H    0.088016
    67  H    0.078488
    68  H    0.104139
    69  H    0.073627
    70  H    0.107739
    71  H    0.109963
    72  H    0.079280
    73  H    0.112255
    74  H    0.100464
    75  H    0.112984
    76  H    0.107093
    77  H    0.066955
    78  H    0.112531
    79  H    0.088194
    80  H    0.136195
    81  H    0.087412
    82  H    0.309391
    83  H    0.315000
    84  H    0.110934
    85  H    0.135303
    86  H    0.117280
    87  H    0.110913
    88  H    0.074941
    89  H    0.104281
    90  H    0.146710
    91  H    0.146276
    92  H    0.093568
    93  H    0.076661
    94  H    0.079123
    95  H    0.074701
    96  H    0.068920
    97  H    0.073654
    98  H    0.113697
    99  H    0.107572
   100  H    0.110066
 Sum of Mulliken charges =  -0.00000

 Dipole moment (field-independent basis, Debye):
    X=              3.2293    Y=              0.3702    Z=              1.5737  Tot=              3.6113
 Quadrupole moment (field-independent basis, Debye-Ang):
   XX=           -262.1329   YY=           -260.8759   ZZ=           -276.2284
   XY=             -1.3154   XZ=             28.9002   YZ=             -1.5344

 Normal termination of Gaussian 16 at Thu Aug  1 18:47:43 2019.
