 Gaussian 16, Revision A.03,
 Gaussian 16:  ES64L-G16RevA.03 25-Dec-2016

 -------------------------------------
 # td=(NStates=1) CAM-B3LYP/6-31G(d,p)
 -------------------------------------

 --
 TD
 --
 Symbolic Z-matrix:
 Charge =  0 Multiplicity = 1

                         Standard orientation:
 ---------------------------------------------------------------------
 Center     Atomic      Atomic             Coordinates (Angstroms)
 Number     Number       Type             X           Y           Z
 ---------------------------------------------------------------------
      1          8           0      -11.739595    0.387457   -1.368614
      2          8           0      -13.118486   -2.565096    1.211445
      3          8           0       10.685368   -0.787201   -2.130861
      4          8           0       14.488849   -0.883414   -0.113041
      5          6           0      -11.047533   -0.093880   -0.282262
      6          6           0      -11.672939   -0.992997   -1.259590
      7          6           0      -11.741716    0.190934    1.142820
      8          6           0      -13.075669   -1.637882   -1.099597
      9          6           0      -13.228157   -0.153286    0.952252
     10          6           0      -13.532929   -1.570413    0.335319
     11          6           0      -10.827216   -1.757007   -2.255724
     12          6           0       -9.559299    0.169223   -0.310212
     13          6           0      -11.082466   -0.712888    2.206804
     14          6           0      -11.747870    1.690033    1.384492
     15          6           0       -8.567107   -0.775208   -0.016536
     16          6           0       -7.187497   -0.418583   -0.011673
     17          6           0       -6.338084   -1.695435    0.231702
     18          6           0       -6.670271    0.790706   -0.016660
     19          6           0       -5.214279    1.124662   -0.090943
     20          6           0       11.805524   -0.259429    1.495496
     21          6           0       11.678138   -0.376837   -1.204464
     22          6           0       12.656771   -1.576124    1.328506
     23          6           0       13.468782   -1.759831    0.087617
     24          6           0       12.585175   -1.587184   -1.218442
     25          6           0       11.075402   -0.065060    0.161285
     26          6           0       10.961807   -0.369622    2.685937
     27          6           0       12.763595    0.983081    1.710086
     28          6           0       12.365738    0.790152   -1.796249
     29          6           0       -4.693115    2.336767   -0.223499
     30          6           0        9.863764    0.483255    0.179434
     31          6           0       -3.316010    2.594707   -0.237460
     32          6           0        8.641345    0.858814    0.023848
     33          6           0       -3.000035    4.031041   -0.310486
     34          6           0       -2.284875    1.686372   -0.243062
     35          6           0        7.444944    0.156601    0.000361
     36          6           0        7.639320   -1.377340   -0.003419
     37          6           0        6.258298    0.789083   -0.182199
     38          6           0       -0.939018    1.887255   -0.362422
     39          6           0        4.990230    0.163241   -0.183045
     40          6           0        0.013356    1.020776   -0.247675
     41          6           0        3.783953    0.810970   -0.263984
     42          6           0        1.380287    1.225486   -0.337080
     43          6           0        2.474617    0.286777   -0.184641
     44          6           0        2.272208   -1.206537   -0.112587
     45          1           0      -12.996605   -2.812375   -1.360584
     46          1           0      -13.644817   -1.081507   -1.827153
     47          1           0      -13.704396    0.049276    2.024881
     48          1           0      -13.576911    0.564837    0.399288
     49          1           0      -14.653115   -1.554372    0.404022
     50          1           0      -10.325476   -2.700539   -1.875457
     51          1           0      -11.527359   -1.913388   -3.103638
     52          1           0       -9.875224   -1.219144   -2.708879
     53          1           0       -9.340689    1.162868   -0.686669
     54          1           0      -10.028130   -0.351079    2.794108
     55          1           0      -11.784053   -0.970651    3.026558
     56          1           0      -10.781750   -1.670760    1.856791
     57          1           0      -11.991640    2.196662    0.483020
     58          1           0      -12.161195    2.044961    2.427046
     59          1           0      -10.686411    1.953216    1.436982
     60          1           0      -12.044848   -2.395221    1.212206
     61          1           0       -8.953094   -1.769094    0.239379
     62          1           0       -6.018301   -2.147845   -0.822236
     63          1           0       -5.348842   -1.389955    0.882872
     64          1           0       -7.010282   -2.494286    0.611671
     65          1           0       -7.337674    1.720946   -0.238284
     66          1           0       -4.523145    0.179704   -0.266280
     67          1           0       13.271180   -1.596050    2.311125
     68          1           0       11.902509   -2.362264    1.344835
     69          1           0       14.022029   -2.761947    0.224287
     70          1           0       13.293314   -1.926821   -2.020262
     71          1           0       11.832837   -2.486398   -1.202150
     72          1           0       11.462249   -0.753309    3.633967
     73          1           0       10.725058    0.680874    2.883503
     74          1           0       10.077235   -1.094103    2.440873
     75          1           0       13.427680    1.189019    0.916957
     76          1           0       12.198805    1.890107    1.895837
     77          1           0       13.198666    1.081247    2.794502
     78          1           0       12.601207    0.656249   -2.821705
     79          1           0       11.680687    1.714380   -1.796243
     80          1           0       13.182284    0.861002   -1.190033
     81          1           0       -5.417388    3.271491   -0.175971
     82          1           0       10.187169    0.075138   -2.121104
     83          1           0       15.036365   -0.803584    0.650480
     84          1           0        8.424278    1.937115   -0.024304
     85          1           0       -2.573691    4.600040    0.749541
     86          1           0       -1.931560    4.243065   -0.912207
     87          1           0       -3.903597    4.722086   -0.702908
     88          1           0       -2.701474    0.628858   -0.142076
     89          1           0        6.776171   -1.964663   -0.195389
     90          1           0        8.345352   -1.755910   -0.727833
     91          1           0        7.734421   -1.785541    1.086205
     92          1           0        6.315453    1.906529   -0.097919
     93          1           0       -0.794275    2.830340   -0.326876
     94          1           0        5.019482   -0.959207    0.097454
     95          1           0       -0.264953   -0.100954   -0.336383
     96          1           0        3.943766    1.842205   -0.224309
     97          1           0        1.700120    2.265574   -0.469316
     98          1           0        1.296304   -1.471211    0.075421
     99          1           0        2.484005   -1.758812   -0.975004
    100          1           0        2.850177   -1.537096    0.823621
 ---------------------------------------------------------------------

 SCF Done:  E(RCAM-B3LYP) =  -1857.35563713     A.U. after   15 cycles

 Excitation energies and oscillator strengths:

 Excited State   1:      Singlet-A      2.3505 eV  527.48 nm  f=3.2181  <S**2>=0.000
     163 ->166         0.14242
     164 ->165         0.69025
 This state for optimization and/or second-order correction.
 Total Energy, E(TD-HF/TD-DFT) =  -1857.26925750
 Copying the excited state density for this state as the 1-particle RhoCI density.

 The electronic state is 1-A.
 Alpha  occ. eigenvalues --  -19.23483 -19.22152 -19.21449 -19.20731 -10.32447
 Alpha  occ. eigenvalues --  -10.32215 -10.31502 -10.30911 -10.30553 -10.28971
 Alpha  occ. eigenvalues --  -10.28354 -10.28290 -10.28165 -10.28088 -10.27715
 Alpha  occ. eigenvalues --  -10.27604 -10.27525 -10.27422 -10.27397 -10.27362
 Alpha  occ. eigenvalues --  -10.27214 -10.27137 -10.27013 -10.27005 -10.26987
 Alpha  occ. eigenvalues --  -10.26765 -10.26744 -10.26713 -10.26705 -10.26478
 Alpha  occ. eigenvalues --  -10.26367 -10.26120 -10.25763 -10.25702 -10.25677
 Alpha  occ. eigenvalues --  -10.25628 -10.25539 -10.25248 -10.25143 -10.25136
 Alpha  occ. eigenvalues --  -10.24998 -10.24099 -10.24012 -10.23045  -1.19620
 Alpha  occ. eigenvalues --   -1.12484  -1.10204  -1.09213  -0.93393  -0.93305
 Alpha  occ. eigenvalues --   -0.92144  -0.91844  -0.90816  -0.90440  -0.88641
 Alpha  occ. eigenvalues --   -0.86496  -0.86311  -0.85754  -0.84542  -0.83154
 Alpha  occ. eigenvalues --   -0.82127  -0.80829  -0.80297  -0.78900  -0.77763
 Alpha  occ. eigenvalues --   -0.77366  -0.76870  -0.76069  -0.75909  -0.75836
 Alpha  occ. eigenvalues --   -0.75578  -0.73730  -0.73542  -0.70640  -0.69563
 Alpha  occ. eigenvalues --   -0.69097  -0.67038  -0.65798  -0.64812  -0.64435
 Alpha  occ. eigenvalues --   -0.63956  -0.62497  -0.61257  -0.60425  -0.60061
 Alpha  occ. eigenvalues --   -0.58831  -0.58689  -0.57755  -0.57591  -0.56784
 Alpha  occ. eigenvalues --   -0.56454  -0.55592  -0.55394  -0.55070  -0.54708
 Alpha  occ. eigenvalues --   -0.54094  -0.53284  -0.52903  -0.52632  -0.52149
 Alpha  occ. eigenvalues --   -0.51371  -0.51175  -0.50853  -0.50800  -0.50329
 Alpha  occ. eigenvalues --   -0.49899  -0.49490  -0.49160  -0.48725  -0.48287
 Alpha  occ. eigenvalues --   -0.47938  -0.47799  -0.47497  -0.47190  -0.46962
 Alpha  occ. eigenvalues --   -0.46604  -0.46220  -0.45988  -0.45818  -0.45684
 Alpha  occ. eigenvalues --   -0.45552  -0.45284  -0.44803  -0.44306  -0.44253
 Alpha  occ. eigenvalues --   -0.43235  -0.43098  -0.42924  -0.42758  -0.42740
 Alpha  occ. eigenvalues --   -0.42106  -0.41735  -0.41549  -0.41512  -0.41476
 Alpha  occ. eigenvalues --   -0.41140  -0.40917  -0.40550  -0.40183  -0.40053
 Alpha  occ. eigenvalues --   -0.39820  -0.39659  -0.39305  -0.39228  -0.39033
 Alpha  occ. eigenvalues --   -0.38861  -0.38325  -0.37904  -0.37453  -0.37197
 Alpha  occ. eigenvalues --   -0.36639  -0.36043  -0.35341  -0.34683  -0.34153
 Alpha  occ. eigenvalues --   -0.32674  -0.32577  -0.31915  -0.31661  -0.31265
 Alpha  occ. eigenvalues --   -0.29511  -0.28302  -0.25146  -0.20294
 Alpha virt. eigenvalues --   -0.05790  -0.01045   0.02588   0.05627   0.06540
 Alpha virt. eigenvalues --    0.09218   0.10835   0.10962   0.11307   0.12922
 Alpha virt. eigenvalues --    0.13207   0.13348   0.13545   0.13716   0.13862

 Mulliken charges:
               1
     1  O   -0.479326
     2  O   -0.536698
     3  O   -0.545187
     4  O   -0.520285
     5  C    0.168716
     6  C    0.225540
     7  C    0.029574
     8  C   -0.199594
     9  C   -0.172555
    10  C    0.148645
    11  C   -0.336083
    12  C   -0.090169
    13  C   -0.334413
    14  C   -0.325054
    15  C   -0.103629
    16  C    0.124143
    17  C   -0.365865
    18  C   -0.128004
    19  C   -0.087587
    20  C    0.028296
    21  C    0.224185
    22  C   -0.185823
    23  C    0.150703
    24  C   -0.199830
    25  C   -0.035487
    26  C   -0.303904
    27  C   -0.332083
    28  C   -0.290587
    29  C   -0.119241
    30  C    0.143197
    31  C    0.150613
    32  C   -0.312842
    33  C   -0.381521
    34  C   -0.115604
    35  C    0.175076
    36  C   -0.388902
    37  C   -0.130289
    38  C   -0.018206
    39  C   -0.097700
    40  C   -0.073916
    41  C   -0.100090
    42  C   -0.128512
    43  C    0.087188
    44  C   -0.367968
    45  H    0.100479
    46  H    0.130009
    47  H    0.076517
    48  H    0.111754
    49  H    0.092039
    50  H    0.106949
    51  H    0.110447
    52  H    0.108694
    53  H    0.107619
    54  H    0.086434
    55  H    0.130124
    56  H    0.092565
    57  H    0.131170
    58  H    0.104799
    59  H    0.097488
    60  H    0.299226
    61  H    0.088281
    62  H    0.108599
    63  H    0.108665
    64  H    0.112905
    65  H    0.077018
    66  H    0.091410
    67  H    0.069307
    68  H    0.104426
    69  H    0.058403
    70  H    0.121569
    71  H    0.099035
    72  H    0.098491
    73  H    0.107426
    74  H    0.100936
    75  H    0.124483
    76  H    0.104472
    77  H    0.079385
    78  H    0.121315
    79  H    0.071834
    80  H    0.131379
    81  H    0.087262
    82  H    0.298169
    83  H    0.301217
    84  H    0.096020
    85  H    0.090626
    86  H    0.095151
    87  H    0.101970
    88  H    0.053807
    89  H    0.108715
    90  H    0.146924
    91  H    0.103254
    92  H    0.079632
    93  H    0.052613
    94  H    0.081616
    95  H    0.069758
    96  H    0.077582
    97  H    0.077211
    98  H    0.116748
    99  H    0.136924
   100  H    0.110225
 Sum of Mulliken charges =  -0.00000

 Dipole moment (field-independent basis, Debye):
    X=              1.8100    Y=              0.2667    Z=              1.9603  Tot=              2.6814
 Quadrupole moment (field-independent basis, Debye-Ang):
   XX=           -279.9336   YY=           -262.6883   ZZ=           -277.2564
   XY=             -3.5003   XZ=             34.9473   YZ=              0.8836

 Normal termination of Gaussian 16 at Thu Aug  1 04:36:02 2019.
