 Gaussian 16, Revision A.03,
 Gaussian 16:  ES64L-G16RevA.03 25-Dec-2016

 -------------------------------------
 # td=(NStates=1) CAM-B3LYP/6-31G(d,p)
 -------------------------------------

 --
 TD
 --
 Symbolic Z-matrix:
 Charge =  0 Multiplicity = 1

                         Standard orientation:
 ---------------------------------------------------------------------
 Center     Atomic      Atomic             Coordinates (Angstroms)
 Number     Number       Type             X           Y           Z
 ---------------------------------------------------------------------
      1          8           0      -11.844260    0.353603   -1.484714
      2          8           0      -13.126620   -2.380536    1.413167
      3          8           0       10.704731   -1.132809   -2.087456
      4          8           0       14.492375   -1.019804    0.080167
      5          6           0      -11.125887   -0.152500   -0.266310
      6          6           0      -11.644439   -1.071082   -1.299768
      7          6           0      -11.793295    0.279563    0.991590
      8          6           0      -13.030593   -1.829689   -1.007548
      9          6           0      -13.259776   -0.107680    0.926654
     10          6           0      -13.593240   -1.511231    0.463452
     11          6           0      -10.752790   -1.805549   -2.188679
     12          6           0       -9.607504    0.130376   -0.367647
     13          6           0      -11.114106   -0.241660    2.201579
     14          6           0      -11.723931    1.849325    0.957544
     15          6           0       -8.720313   -0.724157    0.163070
     16          6           0       -7.166212   -0.500310    0.211038
     17          6           0       -6.451126   -1.730732    0.697934
     18          6           0       -6.587809    0.705481   -0.187277
     19          6           0       -5.203181    0.917084   -0.064301
     20          6           0       11.860008    0.180611    1.355642
     21          6           0       11.708675   -0.741033   -1.227290
     22          6           0       12.729979   -1.089480    1.676568
     23          6           0       13.364493   -1.728399    0.434411
     24          6           0       12.410566   -2.006162   -0.755264
     25          6           0       11.111650   -0.060152    0.048086
     26          6           0       10.899951    0.409555    2.480682
     27          6           0       12.825803    1.450617    1.246339
     28          6           0       12.559620    0.250126   -2.058527
     29          6           0       -4.672722    2.195468   -0.395752
     30          6           0        9.933616    0.446872   -0.080006
     31          6           0       -3.282454    2.595407   -0.337202
     32          6           0        8.715729    0.833627   -0.305096
     33          6           0       -2.909896    4.023432   -0.712968
     34          6           0       -2.393975    1.570526   -0.275775
     35          6           0        7.422843    0.061370   -0.178358
     36          6           0        7.650216   -1.457296    0.162127
     37          6           0        6.250733    0.749340   -0.234166
     38          6           0       -0.953399    1.761215   -0.315827
     39          6           0        4.911821    0.234590   -0.130780
     40          6           0        0.045440    0.877326   -0.076263
     41          6           0        3.738032    0.883447   -0.226478
     42          6           0        1.435541    1.121836   -0.171220
     43          6           0        2.470643    0.284805   -0.210491
     44          6           0        2.310480   -1.201969    0.063219
     45          1           0      -12.748032   -3.035035   -1.209022
     46          1           0      -13.722774   -1.341835   -1.774007
     47          1           0      -13.752721   -0.085363    1.893582
     48          1           0      -13.647879    0.647002    0.157223
     49          1           0      -14.648534   -1.574757    0.407858
     50          1           0      -10.505446   -2.729041   -1.527304
     51          1           0      -11.474414   -2.014554   -3.005347
     52          1           0       -9.940062   -1.236282   -2.755564
     53          1           0       -9.328189    1.030297   -0.793584
     54          1           0      -10.145601    0.174124    2.531768
     55          1           0      -11.652572    0.126734    3.061719
     56          1           0      -10.960060   -1.238176    2.319923
     57          1           0      -12.142075    2.160166    0.094024
     58          1           0      -12.427650    2.409374    1.690800
     59          1           0      -10.669030    2.265651    1.026189
     60          1           0      -12.204485   -2.464168    1.129841
     61          1           0       -8.945338   -1.833535    0.574851
     62          1           0       -5.814259   -2.324494   -0.152450
     63          1           0       -5.596246   -1.648177    1.497629
     64          1           0       -6.900306   -2.443997    1.164644
     65          1           0       -7.249644    1.548504   -0.554604
     66          1           0       -4.537309    0.097224    0.284298
     67          1           0       13.495950   -0.790564    2.316891
     68          1           0       12.072070   -1.742054    2.396398
     69          1           0       13.594495   -2.803050    0.702855
     70          1           0       12.983210   -2.665787   -1.550965
     71          1           0       11.585426   -2.864910   -0.408007
     72          1           0       11.479126    0.363020    3.415857
     73          1           0       10.450411    1.421617    2.549797
     74          1           0       10.369285   -0.556974    2.317666
     75          1           0       13.529837    1.352213    0.439531
     76          1           0       12.327370    2.409662    1.314630
     77          1           0       13.494309    1.449893    2.270231
     78          1           0       12.649884   -0.313271   -2.963299
     79          1           0       11.903361    1.278777   -2.179430
     80          1           0       13.623276    0.501118   -1.583425
     81          1           0       -5.347716    3.040786   -0.468350
     82          1           0       10.038562   -0.434382   -1.974535
     83          1           0       14.858272   -0.557168    1.006578
     84          1           0        8.690963    1.803256   -0.622663
     85          1           0       -2.127008    4.058941    0.085900
     86          1           0       -2.468073    3.965334   -1.688720
     87          1           0       -3.678493    4.636572   -0.623519
     88          1           0       -2.625470    0.346276   -0.192605
     89          1           0        6.921980   -2.000621   -0.221547
     90          1           0        8.639329   -1.700835   -0.413843
     91          1           0        7.837126   -1.465681    1.291273
     92          1           0        6.474596    1.742761   -0.535532
     93          1           0       -0.688454    2.883390   -0.400599
     94          1           0        4.814972   -0.911453    0.008254
     95          1           0       -0.340796   -0.063135    0.345333
     96          1           0        3.738274    1.898475   -0.326872
     97          1           0        1.789375    2.199141   -0.240191
     98          1           0        1.312206   -1.575140   -0.368605
     99          1           0        3.255483   -1.758589   -0.343969
    100          1           0        2.334532   -1.318402    1.172056
 ---------------------------------------------------------------------

 SCF Done:  E(RCAM-B3LYP) =  -1857.35710816     A.U. after   15 cycles

 Excitation energies and oscillator strengths:

 Excited State   1:      Singlet-A      2.4894 eV  498.05 nm  f=2.6662  <S**2>=0.000
     163 ->166        -0.14472
     164 ->165         0.68841
 This state for optimization and/or second-order correction.
 Total Energy, E(TD-HF/TD-DFT) =  -1857.26562391
 Copying the excited state density for this state as the 1-particle RhoCI density.

 The electronic state is 1-A.
 Alpha  occ. eigenvalues --  -19.23292 -19.21750 -19.21732 -19.20557 -10.32151
 Alpha  occ. eigenvalues --  -10.31704 -10.31438 -10.31265 -10.30396 -10.28971
 Alpha  occ. eigenvalues --  -10.28553 -10.28516 -10.28491 -10.28228 -10.27681
 Alpha  occ. eigenvalues --  -10.27450 -10.27318 -10.27295 -10.27266 -10.27167
 Alpha  occ. eigenvalues --  -10.27021 -10.26960 -10.26849 -10.26798 -10.26758
 Alpha  occ. eigenvalues --  -10.26726 -10.26668 -10.26650 -10.26549 -10.26425
 Alpha  occ. eigenvalues --  -10.26411 -10.26330 -10.26225 -10.26209 -10.26007
 Alpha  occ. eigenvalues --  -10.25916 -10.25549 -10.25516 -10.25346 -10.25194
 Alpha  occ. eigenvalues --  -10.25099 -10.24504 -10.24490 -10.23224  -1.12996
 Alpha  occ. eigenvalues --   -1.12088  -1.11375  -1.10252  -0.93282  -0.92747
 Alpha  occ. eigenvalues --   -0.91983  -0.91593  -0.90321  -0.89837  -0.87169
 Alpha  occ. eigenvalues --   -0.85905  -0.85715  -0.85292  -0.84965  -0.82841
 Alpha  occ. eigenvalues --   -0.82193  -0.81106  -0.80136  -0.78367  -0.77331
 Alpha  occ. eigenvalues --   -0.77201  -0.77115  -0.76689  -0.76508  -0.75413
 Alpha  occ. eigenvalues --   -0.75217  -0.74626  -0.73729  -0.70605  -0.69173
 Alpha  occ. eigenvalues --   -0.68425  -0.67018  -0.65061  -0.64751  -0.64416
 Alpha  occ. eigenvalues --   -0.62992  -0.61427  -0.60266  -0.60100  -0.59825
 Alpha  occ. eigenvalues --   -0.59260  -0.58890  -0.57730  -0.56806  -0.55875
 Alpha  occ. eigenvalues --   -0.55723  -0.55283  -0.54814  -0.54630  -0.53974
 Alpha  occ. eigenvalues --   -0.53817  -0.53725  -0.53651  -0.53004  -0.51825
 Alpha  occ. eigenvalues --   -0.51556  -0.51203  -0.50673  -0.50256  -0.50109
 Alpha  occ. eigenvalues --   -0.49870  -0.49455  -0.49238  -0.48969  -0.48769
 Alpha  occ. eigenvalues --   -0.48437  -0.48392  -0.48293  -0.46922  -0.46812
 Alpha  occ. eigenvalues --   -0.46684  -0.46591  -0.46203  -0.45617  -0.45202
 Alpha  occ. eigenvalues --   -0.44986  -0.44591  -0.44329  -0.44213  -0.43951
 Alpha  occ. eigenvalues --   -0.43399  -0.43281  -0.43208  -0.42933  -0.42738
 Alpha  occ. eigenvalues --   -0.42449  -0.42175  -0.41770  -0.41505  -0.41419
 Alpha  occ. eigenvalues --   -0.41124  -0.40675  -0.40531  -0.39850  -0.39580
 Alpha  occ. eigenvalues --   -0.39469  -0.39230  -0.39144  -0.39011  -0.38858
 Alpha  occ. eigenvalues --   -0.38604  -0.38160  -0.38071  -0.37751  -0.37080
 Alpha  occ. eigenvalues --   -0.36940  -0.35915  -0.35570  -0.34462  -0.34019
 Alpha  occ. eigenvalues --   -0.32661  -0.32170  -0.31782  -0.31729  -0.31152
 Alpha  occ. eigenvalues --   -0.29899  -0.28751  -0.24673  -0.20756
 Alpha virt. eigenvalues --   -0.05080  -0.00585   0.03497   0.06701   0.07165
 Alpha virt. eigenvalues --    0.08261   0.09053   0.10143   0.11369   0.12285
 Alpha virt. eigenvalues --    0.12484   0.12689   0.13064   0.13549   0.13567

 Mulliken charges:
               1
     1  O   -0.531524
     2  O   -0.515407
     3  O   -0.555148
     4  O   -0.543891
     5  C    0.176379
     6  C    0.256253
     7  C    0.020977
     8  C   -0.230251
     9  C   -0.171300
    10  C    0.135933
    11  C   -0.320279
    12  C   -0.102044
    13  C   -0.307880
    14  C   -0.321385
    15  C   -0.072757
    16  C    0.079747
    17  C   -0.373668
    18  C   -0.111759
    19  C   -0.055628
    20  C    0.021883
    21  C    0.266068
    22  C   -0.219938
    23  C    0.199822
    24  C   -0.195859
    25  C   -0.066760
    26  C   -0.300632
    27  C   -0.309377
    28  C   -0.283195
    29  C   -0.131178
    30  C    0.123032
    31  C    0.026746
    32  C   -0.291905
    33  C   -0.336874
    34  C   -0.081191
    35  C    0.093602
    36  C   -0.355635
    37  C   -0.102300
    38  C   -0.093249
    39  C   -0.121571
    40  C   -0.109209
    41  C   -0.071792
    42  C   -0.129593
    43  C    0.133334
    44  C   -0.367864
    45  H    0.078321
    46  H    0.122426
    47  H    0.106714
    48  H    0.099791
    49  H    0.100785
    50  H    0.101348
    51  H    0.113672
    52  H    0.128533
    53  H    0.108012
    54  H    0.103047
    55  H    0.105140
    56  H    0.093541
    57  H    0.138840
    58  H    0.088862
    59  H    0.096254
    60  H    0.305107
    61  H    0.068443
    62  H    0.101862
    63  H    0.101056
    64  H    0.124324
    65  H    0.091296
    66  H    0.098093
    67  H    0.085650
    68  H    0.090154
    69  H    0.066003
    70  H    0.105487
    71  H    0.091934
    72  H    0.093567
    73  H    0.111803
    74  H    0.109732
    75  H    0.123225
    76  H    0.111666
    77  H    0.055446
    78  H    0.126495
    79  H    0.068353
    80  H    0.111243
    81  H    0.075804
    82  H    0.301369
    83  H    0.317337
    84  H    0.106567
    85  H    0.130147
    86  H    0.146167
    87  H    0.115905
    88  H    0.073216
    89  H    0.123748
    90  H    0.114634
    91  H    0.125395
    92  H    0.079087
    93  H    0.066419
    94  H    0.068361
    95  H    0.081805
    96  H    0.073922
    97  H    0.073793
    98  H    0.112807
    99  H    0.102115
   100  H    0.132442
 Sum of Mulliken charges =  -0.00000

 Dipole moment (field-independent basis, Debye):
    X=              0.9492    Y=              0.7456    Z=              2.6332  Tot=              2.8966
 Quadrupole moment (field-independent basis, Debye-Ang):
   XX=           -301.5426   YY=           -259.5470   ZZ=           -278.4223
   XY=             11.8562   XZ=             40.1078   YZ=             -2.0308

 Normal termination of Gaussian 16 at Mon Jul 29 09:42:35 2019.
