 Gaussian 16, Revision A.03,
 Gaussian 16:  ES64L-G16RevA.03 25-Dec-2016

 -------------------------------------
 # td=(NStates=1) CAM-B3LYP/6-31G(d,p)
 -------------------------------------

 --
 TD
 --
 Symbolic Z-matrix:
 Charge =  0 Multiplicity = 1

                         Standard orientation:
 ---------------------------------------------------------------------
 Center     Atomic      Atomic             Coordinates (Angstroms)
 Number     Number       Type             X           Y           Z
 ---------------------------------------------------------------------
      1          8           0      -11.660707    0.247321   -1.432227
      2          8           0      -13.043444   -2.472379    1.399347
      3          8           0       10.542586   -0.931529   -2.215285
      4          8           0       14.507996   -1.015263   -0.185228
      5          6           0      -10.998001   -0.069662   -0.208988
      6          6           0      -11.611329   -1.171336   -1.179849
      7          6           0      -11.792286    0.257678    1.003966
      8          6           0      -12.899865   -1.822000   -0.870492
      9          6           0      -13.222271   -0.068418    0.958656
     10          6           0      -13.538000   -1.508480    0.444934
     11          6           0      -10.805430   -1.890625   -2.285110
     12          6           0       -9.592116    0.181586   -0.445519
     13          6           0      -11.092687   -0.260476    2.285692
     14          6           0      -11.640478    1.845233    1.000758
     15          6           0       -8.577922   -0.828491   -0.107134
     16          6           0       -7.178621   -0.556558   -0.007000
     17          6           0       -6.248209   -1.704896    0.245824
     18          6           0       -6.586758    0.736149   -0.094680
     19          6           0       -5.299565    1.047303   -0.113237
     20          6           0       11.862450   -0.060849    1.353069
     21          6           0       11.577238   -0.597173   -1.258833
     22          6           0       12.620830   -1.270955    1.473529
     23          6           0       13.342338   -1.887974    0.230679
     24          6           0       12.399745   -1.909589   -0.878980
     25          6           0       11.093393   -0.075507    0.090217
     26          6           0       10.919820    0.170156    2.488012
     27          6           0       12.958655    1.203520    1.366323
     28          6           0       12.426477    0.485262   -2.085522
     29          6           0       -4.718257    2.347207   -0.260979
     30          6           0        9.829868    0.479921    0.076607
     31          6           0       -3.355513    2.562605   -0.272926
     32          6           0        8.650837    0.956072    0.059514
     33          6           0       -2.938024    3.977068   -0.785282
     34          6           0       -2.431833    1.586595   -0.228971
     35          6           0        7.407475    0.133280    0.198955
     36          6           0        7.639634   -1.372702    0.469994
     37          6           0        6.187342    0.784815   -0.083581
     38          6           0       -1.051056    1.817178   -0.356149
     39          6           0        4.971851    0.218548    0.091582
     40          6           0       -0.003841    0.917251   -0.170125
     41          6           0        3.824500    0.890773   -0.138179
     42          6           0        1.397711    1.263602   -0.233528
     43          6           0        2.446944    0.352800   -0.110812
     44          6           0        2.331295   -1.219849    0.038360
     45          1           0      -12.892190   -2.878056   -0.987178
     46          1           0      -13.721911   -1.592358   -1.608813
     47          1           0      -13.774186    0.072011    1.968740
     48          1           0      -13.907848    0.472790    0.397413
     49          1           0      -14.568487   -1.698459    0.448017
     50          1           0      -10.166146   -2.800177   -1.879065
     51          1           0      -11.484564   -2.402364   -2.888538
     52          1           0      -10.183017   -1.001616   -2.744939
     53          1           0       -9.445414    1.194823   -0.513347
     54          1           0      -10.064953    0.238419    2.191198
     55          1           0      -11.705358   -0.118412    3.299019
     56          1           0      -10.775765   -1.389538    1.968549
     57          1           0      -12.088327    2.268947    0.142246
     58          1           0      -11.886294    2.185867    2.161825
     59          1           0      -10.687198    1.937098    1.110898
     60          1           0      -12.056197   -2.472159    1.239235
     61          1           0       -8.765811   -1.901058    0.242632
     62          1           0       -5.359030   -1.849881   -0.393011
     63          1           0       -5.699810   -1.613360    1.274130
     64          1           0       -6.904677   -2.633751    0.314611
     65          1           0       -7.256879    1.587049   -0.230413
     66          1           0       -4.388533    0.336586   -0.010293
     67          1           0       13.321394   -1.244758    2.350842
     68          1           0       11.798417   -2.223404    1.685126
     69          1           0       13.567909   -2.895016    0.361617
     70          1           0       12.888672   -2.377279   -1.804261
     71          1           0       11.562355   -2.522721   -0.609058
     72          1           0       11.486741   -0.102394    3.418369
     73          1           0       10.446729    1.236666    2.602715
     74          1           0       10.274854   -0.600574    2.423267
     75          1           0       13.825659    1.194147    0.687696
     76          1           0       12.580272    2.206704    1.136082
     77          1           0       13.357529    1.317538    2.295322
     78          1           0       12.680321    0.058292   -3.065724
     79          1           0       11.766502    1.336429   -2.345430
     80          1           0       13.493207    0.792695   -1.655329
     81          1           0       -5.484879    3.116755   -0.240452
     82          1           0        9.792458   -0.234250   -2.162534
     83          1           0       14.994581   -1.053746    0.688622
     84          1           0        8.519466    2.013073    0.028399
     85          1           0       -2.071907    4.478913   -0.077063
     86          1           0       -2.530249    4.074713   -1.833357
     87          1           0       -3.804500    4.665392   -0.670697
     88          1           0       -2.689677    0.568209   -0.171050
     89          1           0        6.778320   -2.146789    0.052927
     90          1           0        8.403778   -1.783550   -0.081232
     91          1           0        7.663078   -1.524484    1.445490
     92          1           0        6.275833    1.935240   -0.238036
     93          1           0       -0.814437    2.989382   -0.521112
     94          1           0        5.045817   -0.870202    0.155220
     95          1           0       -0.348036   -0.089704    0.199392
     96          1           0        3.920477    2.023188   -0.158841
     97          1           0        1.599728    2.311289   -0.478535
     98          1           0        1.235315   -1.745092   -0.464193
     99          1           0        3.336553   -1.661813   -0.550079
    100          1           0        2.300805   -1.444808    1.355342
 ---------------------------------------------------------------------

 SCF Done:  E(RCAM-B3LYP) =  -1857.26830838     A.U. after   16 cycles

 Excitation energies and oscillator strengths:

 Excited State   1:      Singlet-A      1.9526 eV  634.96 nm  f=2.7062  <S**2>=0.000
     163 ->166         0.12674
     164 ->165         0.70063
     164 <-165        -0.11431
 This state for optimization and/or second-order correction.
 Total Energy, E(TD-HF/TD-DFT) =  -1857.19655098
 Copying the excited state density for this state as the 1-particle RhoCI density.

 The electronic state is 1-A.
 Alpha  occ. eigenvalues --  -19.22392 -19.21824 -19.21325 -19.19681 -10.32663
 Alpha  occ. eigenvalues --  -10.31925 -10.31853 -10.31751 -10.31401 -10.29363
 Alpha  occ. eigenvalues --  -10.29247 -10.29032 -10.28981 -10.28625 -10.28221
 Alpha  occ. eigenvalues --  -10.28172 -10.27818 -10.27811 -10.27692 -10.27648
 Alpha  occ. eigenvalues --  -10.27643 -10.27528 -10.27455 -10.27429 -10.27294
 Alpha  occ. eigenvalues --  -10.27114 -10.27102 -10.26993 -10.26972 -10.26887
 Alpha  occ. eigenvalues --  -10.26850 -10.26843 -10.26418 -10.26152 -10.25974
 Alpha  occ. eigenvalues --  -10.25822 -10.25702 -10.25399 -10.25088 -10.25045
 Alpha  occ. eigenvalues --  -10.24529 -10.24346 -10.24335 -10.24161  -1.14775
 Alpha  occ. eigenvalues --   -1.07952  -1.07545  -1.07498  -0.94570  -0.93136
 Alpha  occ. eigenvalues --   -0.91994  -0.91778  -0.90889  -0.89757  -0.87716
 Alpha  occ. eigenvalues --   -0.87124  -0.86644  -0.85812  -0.84197  -0.82963
 Alpha  occ. eigenvalues --   -0.81978  -0.80437  -0.80271  -0.78213  -0.77155
 Alpha  occ. eigenvalues --   -0.76874  -0.76606  -0.76220  -0.75818  -0.75550
 Alpha  occ. eigenvalues --   -0.74695  -0.74406  -0.72883  -0.70849  -0.70219
 Alpha  occ. eigenvalues --   -0.68386  -0.66875  -0.65941  -0.65374  -0.64174
 Alpha  occ. eigenvalues --   -0.63269  -0.61171  -0.60537  -0.60294  -0.59768
 Alpha  occ. eigenvalues --   -0.58644  -0.58271  -0.58119  -0.57301  -0.56812
 Alpha  occ. eigenvalues --   -0.56110  -0.55718  -0.55287  -0.54880  -0.54282
 Alpha  occ. eigenvalues --   -0.53815  -0.53327  -0.52951  -0.52316  -0.51690
 Alpha  occ. eigenvalues --   -0.51545  -0.51202  -0.50842  -0.49864  -0.49226
 Alpha  occ. eigenvalues --   -0.48900  -0.48628  -0.48522  -0.47934  -0.47587
 Alpha  occ. eigenvalues --   -0.47545  -0.47232  -0.47110  -0.46617  -0.46284
 Alpha  occ. eigenvalues --   -0.46113  -0.45983  -0.45826  -0.45485  -0.45128
 Alpha  occ. eigenvalues --   -0.44950  -0.44674  -0.44190  -0.44144  -0.43855
 Alpha  occ. eigenvalues --   -0.43781  -0.43367  -0.43003  -0.42672  -0.42454
 Alpha  occ. eigenvalues --   -0.42325  -0.41960  -0.41926  -0.41527  -0.41343
 Alpha  occ. eigenvalues --   -0.41294  -0.40870  -0.40723  -0.40313  -0.40244
 Alpha  occ. eigenvalues --   -0.40069  -0.39945  -0.39891  -0.39133  -0.39086
 Alpha  occ. eigenvalues --   -0.38672  -0.38375  -0.38019  -0.37496  -0.37269
 Alpha  occ. eigenvalues --   -0.36754  -0.35983  -0.35654  -0.34674  -0.33342
 Alpha  occ. eigenvalues --   -0.33130  -0.32322  -0.32131  -0.31713  -0.29231
 Alpha  occ. eigenvalues --   -0.28677  -0.28223  -0.24092  -0.19721
 Alpha virt. eigenvalues --   -0.07319  -0.01954   0.02553   0.04719   0.06419
 Alpha virt. eigenvalues --    0.09349   0.09522   0.09977   0.10326   0.11473
 Alpha virt. eigenvalues --    0.11710   0.12260   0.12634   0.13144   0.13533

 Mulliken charges:
               1
     1  O   -0.510008
     2  O   -0.558351
     3  O   -0.582945
     4  O   -0.541587
     5  C    0.200826
     6  C    0.229807
     7  C    0.000922
     8  C   -0.227222
     9  C   -0.163255
    10  C    0.130789
    11  C   -0.324538
    12  C   -0.098369
    13  C   -0.275061
    14  C   -0.294153
    15  C   -0.102173
    16  C    0.100831
    17  C   -0.378236
    18  C   -0.115281
    19  C   -0.037979
    20  C    0.050107
    21  C    0.262593
    22  C   -0.198653
    23  C    0.148519
    24  C   -0.205763
    25  C   -0.018875
    26  C   -0.294237
    27  C   -0.334832
    28  C   -0.293813
    29  C   -0.127676
    30  C    0.129321
    31  C    0.090684
    32  C   -0.320766
    33  C   -0.369078
    34  C   -0.086890
    35  C    0.073509
    36  C   -0.365458
    37  C   -0.100075
    38  C   -0.084352
    39  C   -0.064345
    40  C   -0.101594
    41  C   -0.122581
    42  C   -0.125053
    43  C    0.104798
    44  C   -0.316644
    45  H    0.119772
    46  H    0.106877
    47  H    0.091852
    48  H    0.106785
    49  H    0.093471
    50  H    0.086461
    51  H    0.117571
    52  H    0.129646
    53  H    0.109429
    54  H    0.103693
    55  H    0.118714
    56  H    0.058057
    57  H    0.133708
    58  H    0.068533
    59  H    0.103530
    60  H    0.295922
    61  H    0.090342
    62  H    0.129594
    63  H    0.113171
    64  H    0.094103
    65  H    0.078611
    66  H    0.067407
    67  H    0.084464
    68  H    0.054927
    69  H    0.111217
    70  H    0.107544
    71  H    0.114530
    72  H    0.086277
    73  H    0.112929
    74  H    0.115306
    75  H    0.123197
    76  H    0.100148
    77  H    0.103092
    78  H    0.111570
    79  H    0.084228
    80  H    0.107027
    81  H    0.085228
    82  H    0.315491
    83  H    0.305626
    84  H    0.113446
    85  H    0.092936
    86  H    0.134120
    87  H    0.108175
    88  H    0.086627
    89  H    0.079654
    90  H    0.141046
    91  H    0.144628
    92  H    0.073744
    93  H    0.069046
    94  H    0.084489
    95  H    0.084928
    96  H    0.081815
    97  H    0.092432
    98  H    0.088642
    99  H    0.109449
   100  H    0.091908
 Sum of Mulliken charges =  -0.00000

 Dipole moment (field-independent basis, Debye):
    X=              2.7802    Y=              0.1075    Z=              2.6471  Tot=              3.8403
 Quadrupole moment (field-independent basis, Debye-Ang):
   XX=           -294.4893   YY=           -259.7876   ZZ=           -281.7001
   XY=             -9.6073   XZ=             41.6811   YZ=             -0.6829

 Normal termination of Gaussian 16 at Fri Aug  2 13:02:34 2019.
