 Gaussian 16, Revision A.03,
 Gaussian 16:  ES64L-G16RevA.03 25-Dec-2016

 -------------------------------------
 # td=(NStates=1) CAM-B3LYP/6-31G(d,p)
 -------------------------------------

 --
 TD
 --
 Symbolic Z-matrix:
 Charge =  0 Multiplicity = 1

                         Standard orientation:
 ---------------------------------------------------------------------
 Center     Atomic      Atomic             Coordinates (Angstroms)
 Number     Number       Type             X           Y           Z
 ---------------------------------------------------------------------
      1          8           0      -11.838232    0.171474   -1.696981
      2          8           0      -12.960321   -2.242497    1.731419
      3          8           0       10.733462   -1.032456   -2.199036
      4          8           0       14.597603   -0.889150   -0.189876
      5          6           0      -11.088102   -0.154046   -0.514988
      6          6           0      -11.681891   -1.230306   -1.233415
      7          6           0      -11.827035    0.523348    0.824855
      8          6           0      -12.981307   -1.897825   -0.826513
      9          6           0      -13.238419    0.066394    0.846421
     10          6           0      -13.504631   -1.478898    0.559571
     11          6           0      -10.907155   -2.078304   -2.134554
     12          6           0       -9.615102    0.072617   -0.478725
     13          6           0      -11.042192    0.193784    2.101449
     14          6           0      -11.653752    2.063960    0.548337
     15          6           0       -8.717325   -0.721184    0.184840
     16          6           0       -7.244918   -0.677161    0.166373
     17          6           0       -6.512107   -1.866733    0.579022
     18          6           0       -6.606974    0.572738   -0.067415
     19          6           0       -5.293157    0.794516   -0.175036
     20          6           0       11.922165   -0.048133    1.313807
     21          6           0       11.699733   -0.585237   -1.327424
     22          6           0       12.728657   -1.364393    1.378538
     23          6           0       13.509547   -1.753116    0.200582
     24          6           0       12.662099   -1.897487   -1.085164
     25          6           0       11.056397   -0.054656   -0.004603
     26          6           0       10.928136   -0.083949    2.511155
     27          6           0       12.790631    1.228699    1.476605
     28          6           0       12.486517    0.650240   -1.964633
     29          6           0       -4.712452    2.012195   -0.359141
     30          6           0        9.889595    0.474954   -0.061320
     31          6           0       -3.393895    2.393100   -0.354623
     32          6           0        8.663672    1.004139    0.065858
     33          6           0       -3.018337    3.915694   -0.557994
     34          6           0       -2.288634    1.581953   -0.154283
     35          6           0        7.478549    0.233866    0.142259
     36          6           0        7.662712   -1.234455    0.372315
     37          6           0        6.149551    0.783133   -0.018305
     38          6           0       -1.010402    1.866413   -0.250869
     39          6           0        4.964427    0.114475    0.055110
     40          6           0       -0.048678    0.901129   -0.170203
     41          6           0        3.774165    0.864879   -0.028067
     42          6           0        1.325318    1.213510   -0.173593
     43          6           0        2.478703    0.366490   -0.060018
     44          6           0        2.268412   -1.113527    0.132787
     45          1           0      -12.988665   -2.980651   -0.686386
     46          1           0      -13.832108   -1.566185   -1.553778
     47          1           0      -13.638905    0.153486    1.718750
     48          1           0      -13.801890    0.629514    0.234986
     49          1           0      -14.382938   -1.648916    0.722204
     50          1           0      -10.962429   -2.988209   -1.665340
     51          1           0      -11.382567   -2.330580   -2.984908
     52          1           0       -9.845991   -1.678015   -2.415219
     53          1           0       -9.180056    0.933217   -0.774162
     54          1           0       -9.995761    0.460916    2.133377
     55          1           0      -11.712680    0.305029    2.906139
     56          1           0      -11.155824   -0.921720    2.193919
     57          1           0      -12.354795    2.113667   -0.456012
     58          1           0      -11.995329    2.561091    1.474475
     59          1           0      -10.659964    2.187976    0.517191
     60          1           0      -12.098069   -2.673036    1.168798
     61          1           0       -9.113116   -1.760225    0.672447
     62          1           0       -5.853318   -2.476805   -0.287223
     63          1           0       -5.643795   -1.628991    1.421077
     64          1           0       -7.211206   -2.747532    1.153978
     65          1           0       -7.409151    1.412352   -0.350320
     66          1           0       -4.711035   -0.064090   -0.036187
     67          1           0       13.354518   -1.379764    2.213948
     68          1           0       11.927827   -2.115814    1.651699
     69          1           0       13.853167   -2.813089    0.386868
     70          1           0       13.259474   -2.055361   -1.921275
     71          1           0       11.968859   -2.603456   -0.938396
     72          1           0       11.572125   -0.308047    3.446792
     73          1           0       10.512265    0.948042    2.535113
     74          1           0       10.114296   -0.889178    2.400868
     75          1           0       13.543484    1.072438    0.744631
     76          1           0       12.327876    2.289270    1.284964
     77          1           0       13.160048    1.334217    2.431729
     78          1           0       12.851808    0.230071   -3.008424
     79          1           0       11.935826    1.658298   -2.191228
     80          1           0       13.386281    1.041832   -1.352554
     81          1           0       -5.283426    2.959625   -0.446040
     82          1           0       10.443892    0.062867   -2.366260
     83          1           0       15.236788   -0.986472    0.520089
     84          1           0        8.630835    2.093213    0.058595
     85          1           0       -2.509345    4.383501    0.205721
     86          1           0       -2.497052    4.133580   -1.455722
     87          1           0       -3.952893    4.507496   -0.607476
     88          1           0       -2.576883    0.588288    0.163259
     89          1           0        6.816197   -1.931441    0.174896
     90          1           0        8.593969   -1.597440   -0.304509
     91          1           0        8.006655   -1.652290    1.376263
     92          1           0        6.197495    1.918981   -0.051334
     93          1           0       -0.642406    2.898552   -0.305096
     94          1           0        4.949820   -0.849861    0.088590
     95          1           0       -0.346208   -0.178805    0.030926
     96          1           0        4.001198    2.035536    0.075316
     97          1           0        1.636576    2.205772   -0.545558
     98          1           0        1.403565   -1.384917    0.543107
     99          1           0        2.494119   -1.476797   -0.821231
    100          1           0        2.983606   -1.406970    0.955717
 ---------------------------------------------------------------------

 SCF Done:  E(RCAM-B3LYP) =  -1857.25956218     A.U. after   16 cycles

 Excitation energies and oscillator strengths:

 Excited State   1:      Singlet-A      1.7871 eV  693.79 nm  f=3.4356  <S**2>=0.000
     163 ->166         0.12948
     164 ->165         0.70325
     164 <-165        -0.12754
 This state for optimization and/or second-order correction.
 Total Energy, E(TD-HF/TD-DFT) =  -1857.19388893
 Copying the excited state density for this state as the 1-particle RhoCI density.

 The electronic state is 1-A.
 Alpha  occ. eigenvalues --  -19.22873 -19.22823 -19.22513 -19.21800 -10.32860
 Alpha  occ. eigenvalues --  -10.31807 -10.31520 -10.31424 -10.29683 -10.29107
 Alpha  occ. eigenvalues --  -10.28622 -10.28370 -10.27960 -10.27902 -10.27727
 Alpha  occ. eigenvalues --  -10.27674 -10.27347 -10.27273 -10.27116 -10.26827
 Alpha  occ. eigenvalues --  -10.26822 -10.26819 -10.26811 -10.26693 -10.26561
 Alpha  occ. eigenvalues --  -10.26547 -10.26499 -10.26258 -10.26214 -10.25844
 Alpha  occ. eigenvalues --  -10.25830 -10.25606 -10.25566 -10.25508 -10.25398
 Alpha  occ. eigenvalues --  -10.25001 -10.24578 -10.24522 -10.24471 -10.24360
 Alpha  occ. eigenvalues --  -10.24059 -10.23809 -10.22461 -10.22055  -1.13873
 Alpha  occ. eigenvalues --   -1.10752  -1.10223  -1.06104  -0.92991  -0.92794
 Alpha  occ. eigenvalues --   -0.92029  -0.91213  -0.90204  -0.89682  -0.88194
 Alpha  occ. eigenvalues --   -0.87758  -0.86514  -0.85327  -0.84816  -0.83430
 Alpha  occ. eigenvalues --   -0.82746  -0.81208  -0.79675  -0.79100  -0.77386
 Alpha  occ. eigenvalues --   -0.77144  -0.76469  -0.76254  -0.75984  -0.75304
 Alpha  occ. eigenvalues --   -0.75245  -0.73594  -0.72670  -0.70876  -0.69753
 Alpha  occ. eigenvalues --   -0.68529  -0.67470  -0.65945  -0.64236  -0.63902
 Alpha  occ. eigenvalues --   -0.63622  -0.62843  -0.61653  -0.60989  -0.59045
 Alpha  occ. eigenvalues --   -0.58570  -0.58285  -0.58062  -0.56333  -0.55878
 Alpha  occ. eigenvalues --   -0.55681  -0.55383  -0.55290  -0.55068  -0.54469
 Alpha  occ. eigenvalues --   -0.53608  -0.53285  -0.52665  -0.52495  -0.52104
 Alpha  occ. eigenvalues --   -0.52028  -0.51580  -0.50839  -0.50735  -0.50205
 Alpha  occ. eigenvalues --   -0.49904  -0.49515  -0.48993  -0.48873  -0.48506
 Alpha  occ. eigenvalues --   -0.47963  -0.47894  -0.47404  -0.47116  -0.46872
 Alpha  occ. eigenvalues --   -0.46296  -0.46195  -0.45650  -0.45462  -0.44949
 Alpha  occ. eigenvalues --   -0.44653  -0.44467  -0.44172  -0.43893  -0.43824
 Alpha  occ. eigenvalues --   -0.43716  -0.43281  -0.42835  -0.42774  -0.42165
 Alpha  occ. eigenvalues --   -0.42130  -0.41973  -0.41833  -0.41759  -0.41531
 Alpha  occ. eigenvalues --   -0.41136  -0.40769  -0.40651  -0.40301  -0.40194
 Alpha  occ. eigenvalues --   -0.39806  -0.39695  -0.39318  -0.39238  -0.38952
 Alpha  occ. eigenvalues --   -0.38626  -0.38443  -0.38335  -0.37753  -0.37282
 Alpha  occ. eigenvalues --   -0.36578  -0.36176  -0.35353  -0.35055  -0.34271
 Alpha  occ. eigenvalues --   -0.33577  -0.32436  -0.32055  -0.31473  -0.30077
 Alpha  occ. eigenvalues --   -0.29600  -0.27849  -0.23535  -0.18399
 Alpha virt. eigenvalues --   -0.07460  -0.01745   0.03167   0.06587   0.07261
 Alpha virt. eigenvalues --    0.07420   0.09251   0.10370   0.11077   0.12243
 Alpha virt. eigenvalues --    0.12408   0.12958   0.13228   0.13578   0.13796

 Mulliken charges:
               1
     1  O   -0.520994
     2  O   -0.553725
     3  O   -0.533609
     4  O   -0.534777
     5  C    0.237510
     6  C    0.241324
     7  C    0.006870
     8  C   -0.262297
     9  C   -0.172013
    10  C    0.167300
    11  C   -0.322506
    12  C   -0.121604
    13  C   -0.319489
    14  C   -0.287039
    15  C   -0.088890
    16  C    0.110452
    17  C   -0.372780
    18  C   -0.092685
    19  C   -0.066541
    20  C    0.007815
    21  C    0.214173
    22  C   -0.182023
    23  C    0.122066
    24  C   -0.168677
    25  C   -0.048151
    26  C   -0.297342
    27  C   -0.310797
    28  C   -0.340052
    29  C   -0.102629
    30  C    0.122494
    31  C    0.067348
    32  C   -0.256525
    33  C   -0.388341
    34  C   -0.107519
    35  C    0.133878
    36  C   -0.395931
    37  C   -0.123064
    38  C   -0.052746
    39  C   -0.033641
    40  C   -0.081205
    41  C   -0.123076
    42  C   -0.138760
    43  C    0.065284
    44  C   -0.354131
    45  H    0.108086
    46  H    0.130740
    47  H    0.104214
    48  H    0.100088
    49  H    0.088846
    50  H    0.098547
    51  H    0.127064
    52  H    0.119830
    53  H    0.093353
    54  H    0.114088
    55  H    0.107297
    56  H    0.091079
    57  H    0.110108
    58  H    0.095194
    59  H    0.102917
    60  H    0.292565
    61  H    0.055089
    62  H    0.102677
    63  H    0.103410
    64  H    0.091687
    65  H    0.071846
    66  H    0.086333
    67  H    0.091147
    68  H    0.105595
    69  H    0.077338
    70  H    0.118684
    71  H    0.116427
    72  H    0.080956
    73  H    0.109236
    74  H    0.100383
    75  H    0.123989
    76  H    0.088581
    77  H    0.107509
    78  H    0.101848
    79  H    0.088220
    80  H    0.132326
    81  H    0.077752
    82  H    0.309695
    83  H    0.306464
    84  H    0.108801
    85  H    0.130801
    86  H    0.127938
    87  H    0.094760
    88  H    0.072359
    89  H    0.107160
    90  H    0.119459
    91  H    0.114156
    92  H    0.074233
    93  H    0.092629
    94  H    0.076361
    95  H    0.084165
    96  H    0.079884
    97  H    0.078447
    98  H    0.118254
    99  H    0.140221
   100  H    0.106208
 Sum of Mulliken charges =  -0.00000

 Dipole moment (field-independent basis, Debye):
    X=              5.1495    Y=             -1.3542    Z=              1.7079  Tot=              5.5918
 Quadrupole moment (field-independent basis, Debye-Ang):
   XX=           -246.3705   YY=           -255.2606   ZZ=           -282.6791
   XY=             14.2960   XZ=             37.3582   YZ=             -1.0192

 Normal termination of Gaussian 16 at Mon Jul 29 03:18:10 2019.
