 Gaussian 16, Revision A.03,
 Gaussian 16:  ES64L-G16RevA.03 25-Dec-2016

 -------------------------------------
 # td=(NStates=1) CAM-B3LYP/6-31G(d,p)
 -------------------------------------

 --
 TD
 --
 Symbolic Z-matrix:
 Charge =  0 Multiplicity = 1

                         Standard orientation:
 ---------------------------------------------------------------------
 Center     Atomic      Atomic             Coordinates (Angstroms)
 Number     Number       Type             X           Y           Z
 ---------------------------------------------------------------------
      1          8           0      -11.674735    0.290221   -1.479143
      2          8           0      -13.170633   -2.428803    1.423113
      3          8           0       10.606777   -0.991689   -2.064681
      4          8           0       14.403951   -1.090241   -0.118838
      5          6           0      -11.065708   -0.136406   -0.302308
      6          6           0      -11.691028   -1.079403   -1.173762
      7          6           0      -11.756571    0.299215    1.081022
      8          6           0      -13.196252   -1.704078   -0.908407
      9          6           0      -13.139093   -0.044462    0.954505
     10          6           0      -13.592986   -1.430703    0.414489
     11          6           0      -10.872624   -1.975030   -2.149045
     12          6           0       -9.569893    0.099939   -0.379960
     13          6           0      -11.100642   -0.307614    2.290104
     14          6           0      -11.502097    1.789465    1.098251
     15          6           0       -8.545618   -0.833036   -0.037667
     16          6           0       -7.213379   -0.669687   -0.005181
     17          6           0       -6.239401   -1.839924    0.154214
     18          6           0       -6.611488    0.681830   -0.145633
     19          6           0       -5.252076    0.942255   -0.233540
     20          6           0       11.928477   -0.007192    1.452720
     21          6           0       11.610691   -0.612405   -1.195576
     22          6           0       12.635933   -1.307666    1.491043
     23          6           0       13.324172   -1.936963    0.301013
     24          6           0       12.353349   -1.899396   -0.971611
     25          6           0       11.101891   -0.057118    0.059561
     26          6           0       10.942058    0.170539    2.597562
     27          6           0       12.887699    1.205132    1.412933
     28          6           0       12.453524    0.535045   -2.003060
     29          6           0       -4.732163    2.273872   -0.379730
     30          6           0        9.843937    0.466270    0.066062
     31          6           0       -3.391347    2.629415   -0.422905
     32          6           0        8.639350    0.883921   -0.098985
     33          6           0       -2.912763    4.066765   -0.725014
     34          6           0       -2.343941    1.726747   -0.169392
     35          6           0        7.419380    0.118113   -0.092568
     36          6           0        7.642953   -1.326512    0.054561
     37          6           0        6.199432    0.720969   -0.196610
     38          6           0       -0.903685    1.948877   -0.231888
     39          6           0        4.947407    0.068777   -0.004027
     40          6           0        0.057888    0.898210   -0.154888
     41          6           0        3.781439    0.933673   -0.210578
     42          6           0        1.438923    1.198737   -0.285600
     43          6           0        2.545128    0.412423   -0.065851
     44          6           0        2.301128   -1.077008    0.248212
     45          1           0      -13.263002   -2.669305   -1.168028
     46          1           0      -13.709716   -1.015748   -1.659246
     47          1           0      -13.552528    0.096134    1.918767
     48          1           0      -13.659117    0.779388    0.351341
     49          1           0      -14.784186   -1.540047    0.433880
     50          1           0      -10.665219   -2.927644   -1.607477
     51          1           0      -11.451484   -2.306646   -2.954096
     52          1           0      -10.010976   -1.540739   -2.330674
     53          1           0       -9.599161    0.982472   -0.948039
     54          1           0       -9.934712   -0.207624    2.283353
     55          1           0      -11.586116    0.223852    3.191553
     56          1           0      -11.164966   -1.438733    2.322552
     57          1           0      -11.905257    2.321614    0.186591
     58          1           0      -11.845045    2.317163    2.122608
     59          1           0      -10.322213    2.039739    1.259836
     60          1           0      -12.147792   -2.635600    1.409733
     61          1           0       -8.941088   -1.956316    0.135068
     62          1           0       -5.805099   -2.483251   -0.633674
     63          1           0       -5.323891   -1.584563    0.723686
     64          1           0       -6.849066   -2.446545    0.951092
     65          1           0       -7.119462    1.535805   -0.173379
     66          1           0       -4.325827    0.252453    0.136604
     67          1           0       13.295612   -1.224905    2.375373
     68          1           0       11.881009   -2.061251    1.749874
     69          1           0       13.557146   -2.914790    0.374872
     70          1           0       12.875705   -2.108658   -1.889112
     71          1           0       11.613385   -2.655801   -0.879755
     72          1           0       11.533698   -0.072641    3.494278
     73          1           0       10.851968    1.362288    2.715657
     74          1           0       10.148499   -0.426548    2.510873
     75          1           0       13.781000    1.033448    0.687655
     76          1           0       12.253984    2.253242    1.379897
     77          1           0       13.498667    1.379631    2.407473
     78          1           0       13.120155    0.012668   -2.757194
     79          1           0       11.775094    1.348865   -2.343817
     80          1           0       13.286952    0.872175   -1.473163
     81          1           0       -5.494684    3.070238   -0.434123
     82          1           0        9.910333   -0.207872   -2.028256
     83          1           0       15.082982   -1.224551    0.575236
     84          1           0        8.543758    1.978288   -0.192883
     85          1           0       -2.325189    4.469036    0.156403
     86          1           0       -2.025827    4.135377   -1.501230
     87          1           0       -3.655306    4.857904   -0.814592
     88          1           0       -2.554621    0.663422    0.280730
     89          1           0        6.694166   -1.791898   -0.130330
     90          1           0        8.422997   -1.673861   -0.434596
     91          1           0        7.895732   -1.414466    1.317593
     92          1           0        6.099955    1.689871   -0.438622
     93          1           0       -0.552045    2.877529   -0.654271
     94          1           0        4.693436   -0.930136    0.110248
     95          1           0       -0.484187   -0.106482    0.221460
     96          1           0        4.052179    1.976649   -0.091666
     97          1           0        1.629077    2.197272   -0.446754
     98          1           0        1.313171   -1.310163    0.196893
     99          1           0        2.787189   -1.968013   -0.275162
    100          1           0        2.605031   -1.071141    1.400539
 ---------------------------------------------------------------------

 SCF Done:  E(RCAM-B3LYP) =  -1857.28739747     A.U. after   17 cycles

 Excitation energies and oscillator strengths:

 Excited State   1:      Singlet-A      1.7485 eV  709.08 nm  f=2.9321  <S**2>=0.000
     163 ->166        -0.12889
     164 ->165         0.70342
     164 <-165        -0.13039
 This state for optimization and/or second-order correction.
 Total Energy, E(TD-HF/TD-DFT) =  -1857.22314079
 Copying the excited state density for this state as the 1-particle RhoCI density.

 The electronic state is 1-A.
 Alpha  occ. eigenvalues --  -19.22642 -19.22417 -19.20973 -19.20971 -10.31840
 Alpha  occ. eigenvalues --  -10.31304 -10.31136 -10.31109 -10.31036 -10.28578
 Alpha  occ. eigenvalues --  -10.28540 -10.28291 -10.28152 -10.28148 -10.27620
 Alpha  occ. eigenvalues --  -10.27530 -10.27467 -10.27399 -10.27290 -10.27187
 Alpha  occ. eigenvalues --  -10.27115 -10.27048 -10.26899 -10.26897 -10.26890
 Alpha  occ. eigenvalues --  -10.26882 -10.26776 -10.26709 -10.26696 -10.26676
 Alpha  occ. eigenvalues --  -10.26621 -10.26419 -10.26269 -10.26053 -10.25928
 Alpha  occ. eigenvalues --  -10.25777 -10.25548 -10.25517 -10.25280 -10.25076
 Alpha  occ. eigenvalues --  -10.24348 -10.24168 -10.23781 -10.23697  -1.18091
 Alpha  occ. eigenvalues --   -1.10409  -1.09807  -1.06136  -0.93284  -0.92677
 Alpha  occ. eigenvalues --   -0.91978  -0.91685  -0.91369  -0.90090  -0.87271
 Alpha  occ. eigenvalues --   -0.86895  -0.85655  -0.85563  -0.84254  -0.82757
 Alpha  occ. eigenvalues --   -0.82030  -0.80577  -0.80340  -0.77949  -0.77219
 Alpha  occ. eigenvalues --   -0.76962  -0.76571  -0.76198  -0.76006  -0.75230
 Alpha  occ. eigenvalues --   -0.74970  -0.74534  -0.73100  -0.70733  -0.70560
 Alpha  occ. eigenvalues --   -0.68768  -0.66409  -0.65590  -0.64364  -0.64208
 Alpha  occ. eigenvalues --   -0.63495  -0.62876  -0.61697  -0.60615  -0.60420
 Alpha  occ. eigenvalues --   -0.58615  -0.58273  -0.58139  -0.57761  -0.57400
 Alpha  occ. eigenvalues --   -0.56132  -0.55568  -0.55437  -0.55140  -0.54398
 Alpha  occ. eigenvalues --   -0.53952  -0.53386  -0.53029  -0.52602  -0.51581
 Alpha  occ. eigenvalues --   -0.51343  -0.51028  -0.50871  -0.50560  -0.50119
 Alpha  occ. eigenvalues --   -0.49508  -0.49434  -0.49085  -0.48394  -0.48245
 Alpha  occ. eigenvalues --   -0.47993  -0.47643  -0.47365  -0.47029  -0.46884
 Alpha  occ. eigenvalues --   -0.46057  -0.46025  -0.45973  -0.45766  -0.45033
 Alpha  occ. eigenvalues --   -0.44880  -0.44831  -0.44440  -0.43917  -0.43706
 Alpha  occ. eigenvalues --   -0.43343  -0.43293  -0.43205  -0.42800  -0.42356
 Alpha  occ. eigenvalues --   -0.42239  -0.41946  -0.41590  -0.41541  -0.41024
 Alpha  occ. eigenvalues --   -0.40920  -0.40744  -0.40431  -0.40350  -0.39982
 Alpha  occ. eigenvalues --   -0.39729  -0.39463  -0.39296  -0.39123  -0.39084
 Alpha  occ. eigenvalues --   -0.38672  -0.37847  -0.37748  -0.37472  -0.37072
 Alpha  occ. eigenvalues --   -0.36928  -0.35931  -0.35003  -0.34250  -0.33668
 Alpha  occ. eigenvalues --   -0.33522  -0.32461  -0.31843  -0.31560  -0.30755
 Alpha  occ. eigenvalues --   -0.28800  -0.27812  -0.23299  -0.18593
 Alpha virt. eigenvalues --   -0.07487  -0.02358   0.02730   0.05475   0.06933
 Alpha virt. eigenvalues --    0.09109   0.09573   0.10250   0.11366   0.11639
 Alpha virt. eigenvalues --    0.12740   0.13301   0.13559   0.13607   0.13863

 Mulliken charges:
               1
     1  O   -0.487123
     2  O   -0.572732
     3  O   -0.567197
     4  O   -0.535948
     5  C    0.175554
     6  C    0.183496
     7  C    0.050535
     8  C   -0.176052
     9  C   -0.174365
    10  C    0.153826
    11  C   -0.319164
    12  C   -0.098767
    13  C   -0.286438
    14  C   -0.311045
    15  C   -0.116748
    16  C    0.093699
    17  C   -0.368757
    18  C   -0.093476
    19  C   -0.049054
    20  C    0.039189
    21  C    0.262441
    22  C   -0.186719
    23  C    0.135811
    24  C   -0.204393
    25  C   -0.034018
    26  C   -0.286932
    27  C   -0.304622
    28  C   -0.300162
    29  C   -0.152458
    30  C    0.104210
    31  C    0.132093
    32  C   -0.309763
    33  C   -0.386241
    34  C   -0.136230
    35  C    0.123166
    36  C   -0.333686
    37  C   -0.103075
    38  C   -0.090216
    39  C   -0.087503
    40  C   -0.082475
    41  C   -0.141860
    42  C   -0.132801
    43  C    0.125088
    44  C   -0.365628
    45  H    0.109930
    46  H    0.125449
    47  H    0.104373
    48  H    0.090693
    49  H    0.087299
    50  H    0.089773
    51  H    0.116225
    52  H    0.125322
    53  H    0.121600
    54  H    0.101403
    55  H    0.103781
    56  H    0.069073
    57  H    0.122023
    58  H    0.079671
    59  H    0.090101
    60  H    0.300822
    61  H    0.072342
    62  H    0.130195
    63  H    0.117047
    64  H    0.094087
    65  H    0.082510
    66  H    0.072498
    67  H    0.079278
    68  H    0.094078
    69  H    0.098586
    70  H    0.117979
    71  H    0.113455
    72  H    0.096167
    73  H    0.094795
    74  H    0.118439
    75  H    0.128639
    76  H    0.087128
    77  H    0.073480
    78  H    0.095257
    79  H    0.091180
    80  H    0.120422
    81  H    0.084575
    82  H    0.306192
    83  H    0.303738
    84  H    0.105366
    85  H    0.119772
    86  H    0.115691
    87  H    0.113792
    88  H    0.071277
    89  H    0.108162
    90  H    0.138098
    91  H    0.077391
    92  H    0.076963
    93  H    0.079798
    94  H    0.095309
    95  H    0.084942
    96  H    0.094117
    97  H    0.081923
    98  H    0.117773
    99  H    0.117145
   100  H    0.109415
 Sum of Mulliken charges =  -0.00000

 Dipole moment (field-independent basis, Debye):
    X=              4.3906    Y=             -0.5541    Z=              2.4159  Tot=              5.0420
 Quadrupole moment (field-independent basis, Debye-Ang):
   XX=           -275.2984   YY=           -256.1959   ZZ=           -282.1924
   XY=             -9.6341   XZ=             38.8520   YZ=             -0.5056

 Normal termination of Gaussian 16 at Fri Aug  2 01:24:39 2019.
