 Gaussian 16, Revision A.03,
 Gaussian 16:  ES64L-G16RevA.03 25-Dec-2016

 -------------------------------------
 # td=(NStates=1) CAM-B3LYP/6-31G(d,p)
 -------------------------------------

 --
 TD
 --
 Symbolic Z-matrix:
 Charge =  0 Multiplicity = 1

                         Standard orientation:
 ---------------------------------------------------------------------
 Center     Atomic      Atomic             Coordinates (Angstroms)
 Number     Number       Type             X           Y           Z
 ---------------------------------------------------------------------
      1          8           0       11.680305    0.585936    1.405030
      2          8           0       13.036322   -2.908610   -0.856815
      3          8           0      -10.547186   -0.842781    2.108064
      4          8           0      -14.457983   -1.041541    0.114844
      5          6           0       11.044584   -0.092663    0.255123
      6          6           0       11.599512   -0.874329    1.417371
      7          6           0       11.755053    0.100764   -1.078802
      8          6           0       12.974308   -1.497311    1.197528
      9          6           0       13.218302   -0.349753   -1.069213
     10          6           0       13.451999   -1.660088   -0.206424
     11          6           0       10.668303   -1.432260    2.403949
     12          6           0        9.560933    0.147992    0.284680
     13          6           0       10.968679   -0.729019   -2.150377
     14          6           0       11.643143    1.549707   -1.343827
     15          6           0        8.635399   -0.669270   -0.173015
     16          6           0        7.188156   -0.601821   -0.192551
     17          6           0        6.279473   -1.777676   -0.281155
     18          6           0        6.688595    0.661210    0.062211
     19          6           0        5.279863    0.936371    0.143348
     20          6           0      -11.902600   -0.166103   -1.364234
     21          6           0      -11.691942   -0.502915    1.249007
     22          6           0      -12.464697   -1.537947   -1.443722
     23          6           0      -13.397113   -1.922409   -0.128804
     24          6           0      -12.424037   -1.835331    1.059094
     25          6           0      -11.083567   -0.027317   -0.050811
     26          6           0      -10.893923   -0.087637   -2.492544
     27          6           0      -12.896978    0.979647   -1.391821
     28          6           0      -12.433333    0.499306    2.135808
     29          6           0        4.747930    2.297285    0.176271
     30          6           0       -9.884052    0.408226    0.062916
     31          6           0        3.354754    2.693187    0.217000
     32          6           0       -8.714630    1.040252    0.114002
     33          6           0        2.917135    4.188882    0.419218
     34          6           0        2.370621    1.722073    0.119195
     35          6           0       -7.349760    0.187723    0.013620
     36          6           0       -7.611990   -1.259212   -0.165510
     37          6           0       -6.228427    0.891633    0.040704
     38          6           0        0.968926    2.020096    0.145412
     39          6           0       -4.952292    0.210657    0.018663
     40          6           0       -0.019524    1.048742   -0.049894
     41          6           0       -3.789979    0.944583    0.005306
     42          6           0       -1.449691    1.366010   -0.025011
     43          6           0       -2.403775    0.542862   -0.150948
     44          6           0       -2.117603   -0.965149   -0.247012
     45          1           0       12.854925   -2.661796    1.711899
     46          1           0       13.706127   -1.160908    1.955652
     47          1           0       13.637959   -0.433222   -2.004778
     48          1           0       13.661051    0.330579   -0.574954
     49          1           0       14.707328   -2.025517   -0.156398
     50          1           0       10.250575   -2.388382    2.040974
     51          1           0       11.147072   -1.567021    3.403550
     52          1           0        9.607727   -0.629085    2.593485
     53          1           0        9.118562    1.214730    0.657911
     54          1           0        9.878955   -0.688952   -2.278720
     55          1           0       11.269474   -0.213443   -3.145507
     56          1           0       11.224900   -1.654025   -2.027024
     57          1           0       12.003659    2.050130   -0.499881
     58          1           0       12.194509    1.742984   -2.258353
     59          1           0       10.569648    1.724804   -1.509645
     60          1           0       12.046497   -2.925971   -0.728381
     61          1           0        8.963801   -1.653047   -0.292577
     62          1           0        5.727802   -1.906649    0.640263
     63          1           0        5.590583   -1.913841   -1.157276
     64          1           0        6.973357   -2.674211   -0.433835
     65          1           0        7.289108    1.467090    0.156419
     66          1           0        4.586129    0.029664   -0.037823
     67          1           0      -13.071325   -1.771350   -2.278275
     68          1           0      -11.551844   -2.332444   -1.418283
     69          1           0      -13.651449   -3.062865   -0.301833
     70          1           0      -12.860236   -2.283633    1.937516
     71          1           0      -11.680568   -2.609904    0.862130
     72          1           0      -11.198766   -0.673717   -3.533145
     73          1           0      -10.640280    0.915307   -2.864626
     74          1           0      -10.059596   -0.752190   -2.337449
     75          1           0      -13.409589    0.892310   -0.313778
     76          1           0      -12.365924    1.935016   -1.292422
     77          1           0      -13.793510    1.003409   -2.246538
     78          1           0      -12.585337   -0.090718    3.001766
     79          1           0      -11.598606    1.196315    2.410148
     80          1           0      -13.215080    0.985338    1.526031
     81          1           0        5.331425    3.087478    0.187259
     82          1           0       -9.877242   -0.117600    2.068396
     83          1           0      -15.382234   -1.460791   -0.446998
     84          1           0       -8.449280    2.135032    0.188621
     85          1           0        2.379080    4.561588   -0.364354
     86          1           0        2.207985    4.356973    1.268384
     87          1           0        3.698936    4.740042    0.654299
     88          1           0        2.545087    0.590403    0.153290
     89          1           0       -6.692605   -1.796999    0.396794
     90          1           0       -8.418003   -1.586434    0.584247
     91          1           0       -7.927774   -1.529434   -1.171452
     92          1           0       -6.277821    1.930809    0.290753
     93          1           0        0.703303    3.070456    0.089084
     94          1           0       -4.998432   -0.982241   -0.038179
     95          1           0        0.329355    0.063347   -0.181408
     96          1           0       -3.961957    2.023283    0.030646
     97          1           0       -1.783506    2.519490    0.121492
     98          1           0       -0.998388   -1.150522    0.196470
     99          1           0       -2.637224   -1.457612    0.598123
    100          1           0       -2.444538   -1.450083   -1.209196
 ---------------------------------------------------------------------

 SCF Done:  E(RCAM-B3LYP) =  -1857.29463670     A.U. after   15 cycles

 Excitation energies and oscillator strengths:

 Excited State   1:      Singlet-A      2.4563 eV  504.76 nm  f=2.4703  <S**2>=0.000
     163 ->166        -0.12907
     164 ->165         0.69454
 This state for optimization and/or second-order correction.
 Total Energy, E(TD-HF/TD-DFT) =  -1857.20436975
 Copying the excited state density for this state as the 1-particle RhoCI density.

 The electronic state is 1-A.
 Alpha  occ. eigenvalues --  -19.24419 -19.21960 -19.21627 -19.19410 -10.33195
 Alpha  occ. eigenvalues --  -10.32356 -10.32327 -10.31865 -10.31362 -10.28228
 Alpha  occ. eigenvalues --  -10.28086 -10.28000 -10.27896 -10.27859 -10.27691
 Alpha  occ. eigenvalues --  -10.27509 -10.27342 -10.27282 -10.27161 -10.26855
 Alpha  occ. eigenvalues --  -10.26804 -10.26789 -10.26783 -10.26738 -10.26718
 Alpha  occ. eigenvalues --  -10.26716 -10.26522 -10.26499 -10.26457 -10.26337
 Alpha  occ. eigenvalues --  -10.26320 -10.26292 -10.26142 -10.26107 -10.25528
 Alpha  occ. eigenvalues --  -10.25479 -10.25301 -10.25147 -10.24774 -10.24500
 Alpha  occ. eigenvalues --  -10.24035 -10.23827 -10.23776 -10.23299  -1.13008
 Alpha  occ. eigenvalues --   -1.09069  -1.08130  -1.07610  -0.93258  -0.92545
 Alpha  occ. eigenvalues --   -0.92129  -0.91524  -0.90582  -0.89905  -0.86706
 Alpha  occ. eigenvalues --   -0.86319  -0.85602  -0.85528  -0.84569  -0.82604
 Alpha  occ. eigenvalues --   -0.81782  -0.80931  -0.80165  -0.77896  -0.77394
 Alpha  occ. eigenvalues --   -0.77114  -0.76993  -0.76548  -0.75962  -0.75611
 Alpha  occ. eigenvalues --   -0.74953  -0.74819  -0.73610  -0.70029  -0.68791
 Alpha  occ. eigenvalues --   -0.67935  -0.66652  -0.64940  -0.63996  -0.63734
 Alpha  occ. eigenvalues --   -0.63424  -0.61969  -0.60598  -0.60035  -0.59567
 Alpha  occ. eigenvalues --   -0.58553  -0.57732  -0.57514  -0.57010  -0.56666
 Alpha  occ. eigenvalues --   -0.55373  -0.55012  -0.54747  -0.54608  -0.53924
 Alpha  occ. eigenvalues --   -0.53406  -0.52659  -0.52460  -0.51465  -0.51273
 Alpha  occ. eigenvalues --   -0.51214  -0.51168  -0.50580  -0.50305  -0.50001
 Alpha  occ. eigenvalues --   -0.49447  -0.49316  -0.49167  -0.48988  -0.48822
 Alpha  occ. eigenvalues --   -0.48672  -0.48205  -0.47971  -0.47766  -0.46922
 Alpha  occ. eigenvalues --   -0.46580  -0.46191  -0.46049  -0.45496  -0.44913
 Alpha  occ. eigenvalues --   -0.44594  -0.44298  -0.44108  -0.43812  -0.43701
 Alpha  occ. eigenvalues --   -0.43405  -0.43087  -0.42902  -0.42855  -0.42687
 Alpha  occ. eigenvalues --   -0.42343  -0.42021  -0.41537  -0.41201  -0.40879
 Alpha  occ. eigenvalues --   -0.40719  -0.40547  -0.40214  -0.39940  -0.39604
 Alpha  occ. eigenvalues --   -0.39205  -0.38811  -0.38735  -0.38638  -0.38389
 Alpha  occ. eigenvalues --   -0.38222  -0.37881  -0.37248  -0.37077  -0.36921
 Alpha  occ. eigenvalues --   -0.36364  -0.36030  -0.35711  -0.34673  -0.33802
 Alpha  occ. eigenvalues --   -0.32490  -0.31919  -0.31731  -0.31543  -0.30689
 Alpha  occ. eigenvalues --   -0.30040  -0.28239  -0.24695  -0.20544
 Alpha virt. eigenvalues --   -0.05056   0.00058   0.03666   0.05745   0.05964
 Alpha virt. eigenvalues --    0.07294   0.09480   0.09835   0.11473   0.11587
 Alpha virt. eigenvalues --    0.12122   0.12500   0.12813   0.12913   0.13212

 Mulliken charges:
               1
     1  O   -0.520423
     2  O   -0.538144
     3  O   -0.590626
     4  O   -0.528137
     5  C    0.179397
     6  C    0.273781
     7  C   -0.007767
     8  C   -0.213170
     9  C   -0.160197
    10  C    0.147089
    11  C   -0.327698
    12  C   -0.115681
    13  C   -0.303485
    14  C   -0.306171
    15  C   -0.053614
    16  C    0.073150
    17  C   -0.385356
    18  C   -0.070620
    19  C   -0.093027
    20  C    0.070023
    21  C    0.220679
    22  C   -0.179346
    23  C    0.127597
    24  C   -0.171565
    25  C   -0.091202
    26  C   -0.305054
    27  C   -0.293829
    28  C   -0.258385
    29  C   -0.104403
    30  C    0.168487
    31  C    0.053188
    32  C   -0.290308
    33  C   -0.367653
    34  C   -0.106567
    35  C    0.099599
    36  C   -0.384258
    37  C   -0.094836
    38  C   -0.075181
    39  C   -0.096238
    40  C   -0.105940
    41  C   -0.133499
    42  C   -0.132257
    43  C    0.158931
    44  C   -0.375160
    45  H    0.073479
    46  H    0.137777
    47  H    0.115107
    48  H    0.118466
    49  H    0.065230
    50  H    0.111179
    51  H    0.114411
    52  H    0.098357
    53  H    0.089311
    54  H    0.116999
    55  H    0.084322
    56  H    0.090695
    57  H    0.132186
    58  H    0.096023
    59  H    0.105884
    60  H    0.296337
    61  H    0.055985
    62  H    0.139959
    63  H    0.127596
    64  H    0.096407
    65  H    0.075133
    66  H    0.085278
    67  H    0.092274
    68  H    0.078055
    69  H    0.068986
    70  H    0.102657
    71  H    0.111664
    72  H    0.058084
    73  H    0.108402
    74  H    0.111585
    75  H    0.113376
    76  H    0.106285
    77  H    0.080612
    78  H    0.129156
    79  H    0.082738
    80  H    0.107678
    81  H    0.069040
    82  H    0.304616
    83  H    0.312322
    84  H    0.107970
    85  H    0.138023
    86  H    0.120371
    87  H    0.113691
    88  H    0.079569
    89  H    0.094025
    90  H    0.135338
    91  H    0.137440
    92  H    0.084556
    93  H    0.079678
    94  H    0.085308
    95  H    0.088998
    96  H    0.073658
    97  H    0.069888
    98  H    0.091168
    99  H    0.119950
   100  H    0.124591
 Sum of Mulliken charges =  -0.00000

 Dipole moment (field-independent basis, Debye):
    X=             -4.1727    Y=             -0.7264    Z=             -1.5112  Tot=              4.4970
 Quadrupole moment (field-independent basis, Debye-Ang):
   XX=           -262.8539   YY=           -259.0552   ZZ=           -279.0951
   XY=             17.3003   XZ=             28.2901   YZ=              0.0457

 Normal termination of Gaussian 16 at Thu Aug  1 11:25:08 2019.
