 Gaussian 16, Revision A.03,
 Gaussian 16:  ES64L-G16RevA.03 25-Dec-2016

 -------------------------------------
 # td=(NStates=1) CAM-B3LYP/6-31G(d,p)
 -------------------------------------

 --
 TD
 --
 Symbolic Z-matrix:
 Charge =  0 Multiplicity = 1

                         Standard orientation:
 ---------------------------------------------------------------------
 Center     Atomic      Atomic             Coordinates (Angstroms)
 Number     Number       Type             X           Y           Z
 ---------------------------------------------------------------------
      1          8           0      -11.821787    0.120557   -1.629764
      2          8           0      -13.193881   -2.119527    1.701927
      3          8           0       10.598717   -1.219644   -1.973827
      4          8           0       14.515646   -1.077510   -0.091571
      5          6           0      -11.013981   -0.162790   -0.391079
      6          6           0      -11.665025   -1.195508   -1.180932
      7          6           0      -11.842278    0.529752    0.851155
      8          6           0      -13.059709   -1.813116   -0.738519
      9          6           0      -13.389400    0.077302    0.927267
     10          6           0      -13.658427   -1.299624    0.611265
     11          6           0      -10.873399   -2.176782   -2.089062
     12          6           0       -9.585072    0.040032   -0.466833
     13          6           0      -11.059237    0.286460    2.140932
     14          6           0      -11.713902    2.036104    0.681711
     15          6           0       -8.706508   -0.829550    0.063972
     16          6           0       -7.307627   -0.643889    0.128365
     17          6           0       -6.478970   -1.783398    0.567668
     18          6           0       -6.682216    0.533321   -0.285708
     19          6           0       -5.327699    0.690243   -0.311445
     20          6           0       11.944755    0.241487    1.243406
     21          6           0       11.711409   -0.699273   -1.311976
     22          6           0       12.744494   -1.135491    1.461791
     23          6           0       13.457339   -1.789933    0.341529
     24          6           0       12.489192   -1.938620   -0.833949
     25          6           0       11.224270    0.071913    0.050339
     26          6           0       11.114349    0.498585    2.454194
     27          6           0       12.979600    1.339253    1.143498
     28          6           0       12.568633    0.163109   -2.225271
     29          6           0       -4.767668    1.977091   -0.569575
     30          6           0       10.042799    0.496647   -0.103443
     31          6           0       -3.361507    2.274908   -0.587084
     32          6           0        8.755699    0.961816   -0.221341
     33          6           0       -3.001625    3.674341   -0.952210
     34          6           0       -2.334341    1.338946   -0.254614
     35          6           0        7.534100    0.237663    0.004219
     36          6           0        7.704042   -1.220275    0.509269
     37          6           0        6.252330    0.840215   -0.071434
     38          6           0       -1.016127    1.692294   -0.382536
     39          6           0        4.989172    0.277535   -0.000481
     40          6           0       -0.014642    0.834935   -0.052511
     41          6           0        3.792125    0.992998   -0.003590
     42          6           0        1.372478    1.087420   -0.025620
     43          6           0        2.541867    0.317247    0.187358
     44          6           0        2.427057   -0.997322    0.664351
     45          1           0      -13.030415   -2.720308   -0.791640
     46          1           0      -13.835280   -1.347294   -1.504713
     47          1           0      -13.822691    0.458539    1.840246
     48          1           0      -13.896779    0.575828   -0.009052
     49          1           0      -14.661023   -1.658959    0.801260
     50          1           0      -10.802751   -3.083362   -1.677708
     51          1           0      -11.676110   -2.559195   -2.938546
     52          1           0       -9.851510   -1.867224   -2.610717
     53          1           0       -9.144935    0.826165   -0.867661
     54          1           0      -10.049495    0.940931    2.075800
     55          1           0      -11.612215    0.615600    3.101185
     56          1           0      -10.969208   -0.833128    2.447319
     57          1           0      -11.970686    2.573152   -0.286458
     58          1           0      -12.306094    2.606154    1.403159
     59          1           0      -10.557928    2.377579    1.004329
     60          1           0      -12.197077   -2.130276    1.605408
     61          1           0       -9.087626   -1.755958    0.578087
     62          1           0       -6.233778   -2.623588   -0.307394
     63          1           0       -5.269824   -1.677507    1.214321
     64          1           0       -7.020677   -2.564980    1.099814
     65          1           0       -7.518436    1.278277   -0.452981
     66          1           0       -4.674200   -0.055352   -0.140461
     67          1           0       13.361230   -0.919524    2.432798
     68          1           0       12.135369   -1.677026    1.851701
     69          1           0       13.873005   -2.775793    0.566680
     70          1           0       12.972248   -2.437967   -1.844597
     71          1           0       11.558654   -2.622651   -0.385149
     72          1           0       11.556901    0.461585    3.504075
     73          1           0       10.600833    1.321304    2.395411
     74          1           0       10.376617   -0.210943    2.648370
     75          1           0       13.798865    1.255848    0.336905
     76          1           0       12.297346    2.113597    0.920900
     77          1           0       13.498653    1.357150    1.967317
     78          1           0       12.821199   -0.243149   -3.271009
     79          1           0       12.221512    1.112871   -2.630440
     80          1           0       13.631833    0.502278   -1.587252
     81          1           0       -5.503837    2.674411   -0.851069
     82          1           0       10.062302   -0.389925   -2.122908
     83          1           0       15.261001   -0.924187    0.666228
     84          1           0        8.530804    2.138942   -0.435189
     85          1           0       -2.355512    4.239988   -0.025373
     86          1           0       -2.269713    3.813028   -1.819286
     87          1           0       -3.993498    4.270836   -1.158267
     88          1           0       -2.789767    0.573303    0.414002
     89          1           0        6.760785   -2.007014    0.319210
     90          1           0        8.517018   -1.766763    0.073721
     91          1           0        7.873962   -1.273349    1.403524
     92          1           0        6.088283    1.827071   -0.077712
     93          1           0       -0.855087    2.664710   -0.883324
     94          1           0        4.869461   -0.864380    0.406826
     95          1           0       -0.260064   -0.136220    0.436785
     96          1           0        3.577329    2.094926   -0.439459
     97          1           0        1.710387    2.068413   -0.470237
     98          1           0        1.287721   -1.162691    0.770171
     99          1           0        2.456847   -1.729190   -0.068709
    100          1           0        3.008395   -1.311870    1.479185
 ---------------------------------------------------------------------

 SCF Done:  E(RCAM-B3LYP) =  -1857.12598412     A.U. after   16 cycles

 Excitation energies and oscillator strengths:

 Excited State   1:      Singlet-A      1.8685 eV  663.56 nm  f=3.0782  <S**2>=0.000
     163 ->166        -0.13543
     164 ->165         0.69809
     164 <-165        -0.10843
 This state for optimization and/or second-order correction.
 Total Energy, E(TD-HF/TD-DFT) =  -1857.05731952
 Copying the excited state density for this state as the 1-particle RhoCI density.

 The electronic state is 1-A.
 Alpha  occ. eigenvalues --  -19.22257 -19.21763 -19.21643 -19.19925 -10.33053
 Alpha  occ. eigenvalues --  -10.32717 -10.32210 -10.30856 -10.29807 -10.29140
 Alpha  occ. eigenvalues --  -10.29119 -10.29011 -10.28965 -10.28165 -10.27796
 Alpha  occ. eigenvalues --  -10.27703 -10.27605 -10.27516 -10.27416 -10.27401
 Alpha  occ. eigenvalues --  -10.27374 -10.27301 -10.27179 -10.26934 -10.26910
 Alpha  occ. eigenvalues --  -10.26822 -10.26670 -10.26658 -10.26635 -10.26542
 Alpha  occ. eigenvalues --  -10.26361 -10.26293 -10.26110 -10.25962 -10.25921
 Alpha  occ. eigenvalues --  -10.25921 -10.25521 -10.25416 -10.25232 -10.24599
 Alpha  occ. eigenvalues --  -10.24572 -10.24054 -10.23713 -10.23365  -1.14204
 Alpha  occ. eigenvalues --   -1.11356  -1.10820  -1.08058  -0.95161  -0.93151
 Alpha  occ. eigenvalues --   -0.92578  -0.91414  -0.90172  -0.89751  -0.87939
 Alpha  occ. eigenvalues --   -0.86456  -0.86009  -0.85811  -0.85189  -0.83679
 Alpha  occ. eigenvalues --   -0.82533  -0.81021  -0.80763  -0.78969  -0.78447
 Alpha  occ. eigenvalues --   -0.77658  -0.77173  -0.76642  -0.75810  -0.75646
 Alpha  occ. eigenvalues --   -0.74494  -0.74041  -0.73055  -0.70492  -0.69763
 Alpha  occ. eigenvalues --   -0.68717  -0.67496  -0.66501  -0.66161  -0.64414
 Alpha  occ. eigenvalues --   -0.64102  -0.61526  -0.60567  -0.60437  -0.59687
 Alpha  occ. eigenvalues --   -0.59342  -0.59120  -0.58361  -0.58179  -0.57977
 Alpha  occ. eigenvalues --   -0.56374  -0.55736  -0.55558  -0.54711  -0.54275
 Alpha  occ. eigenvalues --   -0.53968  -0.53367  -0.53022  -0.52864  -0.52436
 Alpha  occ. eigenvalues --   -0.52105  -0.51843  -0.51595  -0.50821  -0.50093
 Alpha  occ. eigenvalues --   -0.49859  -0.49282  -0.48854  -0.48585  -0.48420
 Alpha  occ. eigenvalues --   -0.47942  -0.47801  -0.47005  -0.46720  -0.46510
 Alpha  occ. eigenvalues --   -0.46334  -0.46188  -0.45951  -0.45635  -0.45090
 Alpha  occ. eigenvalues --   -0.44839  -0.44670  -0.44603  -0.44105  -0.43964
 Alpha  occ. eigenvalues --   -0.43479  -0.42690  -0.42397  -0.42291  -0.41802
 Alpha  occ. eigenvalues --   -0.41685  -0.41342  -0.41314  -0.41221  -0.40644
 Alpha  occ. eigenvalues --   -0.40616  -0.40380  -0.40196  -0.40022  -0.39699
 Alpha  occ. eigenvalues --   -0.39592  -0.39456  -0.39235  -0.38884  -0.38701
 Alpha  occ. eigenvalues --   -0.38090  -0.37950  -0.37677  -0.37330  -0.37176
 Alpha  occ. eigenvalues --   -0.36550  -0.36192  -0.35182  -0.34842  -0.34326
 Alpha  occ. eigenvalues --   -0.33361  -0.32561  -0.31721  -0.31613  -0.31223
 Alpha  occ. eigenvalues --   -0.30288  -0.27819  -0.23763  -0.19005
 Alpha virt. eigenvalues --   -0.07099  -0.02016   0.02427   0.06179   0.06836
 Alpha virt. eigenvalues --    0.08655   0.09632   0.09762   0.10623   0.11030
 Alpha virt. eigenvalues --    0.11992   0.12232   0.12741   0.12842   0.13443

 Mulliken charges:
               1
     1  O   -0.506158
     2  O   -0.569607
     3  O   -0.546731
     4  O   -0.539243
     5  C    0.188509
     6  C    0.267083
     7  C    0.021557
     8  C   -0.180461
     9  C   -0.162640
    10  C    0.132501
    11  C   -0.341805
    12  C   -0.107200
    13  C   -0.292359
    14  C   -0.298403
    15  C   -0.072144
    16  C    0.111497
    17  C   -0.368142
    18  C   -0.101129
    19  C   -0.057426
    20  C   -0.028982
    21  C    0.271204
    22  C   -0.179961
    23  C    0.193639
    24  C   -0.186728
    25  C   -0.053437
    26  C   -0.315048
    27  C   -0.264818
    28  C   -0.315003
    29  C   -0.124176
    30  C    0.146752
    31  C    0.091345
    32  C   -0.297482
    33  C   -0.376629
    34  C   -0.101573
    35  C    0.124602
    36  C   -0.364897
    37  C   -0.104711
    38  C   -0.069077
    39  C   -0.097866
    40  C   -0.093042
    41  C   -0.124369
    42  C   -0.139302
    43  C    0.158315
    44  C   -0.395737
    45  H    0.093709
    46  H    0.106711
    47  H    0.112255
    48  H    0.097324
    49  H    0.110548
    50  H    0.122755
    51  H    0.083867
    52  H    0.120967
    53  H    0.091845
    54  H    0.101932
    55  H    0.101032
    56  H    0.073713
    57  H    0.117853
    58  H    0.109018
    59  H    0.062915
    60  H    0.288697
    61  H    0.075081
    62  H    0.094122
    63  H    0.074089
    64  H    0.115748
    65  H    0.082881
    66  H    0.088171
    67  H    0.055172
    68  H    0.095519
    69  H    0.077786
    70  H    0.097912
    71  H    0.090360
    72  H    0.092283
    73  H    0.120614
    74  H    0.112917
    75  H    0.101790
    76  H    0.099385
    77  H    0.102036
    78  H    0.104486
    79  H    0.099253
    80  H    0.106660
    81  H    0.085536
    82  H    0.306996
    83  H    0.308602
    84  H    0.099650
    85  H    0.095989
    86  H    0.124422
    87  H    0.101434
    88  H    0.092866
    89  H    0.077937
    90  H    0.129118
    91  H    0.139575
    92  H    0.077308
    93  H    0.092219
    94  H    0.073624
    95  H    0.081138
    96  H    0.084177
    97  H    0.054810
    98  H    0.090285
    99  H    0.140535
   100  H    0.131653
 Sum of Mulliken charges =  -0.00000

 Dipole moment (field-independent basis, Debye):
    X=              4.5814    Y=              0.0876    Z=              2.5130  Tot=              5.2261
 Quadrupole moment (field-independent basis, Debye-Ang):
   XX=           -262.8356   YY=           -262.0025   ZZ=           -278.0897
   XY=              2.8271   XZ=             32.2115   YZ=             -4.1471

 Normal termination of Gaussian 16 at Mon Jul 29 06:12:50 2019.
