 Gaussian 16, Revision A.03,
 Gaussian 16:  ES64L-G16RevA.03 25-Dec-2016

 -------------------------------------
 # td=(NStates=1) CAM-B3LYP/6-31G(d,p)
 -------------------------------------

 --
 TD
 --
 Symbolic Z-matrix:
 Charge =  0 Multiplicity = 1

                         Standard orientation:
 ---------------------------------------------------------------------
 Center     Atomic      Atomic             Coordinates (Angstroms)
 Number     Number       Type             X           Y           Z
 ---------------------------------------------------------------------
      1          8           0      -11.718465    0.336860   -1.476633
      2          8           0      -13.085701   -2.369383    1.366061
      3          8           0       10.821678   -1.018940   -2.168153
      4          8           0       14.576797   -1.007376    0.057560
      5          6           0      -11.078011   -0.193225   -0.288405
      6          6           0      -11.740895   -1.116262   -1.240204
      7          6           0      -11.732306    0.278181    1.068338
      8          6           0      -13.024875   -1.671446   -0.974655
      9          6           0      -13.354764   -0.027451    1.096134
     10          6           0      -13.585009   -1.523841    0.553861
     11          6           0      -10.959525   -1.847116   -2.325279
     12          6           0       -9.574698    0.141466   -0.447515
     13          6           0      -10.986030   -0.274551    2.200866
     14          6           0      -11.639254    1.854536    1.084805
     15          6           0       -8.612600   -0.709483    0.096757
     16          6           0       -7.191647   -0.599895    0.125953
     17          6           0       -6.413582   -1.802129    0.599214
     18          6           0       -6.628577    0.684139   -0.015509
     19          6           0       -5.207191    0.817895   -0.126738
     20          6           0       11.794091    0.089034    1.390611
     21          6           0       11.746085   -0.561936   -1.203996
     22          6           0       12.674844   -1.300335    1.664404
     23          6           0       13.432713   -1.822247    0.366647
     24          6           0       12.479154   -1.872969   -0.783633
     25          6           0       11.133048    0.053070    0.006721
     26          6           0       10.857620    0.253834    2.548751
     27          6           0       12.798663    1.289111    1.524153
     28          6           0       12.624579    0.534484   -1.990973
     29          6           0       -4.715960    2.095778   -0.364861
     30          6           0        9.901508    0.407932   -0.119095
     31          6           0       -3.358759    2.546871   -0.354511
     32          6           0        8.640508    0.891911   -0.268410
     33          6           0       -3.098312    3.989336   -0.532024
     34          6           0       -2.267534    1.616775   -0.310529
     35          6           0        7.491387    0.028354   -0.171053
     36          6           0        7.640313   -1.365869    0.104873
     37          6           0        6.265578    0.653597   -0.264970
     38          6           0       -0.901787    1.825355   -0.328630
     39          6           0        4.905496    0.143094   -0.195283
     40          6           0        0.000403    0.891233   -0.163974
     41          6           0        3.795577    0.909114   -0.290843
     42          6           0        1.404787    1.150025   -0.209660
     43          6           0        2.430212    0.253582   -0.139474
     44          6           0        2.255467   -1.153094    0.005776
     45          1           0      -13.130427   -2.658740   -1.452680
     46          1           0      -13.600720   -1.091762   -1.532075
     47          1           0      -13.738923    0.146581    2.110735
     48          1           0      -13.978902    0.533151    0.419140
     49          1           0      -14.732672   -1.794822    0.242697
     50          1           0      -10.920973   -2.913609   -2.052194
     51          1           0      -11.362868   -1.758775   -3.314606
     52          1           0      -10.009874   -1.384268   -2.508089
     53          1           0       -9.138410    0.991811   -1.021323
     54          1           0      -10.040357   -0.100142    2.423416
     55          1           0      -11.586776   -0.103639    2.968539
     56          1           0      -10.824480   -1.281783    2.184530
     57          1           0      -12.193418    2.210194    0.143420
     58          1           0      -12.134823    2.383741    1.834666
     59          1           0      -10.540950    2.089434    1.075577
     60          1           0      -12.067801   -2.298092    1.072332
     61          1           0       -8.947861   -1.569747    0.510837
     62          1           0       -5.868486   -2.177618   -0.309830
     63          1           0       -5.552711   -1.500004    1.313174
     64          1           0       -7.188649   -2.525903    1.220510
     65          1           0       -7.301473    1.605801   -0.259869
     66          1           0       -4.585669    0.076712    0.196360
     67          1           0       13.311167   -1.193184    2.522666
     68          1           0       12.034182   -2.018781    2.110053
     69          1           0       13.744952   -2.856070    0.720537
     70          1           0       13.095085   -2.387818   -1.576459
     71          1           0       11.723828   -2.443093   -0.530259
     72          1           0       11.424981    0.158848    3.480064
     73          1           0       10.619453    1.303481    2.613023
     74          1           0        9.843642   -0.322817    2.548092
     75          1           0       13.651716    1.355006    0.929653
     76          1           0       12.252578    2.155283    1.057476
     77          1           0       12.928141    1.555392    2.613423
     78          1           0       13.181010   -0.036316   -2.941179
     79          1           0       11.906882    1.396391   -2.173476
     80          1           0       13.359377    0.779711   -1.239546
     81          1           0       -5.333131    2.942068   -0.768924
     82          1           0        9.933955   -0.452379   -2.169740
     83          1           0       15.343751   -1.114883    0.710685
     84          1           0        8.478022    1.820751   -0.513156
     85          1           0       -2.460018    4.104800    0.385043
     86          1           0       -2.506089    4.498329   -1.346215
     87          1           0       -4.052596    4.423506   -0.701167
     88          1           0       -2.633943    0.567413   -0.273725
     89          1           0        6.789898   -1.998029   -0.057417
     90          1           0        8.460282   -1.800341   -0.638717
     91          1           0        7.918550   -1.520841    1.137225
     92          1           0        6.263234    1.716998   -0.333349
     93          1           0       -0.545746    2.854947   -0.503381
     94          1           0        4.714760   -0.719227    0.130823
     95          1           0       -0.232620   -0.186206   -0.013746
     96          1           0        3.909602    2.033231   -0.501613
     97          1           0        1.716055    2.203440   -0.178819
     98          1           0        1.281905   -1.575299    0.198861
     99          1           0        2.678538   -1.557464   -1.027263
    100          1           0        2.687048   -1.435823    0.868753
 ---------------------------------------------------------------------

 SCF Done:  E(RCAM-B3LYP) =  -1857.32370075     A.U. after   15 cycles

 Excitation energies and oscillator strengths:

 Excited State   1:      Singlet-A      2.3277 eV  532.64 nm  f=2.7253  <S**2>=0.000
     163 ->166        -0.13778
     164 ->165         0.69256
 This state for optimization and/or second-order correction.
 Total Energy, E(TD-HF/TD-DFT) =  -1857.23815871
 Copying the excited state density for this state as the 1-particle RhoCI density.

 The electronic state is 1-A.
 Alpha  occ. eigenvalues --  -19.22680 -19.22007 -19.21057 -19.20379 -10.32268
 Alpha  occ. eigenvalues --  -10.31915 -10.31642 -10.31634 -10.31600 -10.28878
 Alpha  occ. eigenvalues --  -10.28447 -10.28440 -10.27489 -10.27413 -10.27339
 Alpha  occ. eigenvalues --  -10.27256 -10.27188 -10.27139 -10.27106 -10.26972
 Alpha  occ. eigenvalues --  -10.26955 -10.26905 -10.26672 -10.26224 -10.26023
 Alpha  occ. eigenvalues --  -10.25989 -10.25798 -10.25795 -10.25710 -10.25659
 Alpha  occ. eigenvalues --  -10.25572 -10.25529 -10.25523 -10.25403 -10.25112
 Alpha  occ. eigenvalues --  -10.25055 -10.25042 -10.24679 -10.24587 -10.24562
 Alpha  occ. eigenvalues --  -10.24283 -10.24037 -10.23921 -10.21750  -1.14794
 Alpha  occ. eigenvalues --   -1.13227  -1.08388  -1.07810  -0.93047  -0.92562
 Alpha  occ. eigenvalues --   -0.91903  -0.91255  -0.90640  -0.89866  -0.88042
 Alpha  occ. eigenvalues --   -0.87330  -0.85898  -0.85630  -0.84587  -0.83761
 Alpha  occ. eigenvalues --   -0.81566  -0.80319  -0.80180  -0.79463  -0.77955
 Alpha  occ. eigenvalues --   -0.77557  -0.76362  -0.75875  -0.75794  -0.75605
 Alpha  occ. eigenvalues --   -0.75148  -0.74022  -0.73309  -0.70005  -0.69187
 Alpha  occ. eigenvalues --   -0.68002  -0.66779  -0.65629  -0.64929  -0.64806
 Alpha  occ. eigenvalues --   -0.63503  -0.62519  -0.61781  -0.61025  -0.60181
 Alpha  occ. eigenvalues --   -0.59382  -0.58756  -0.58185  -0.57675  -0.57358
 Alpha  occ. eigenvalues --   -0.56545  -0.56030  -0.55678  -0.54493  -0.54234
 Alpha  occ. eigenvalues --   -0.54115  -0.53779  -0.52827  -0.52005  -0.51838
 Alpha  occ. eigenvalues --   -0.51176  -0.50912  -0.50586  -0.50301  -0.49902
 Alpha  occ. eigenvalues --   -0.49527  -0.49304  -0.49210  -0.48989  -0.48641
 Alpha  occ. eigenvalues --   -0.48535  -0.48358  -0.48249  -0.47664  -0.47294
 Alpha  occ. eigenvalues --   -0.46836  -0.46435  -0.45665  -0.45631  -0.45354
 Alpha  occ. eigenvalues --   -0.45096  -0.44985  -0.44482  -0.44463  -0.44026
 Alpha  occ. eigenvalues --   -0.43820  -0.43639  -0.43115  -0.43064  -0.42761
 Alpha  occ. eigenvalues --   -0.42117  -0.41870  -0.41778  -0.41744  -0.41496
 Alpha  occ. eigenvalues --   -0.41143  -0.40914  -0.40565  -0.40559  -0.40229
 Alpha  occ. eigenvalues --   -0.39689  -0.39567  -0.39284  -0.39112  -0.38690
 Alpha  occ. eigenvalues --   -0.38408  -0.38076  -0.38019  -0.37879  -0.37552
 Alpha  occ. eigenvalues --   -0.36281  -0.35775  -0.35033  -0.34185  -0.33236
 Alpha  occ. eigenvalues --   -0.32184  -0.31424  -0.31185  -0.30947  -0.30000
 Alpha  occ. eigenvalues --   -0.29604  -0.27396  -0.24132  -0.20052
 Alpha virt. eigenvalues --   -0.05297  -0.00669   0.02823   0.06882   0.07072
 Alpha virt. eigenvalues --    0.09009   0.10267   0.10557   0.11678   0.11962
 Alpha virt. eigenvalues --    0.12256   0.12963   0.13335   0.13989   0.14264

 Mulliken charges:
               1
     1  O   -0.520247
     2  O   -0.470306
     3  O   -0.585845
     4  O   -0.558060
     5  C    0.184103
     6  C    0.237142
     7  C   -0.015837
     8  C   -0.248908
     9  C   -0.193149
    10  C    0.137230
    11  C   -0.334805
    12  C   -0.115158
    13  C   -0.288299
    14  C   -0.307525
    15  C   -0.071563
    16  C    0.073985
    17  C   -0.369520
    18  C   -0.105171
    19  C   -0.064182
    20  C    0.045051
    21  C    0.249786
    22  C   -0.206598
    23  C    0.151427
    24  C   -0.161012
    25  C   -0.091986
    26  C   -0.320516
    27  C   -0.316862
    28  C   -0.280677
    29  C   -0.125699
    30  C    0.128955
    31  C    0.065840
    32  C   -0.227698
    33  C   -0.365604
    34  C   -0.115025
    35  C    0.128061
    36  C   -0.382139
    37  C   -0.127552
    38  C   -0.069073
    39  C   -0.053682
    40  C   -0.066992
    41  C   -0.113757
    42  C   -0.130288
    43  C    0.090204
    44  C   -0.372244
    45  H    0.103931
    46  H    0.140208
    47  H    0.103603
    48  H    0.105929
    49  H    0.054747
    50  H    0.097349
    51  H    0.122706
    52  H    0.123041
    53  H    0.106403
    54  H    0.121494
    55  H    0.115586
    56  H    0.078255
    57  H    0.115847
    58  H    0.107615
    59  H    0.096043
    60  H    0.315107
    61  H    0.051499
    62  H    0.133070
    63  H    0.117891
    64  H    0.099273
    65  H    0.088846
    66  H    0.088460
    67  H    0.080509
    68  H    0.094968
    69  H    0.073390
    70  H    0.107065
    71  H    0.119807
    72  H    0.101205
    73  H    0.109791
    74  H    0.099345
    75  H    0.130537
    76  H    0.090512
    77  H    0.094330
    78  H    0.094845
    79  H    0.087832
    80  H    0.120352
    81  H    0.078827
    82  H    0.307139
    83  H    0.315234
    84  H    0.101086
    85  H    0.131721
    86  H    0.118373
    87  H    0.106625
    88  H    0.065660
    89  H    0.117834
    90  H    0.105295
    91  H    0.129692
    92  H    0.067663
    93  H    0.082495
    94  H    0.056567
    95  H    0.075955
    96  H    0.087194
    97  H    0.072749
    98  H    0.114534
    99  H    0.119875
   100  H    0.138284
 Sum of Mulliken charges =  -0.00000

 Dipole moment (field-independent basis, Debye):
    X=              2.4826    Y=             -0.8989    Z=              2.9052  Tot=              3.9257
 Quadrupole moment (field-independent basis, Debye-Ang):
   XX=           -290.8986   YY=           -259.8266   ZZ=           -276.4231
   XY=             -1.9756   XZ=             40.2129   YZ=             -2.6145

 Normal termination of Gaussian 16 at Fri Aug  2 08:19:54 2019.
