 Gaussian 16, Revision A.03,
 Gaussian 16:  ES64L-G16RevA.03 25-Dec-2016

 -------------------------------------
 # td=(NStates=1) CAM-B3LYP/6-31G(d,p)
 -------------------------------------

 --
 TD
 --
 Symbolic Z-matrix:
 Charge =  0 Multiplicity = 1

                         Standard orientation:
 ---------------------------------------------------------------------
 Center     Atomic      Atomic             Coordinates (Angstroms)
 Number     Number       Type             X           Y           Z
 ---------------------------------------------------------------------
      1          8           0      -11.743289   -0.064749   -1.679035
      2          8           0      -13.060109   -2.231611    1.635878
      3          8           0       10.607055   -1.020600   -2.124398
      4          8           0       14.520047   -1.021261   -0.027061
      5          6           0      -11.072075   -0.229579   -0.374953
      6          6           0      -11.614369   -1.408878   -1.151206
      7          6           0      -11.846094    0.362836    0.814015
      8          6           0      -12.993762   -1.875086   -0.896716
      9          6           0      -13.320619    0.106732    0.714075
     10          6           0      -13.540946   -1.471309    0.482900
     11          6           0      -10.786936   -2.295542   -1.990762
     12          6           0       -9.548163    0.052860   -0.379975
     13          6           0      -11.133841   -0.073458    2.191277
     14          6           0      -11.814123    1.915743    0.643226
     15          6           0       -8.683480   -0.763934    0.229321
     16          6           0       -7.217955   -0.480301    0.328804
     17          6           0       -6.359914   -1.664833    0.674423
     18          6           0       -6.631847    0.693975   -0.061765
     19          6           0       -5.173228    0.903803   -0.076078
     20          6           0       11.806731    0.016721    1.313790
     21          6           0       11.729895   -0.644093   -1.227693
     22          6           0       12.615948   -1.241568    1.578660
     23          6           0       13.370769   -1.837786    0.352778
     24          6           0       12.479437   -1.929397   -0.842819
     25          6           0       11.102193   -0.029850    0.006547
     26          6           0       10.885082    0.312024    2.588895
     27          6           0       12.938325    1.223900    1.286601
     28          6           0       12.714283    0.326465   -1.971064
     29          6           0       -4.687764    2.192177   -0.391357
     30          6           0        9.868922    0.425241   -0.155963
     31          6           0       -3.435183    2.619237   -0.423100
     32          6           0        8.663507    0.900754   -0.235290
     33          6           0       -3.015266    4.054504   -0.651772
     34          6           0       -2.273184    1.764787   -0.182981
     35          6           0        7.473904    0.043128   -0.033881
     36          6           0        7.638894   -1.340458    0.293267
     37          6           0        6.249426    0.713153   -0.227648
     38          6           0       -0.903385    1.962145   -0.194126
     39          6           0        4.929907    0.193406   -0.014868
     40          6           0        0.048143    0.944243   -0.281813
     41          6           0        3.799484    0.942532   -0.176424
     42          6           0        1.385103    1.283757   -0.278869
     43          6           0        2.516658    0.403840   -0.028094
     44          6           0        2.386025   -1.023172    0.177695
     45          1           0      -12.949764   -2.853701   -0.838218
     46          1           0      -13.514336   -1.505332   -2.027908
     47          1           0      -13.798555    0.390475    1.668479
     48          1           0      -13.900104    0.780448   -0.062602
     49          1           0      -14.661003   -1.684580    0.401961
     50          1           0      -10.498711   -3.070051   -1.330118
     51          1           0      -11.463788   -2.685755   -2.874527
     52          1           0       -9.966161   -1.756291   -2.651596
     53          1           0       -9.306960    0.884753   -0.865074
     54          1           0      -10.050306    0.593602    2.438472
     55          1           0      -11.695076    0.299841    3.046033
     56          1           0      -10.850910   -1.189520    2.346747
     57          1           0      -12.295337    2.118815   -0.380773
     58          1           0      -12.630939    2.347616    1.319226
     59          1           0      -10.871432    2.457486    0.981997
     60          1           0      -12.181572   -2.305702    1.419706
     61          1           0       -9.083443   -1.813590    0.697654
     62          1           0       -5.967118   -2.278984   -0.275802
     63          1           0       -5.573762   -1.309841    1.247089
     64          1           0       -7.004155   -2.581134    1.173877
     65          1           0       -7.359219    1.466278   -0.369287
     66          1           0       -4.487741    0.018691    0.232174
     67          1           0       13.209554   -1.028561    2.376340
     68          1           0       12.049838   -1.873731    2.055186
     69          1           0       13.701370   -2.825085    0.616826
     70          1           0       12.956737   -2.327942   -1.720628
     71          1           0       11.585232   -2.695463   -0.587249
     72          1           0       11.327716    0.282411    3.452900
     73          1           0       10.448962    1.148426    2.535787
     74          1           0       10.160931   -0.426303    2.404450
     75          1           0       13.776607    1.014168    0.718064
     76          1           0       12.404064    2.246522    0.908916
     77          1           0       13.299622    1.272019    2.315199
     78          1           0       13.168467   -0.282326   -2.638633
     79          1           0       12.122344    1.156356   -2.333097
     80          1           0       13.498840    0.429493   -1.198177
     81          1           0       -5.458211    2.924093   -0.512667
     82          1           0       10.060354   -0.285981   -2.090054
     83          1           0       14.997090   -1.329389    0.703913
     84          1           0        8.405467    1.917779   -0.557594
     85          1           0       -2.619991    4.509595    0.181149
     86          1           0       -2.267512    4.352257   -1.507389
     87          1           0       -3.986770    4.653805   -0.780751
     88          1           0       -2.457389    0.569256   -0.003506
     89          1           0        6.564751   -1.824331    0.209311
     90          1           0        8.300783   -1.759484   -0.487362
     91          1           0        8.117886   -1.306896    1.275509
     92          1           0        6.249173    1.711932   -0.665035
     93          1           0       -0.716716    3.065419   -0.422606
     94          1           0        4.681176   -0.918188   -0.067149
     95          1           0       -0.235198    0.002218    0.043838
     96          1           0        3.923148    1.965788   -0.515690
     97          1           0        1.707743    2.258710   -0.432024
     98          1           0        1.482824   -1.519093    0.256528
     99          1           0        2.843220   -1.559933   -0.804982
    100          1           0        2.915606   -1.427618    0.967764
 ---------------------------------------------------------------------

 SCF Done:  E(RCAM-B3LYP) =  -1857.29989893     A.U. after   15 cycles

 Excitation energies and oscillator strengths:

 Excited State   1:      Singlet-A      1.8824 eV  658.65 nm  f=2.8450  <S**2>=0.000
     163 ->166         0.11306
     164 ->165         0.70807
     164 <-165        -0.13672
 This state for optimization and/or second-order correction.
 Total Energy, E(TD-HF/TD-DFT) =  -1857.23072226
 Copying the excited state density for this state as the 1-particle RhoCI density.

 The electronic state is 1-A.
 Alpha  occ. eigenvalues --  -19.22860 -19.22079 -19.21145 -19.19739 -10.32240
 Alpha  occ. eigenvalues --  -10.32226 -10.31722 -10.31691 -10.31035 -10.28609
 Alpha  occ. eigenvalues --  -10.28370 -10.28054 -10.28007 -10.27777 -10.27675
 Alpha  occ. eigenvalues --  -10.27637 -10.27527 -10.27368 -10.27244 -10.27202
 Alpha  occ. eigenvalues --  -10.27168 -10.26893 -10.26877 -10.26595 -10.26571
 Alpha  occ. eigenvalues --  -10.26426 -10.26411 -10.26344 -10.26239 -10.26186
 Alpha  occ. eigenvalues --  -10.26128 -10.26092 -10.26062 -10.26026 -10.26011
 Alpha  occ. eigenvalues --  -10.25873 -10.25849 -10.25700 -10.25624 -10.25396
 Alpha  occ. eigenvalues --  -10.24931 -10.24322 -10.22985 -10.22345  -1.13104
 Alpha  occ. eigenvalues --   -1.12331  -1.10836  -1.08770  -0.93577  -0.92595
 Alpha  occ. eigenvalues --   -0.91869  -0.91167  -0.90662  -0.89798  -0.88033
 Alpha  occ. eigenvalues --   -0.87206  -0.86665  -0.85811  -0.84750  -0.83408
 Alpha  occ. eigenvalues --   -0.81739  -0.81150  -0.80368  -0.79109  -0.78625
 Alpha  occ. eigenvalues --   -0.77605  -0.76748  -0.76057  -0.75680  -0.75639
 Alpha  occ. eigenvalues --   -0.74551  -0.73628  -0.72682  -0.70269  -0.69857
 Alpha  occ. eigenvalues --   -0.68489  -0.66984  -0.66041  -0.65346  -0.63925
 Alpha  occ. eigenvalues --   -0.63633  -0.62608  -0.61013  -0.60382  -0.59752
 Alpha  occ. eigenvalues --   -0.58746  -0.58229  -0.57810  -0.57136  -0.56605
 Alpha  occ. eigenvalues --   -0.56048  -0.55467  -0.54925  -0.54780  -0.54192
 Alpha  occ. eigenvalues --   -0.53472  -0.53150  -0.52938  -0.52254  -0.51875
 Alpha  occ. eigenvalues --   -0.51639  -0.51076  -0.50400  -0.50175  -0.50078
 Alpha  occ. eigenvalues --   -0.49638  -0.49613  -0.49538  -0.48735  -0.48498
 Alpha  occ. eigenvalues --   -0.48410  -0.48089  -0.47776  -0.47529  -0.47405
 Alpha  occ. eigenvalues --   -0.47066  -0.46745  -0.45811  -0.45768  -0.45443
 Alpha  occ. eigenvalues --   -0.45285  -0.44724  -0.44430  -0.44212  -0.44140
 Alpha  occ. eigenvalues --   -0.43757  -0.43054  -0.43023  -0.42763  -0.42693
 Alpha  occ. eigenvalues --   -0.42534  -0.42437  -0.41797  -0.41653  -0.41378
 Alpha  occ. eigenvalues --   -0.41091  -0.40959  -0.40485  -0.40122  -0.40079
 Alpha  occ. eigenvalues --   -0.39860  -0.39656  -0.39535  -0.39067  -0.38939
 Alpha  occ. eigenvalues --   -0.38439  -0.38325  -0.38249  -0.37134  -0.36990
 Alpha  occ. eigenvalues --   -0.36824  -0.36260  -0.35405  -0.34712  -0.34289
 Alpha  occ. eigenvalues --   -0.33691  -0.32233  -0.32009  -0.31311  -0.30969
 Alpha  occ. eigenvalues --   -0.29217  -0.28299  -0.24502  -0.18655
 Alpha virt. eigenvalues --   -0.07064  -0.00198   0.03379   0.05991   0.06635
 Alpha virt. eigenvalues --    0.08550   0.10442   0.10582   0.11075   0.12097
 Alpha virt. eigenvalues --    0.12404   0.12732   0.13051   0.13495   0.13973

 Mulliken charges:
               1
     1  O   -0.523791
     2  O   -0.523980
     3  O   -0.567728
     4  O   -0.517872
     5  C    0.202136
     6  C    0.206105
     7  C    0.035815
     8  C   -0.168524
     9  C   -0.178275
    10  C    0.104609
    11  C   -0.319926
    12  C   -0.082458
    13  C   -0.294537
    14  C   -0.324743
    15  C   -0.068603
    16  C    0.069102
    17  C   -0.356823
    18  C   -0.101559
    19  C   -0.086488
    20  C   -0.022450
    21  C    0.200394
    22  C   -0.170212
    23  C    0.099694
    24  C   -0.187263
    25  C   -0.015014
    26  C   -0.295215
    27  C   -0.304154
    28  C   -0.277624
    29  C   -0.121186
    30  C    0.115705
    31  C    0.114573
    32  C   -0.297071
    33  C   -0.390993
    34  C   -0.113778
    35  C    0.110293
    36  C   -0.365241
    37  C   -0.123912
    38  C   -0.070125
    39  C   -0.099543
    40  C   -0.085265
    41  C   -0.114744
    42  C   -0.107790
    43  C    0.122910
    44  C   -0.398737
    45  H    0.103952
    46  H    0.109138
    47  H    0.106534
    48  H    0.101222
    49  H    0.094399
    50  H    0.110276
    51  H    0.096755
    52  H    0.123536
    53  H    0.101550
    54  H    0.070826
    55  H    0.119047
    56  H    0.087348
    57  H    0.126457
    58  H    0.093089
    59  H    0.097811
    60  H    0.296236
    61  H    0.066792
    62  H    0.109828
    63  H    0.128582
    64  H    0.081484
    65  H    0.083659
    66  H    0.098406
    67  H    0.087583
    68  H    0.102310
    69  H    0.099924
    70  H    0.117258
    71  H    0.095748
    72  H    0.103133
    73  H    0.119237
    74  H    0.104988
    75  H    0.136519
    76  H    0.078364
    77  H    0.087083
    78  H    0.117533
    79  H    0.096134
    80  H    0.133818
    81  H    0.085202
    82  H    0.295216
    83  H    0.306031
    84  H    0.109048
    85  H    0.142240
    86  H    0.115134
    87  H    0.092475
    88  H    0.042047
    89  H    0.099203
    90  H    0.143198
    91  H    0.128581
    92  H    0.078965
    93  H    0.074864
    94  H    0.086254
    95  H    0.092364
    96  H    0.082528
    97  H    0.078375
    98  H    0.115693
    99  H    0.104310
   100  H    0.135996
 Sum of Mulliken charges =  -0.00000

 Dipole moment (field-independent basis, Debye):
    X=              3.9339    Y=             -0.9300    Z=              2.5918  Tot=              4.8018
 Quadrupole moment (field-independent basis, Debye-Ang):
   XX=           -268.5896   YY=           -256.7344   ZZ=           -279.3984
   XY=            -14.2402   XZ=             39.6533   YZ=             -3.6344

 Normal termination of Gaussian 16 at Mon Jul 29 21:28:39 2019.
