 Gaussian 16, Revision A.03,
 Gaussian 16:  ES64L-G16RevA.03 25-Dec-2016

 -------------------------------------
 # td=(NStates=1) CAM-B3LYP/6-31G(d,p)
 -------------------------------------

 --
 TD
 --
 Symbolic Z-matrix:
 Charge =  0 Multiplicity = 1

                         Standard orientation:
 ---------------------------------------------------------------------
 Center     Atomic      Atomic             Coordinates (Angstroms)
 Number     Number       Type             X           Y           Z
 ---------------------------------------------------------------------
      1          8           0      -11.793356    0.047153   -1.603105
      2          8           0      -12.987563   -2.342517    1.606099
      3          8           0       10.611219   -1.094856   -2.052450
      4          8           0       14.616688   -0.891015   -0.148663
      5          6           0      -11.110059   -0.140181   -0.315204
      6          6           0      -11.616590   -1.266310   -1.264784
      7          6           0      -11.841296    0.495692    0.857423
      8          6           0      -12.924002   -1.822325   -0.863502
      9          6           0      -13.302321   -0.061690    0.947807
     10          6           0      -13.492383   -1.563661    0.613104
     11          6           0      -10.779985   -2.178054   -2.178390
     12          6           0       -9.614412    0.195258   -0.501028
     13          6           0      -11.083287    0.112758    2.142964
     14          6           0      -11.755595    2.026549    0.624777
     15          6           0       -8.647380   -0.663565    0.058201
     16          6           0       -7.231775   -0.584805    0.112544
     17          6           0       -6.484749   -1.750790    0.599044
     18          6           0       -6.499752    0.594125   -0.242975
     19          6           0       -5.199188    0.925505   -0.093744
     20          6           0       11.888413    0.041644    1.251860
     21          6           0       11.652987   -0.709004   -1.308250
     22          6           0       12.706695   -1.232182    1.467470
     23          6           0       13.410149   -1.749569    0.159628
     24          6           0       12.445402   -1.923720   -0.998036
     25          6           0       11.029121    0.015279   -0.070436
     26          6           0       11.013058    0.173604    2.501870
     27          6           0       12.895009    1.301320    1.197985
     28          6           0       12.418332    0.445124   -2.047694
     29          6           0       -4.742979    2.141838   -0.366398
     30          6           0        9.840534    0.442315    0.043650
     31          6           0       -3.338280    2.497477   -0.434307
     32          6           0        8.660400    0.931996   -0.079300
     33          6           0       -3.006507    3.929939   -0.658961
     34          6           0       -2.311648    1.518448   -0.265971
     35          6           0        7.411778    0.116409    0.066000
     36          6           0        7.638951   -1.368843    0.321816
     37          6           0        6.264796    0.621310   -0.005120
     38          6           0       -0.929510    1.971099   -0.412467
     39          6           0        4.968307    0.074407    0.076970
     40          6           0        0.104525    0.970060   -0.241278
     41          6           0        3.763535    0.814124    0.109783
     42          6           0        1.421244    1.242208   -0.104370
     43          6           0        2.476531    0.375883    0.168886
     44          6           0        2.180703   -1.083077    0.494658
     45          1           0      -12.610918   -2.895789   -0.665930
     46          1           0      -13.715927   -1.774371   -1.620540
     47          1           0      -13.704150    0.204430    1.890934
     48          1           0      -14.192884    0.500073    0.235625
     49          1           0      -14.460438   -1.795592    0.528705
     50          1           0      -10.124427   -3.014756   -1.593503
     51          1           0      -11.373079   -2.601122   -2.903540
     52          1           0      -10.098152   -1.557522   -2.631517
     53          1           0       -9.526968    1.399229   -0.736373
     54          1           0      -10.080053    0.490581    1.953410
     55          1           0      -11.539833    0.746579    2.875503
     56          1           0      -10.892932   -0.994981    2.063903
     57          1           0      -12.374332    2.283041   -0.454217
     58          1           0      -12.372613    2.451027    1.433844
     59          1           0      -10.782802    2.340495    0.857539
     60          1           0      -11.986503   -2.578365    1.381627
     61          1           0       -8.909381   -1.855507    0.302440
     62          1           0       -5.833071   -2.058079   -0.124527
     63          1           0       -5.837672   -1.363131    1.516331
     64          1           0       -7.169077   -2.551677    0.916245
     65          1           0       -7.075531    1.401155   -0.715730
     66          1           0       -4.579735    0.206598    0.254047
     67          1           0       13.349789   -0.945031    2.320628
     68          1           0       12.018783   -2.083460    1.911273
     69          1           0       13.740473   -2.806463    0.579128
     70          1           0       13.023929   -2.208262   -1.989040
     71          1           0       11.767083   -2.553381   -0.670992
     72          1           0       11.653300    0.077451    3.222991
     73          1           0       10.310428    1.090951    2.412834
     74          1           0       10.436331   -0.831148    2.676651
     75          1           0       13.614541    1.186883    0.441816
     76          1           0       12.389062    2.292127    1.118042
     77          1           0       13.459876    1.259812    2.146942
     78          1           0       12.867314    0.231056   -3.139901
     79          1           0       11.647836    1.289788   -2.122034
     80          1           0       13.354050    0.905219   -1.516066
     81          1           0       -5.481762    3.119376   -0.547456
     82          1           0       10.036044   -0.305096   -2.204521
     83          1           0       14.977193   -0.883081    0.682418
     84          1           0        8.315056    1.990212   -0.397840
     85          1           0       -2.133827    4.478063    0.068524
     86          1           0       -2.412211    3.894215   -1.705834
     87          1           0       -4.000350    4.502948   -0.812428
     88          1           0       -2.652241    0.528230    0.150664
     89          1           0        6.844343   -1.953277    0.218329
     90          1           0        8.291471   -1.788873   -0.506423
     91          1           0        8.054624   -1.631888    1.317397
     92          1           0        6.174950    1.653385    0.145602
     93          1           0       -0.671543    3.048230   -0.482008
     94          1           0        4.778095   -0.944983    0.133519
     95          1           0       -0.216570   -0.216292   -0.118779
     96          1           0        4.008947    1.869035   -0.304830
     97          1           0        1.890247    2.293376   -0.211423
     98          1           0        1.215347   -1.503203    0.823646
     99          1           0        2.418918   -1.820210   -0.354214
    100          1           0        2.922426   -1.227696    1.348728
 ---------------------------------------------------------------------

 SCF Done:  E(RCAM-B3LYP) =  -1857.25898101     A.U. after   16 cycles

 Excitation energies and oscillator strengths:

 Excited State   1:      Singlet-A      1.9288 eV  642.79 nm  f=2.8968  <S**2>=0.000
     163 ->166         0.12502
     164 ->165         0.70032
     164 <-165        -0.11380
 This state for optimization and/or second-order correction.
 Total Energy, E(TD-HF/TD-DFT) =  -1857.18809717
 Copying the excited state density for this state as the 1-particle RhoCI density.

 The electronic state is 1-A.
 Alpha  occ. eigenvalues --  -19.22098 -19.21945 -19.21622 -19.21017 -10.33274
 Alpha  occ. eigenvalues --  -10.32433 -10.31625 -10.31500 -10.29444 -10.28977
 Alpha  occ. eigenvalues --  -10.28861 -10.28539 -10.28398 -10.28355 -10.28103
 Alpha  occ. eigenvalues --  -10.28034 -10.27940 -10.27674 -10.27586 -10.27546
 Alpha  occ. eigenvalues --  -10.27527 -10.27460 -10.27366 -10.26808 -10.26778
 Alpha  occ. eigenvalues --  -10.26679 -10.26507 -10.26487 -10.26202 -10.26182
 Alpha  occ. eigenvalues --  -10.26006 -10.25972 -10.25955 -10.25940 -10.25686
 Alpha  occ. eigenvalues --  -10.25354 -10.25185 -10.25137 -10.25011 -10.24674
 Alpha  occ. eigenvalues --  -10.24669 -10.24405 -10.24225 -10.24193  -1.15107
 Alpha  occ. eigenvalues --   -1.13292  -1.10271  -1.09973  -0.93350  -0.92858
 Alpha  occ. eigenvalues --   -0.92609  -0.91447  -0.90700  -0.89975  -0.87747
 Alpha  occ. eigenvalues --   -0.87105  -0.86278  -0.85471  -0.84751  -0.82507
 Alpha  occ. eigenvalues --   -0.82065  -0.80366  -0.80114  -0.78184  -0.77174
 Alpha  occ. eigenvalues --   -0.76799  -0.76504  -0.75967  -0.75828  -0.75774
 Alpha  occ. eigenvalues --   -0.75619  -0.73969  -0.73366  -0.70427  -0.70188
 Alpha  occ. eigenvalues --   -0.69099  -0.66937  -0.64769  -0.64319  -0.63650
 Alpha  occ. eigenvalues --   -0.63633  -0.62118  -0.61253  -0.60228  -0.59751
 Alpha  occ. eigenvalues --   -0.59251  -0.58565  -0.57954  -0.57295  -0.56267
 Alpha  occ. eigenvalues --   -0.55656  -0.55171  -0.54927  -0.54574  -0.54151
 Alpha  occ. eigenvalues --   -0.53858  -0.53393  -0.52849  -0.52476  -0.51872
 Alpha  occ. eigenvalues --   -0.51552  -0.51107  -0.50215  -0.49939  -0.49590
 Alpha  occ. eigenvalues --   -0.49507  -0.49140  -0.48833  -0.48430  -0.48305
 Alpha  occ. eigenvalues --   -0.48158  -0.47892  -0.47818  -0.47256  -0.46967
 Alpha  occ. eigenvalues --   -0.46893  -0.46584  -0.46154  -0.45816  -0.45803
 Alpha  occ. eigenvalues --   -0.45357  -0.44592  -0.44201  -0.43878  -0.43690
 Alpha  occ. eigenvalues --   -0.43485  -0.43364  -0.43052  -0.42822  -0.42642
 Alpha  occ. eigenvalues --   -0.42463  -0.42280  -0.41789  -0.41734  -0.41526
 Alpha  occ. eigenvalues --   -0.40861  -0.40397  -0.40384  -0.40062  -0.40047
 Alpha  occ. eigenvalues --   -0.39887  -0.39484  -0.39315  -0.39290  -0.38771
 Alpha  occ. eigenvalues --   -0.38511  -0.38278  -0.38152  -0.37925  -0.37706
 Alpha  occ. eigenvalues --   -0.36757  -0.35342  -0.35012  -0.34600  -0.33100
 Alpha  occ. eigenvalues --   -0.32853  -0.32486  -0.31206  -0.30880  -0.30418
 Alpha  occ. eigenvalues --   -0.30227  -0.28287  -0.24302  -0.19273
 Alpha virt. eigenvalues --   -0.07115  -0.01720   0.03152   0.06198   0.06639
 Alpha virt. eigenvalues --    0.07955   0.09735   0.10398   0.11041   0.11581
 Alpha virt. eigenvalues --    0.11979   0.12289   0.12813   0.13112   0.13752

 Mulliken charges:
               1
     1  O   -0.498119
     2  O   -0.529009
     3  O   -0.543399
     4  O   -0.535918
     5  C    0.164778
     6  C    0.261377
     7  C    0.002779
     8  C   -0.235879
     9  C   -0.164163
    10  C    0.185056
    11  C   -0.325652
    12  C   -0.124391
    13  C   -0.277207
    14  C   -0.308818
    15  C   -0.081127
    16  C    0.075319
    17  C   -0.370701
    18  C   -0.113500
    19  C   -0.020493
    20  C    0.001467
    21  C    0.278792
    22  C   -0.223456
    23  C    0.125860
    24  C   -0.164372
    25  C   -0.092006
    26  C   -0.277075
    27  C   -0.312425
    28  C   -0.306173
    29  C   -0.127347
    30  C    0.207783
    31  C    0.102057
    32  C   -0.317649
    33  C   -0.369880
    34  C   -0.106720
    35  C    0.131869
    36  C   -0.375510
    37  C   -0.115318
    38  C   -0.103751
    39  C   -0.086747
    40  C   -0.092139
    41  C   -0.151718
    42  C   -0.108268
    43  C    0.140476
    44  C   -0.382774
    45  H    0.073365
    46  H    0.112582
    47  H    0.098132
    48  H    0.047861
    49  H    0.096309
    50  H    0.083673
    51  H    0.123504
    52  H    0.134378
    53  H    0.105911
    54  H    0.108678
    55  H    0.109352
    56  H    0.082190
    57  H    0.114461
    58  H    0.098032
    59  H    0.111229
    60  H    0.304860
    61  H    0.054526
    62  H    0.141633
    63  H    0.108526
    64  H    0.103361
    65  H    0.074647
    66  H    0.073349
    67  H    0.096261
    68  H    0.089287
    69  H    0.078992
    70  H    0.122920
    71  H    0.122303
    72  H    0.099793
    73  H    0.108053
    74  H    0.080484
    75  H    0.134080
    76  H    0.102158
    77  H    0.081040
    78  H    0.089695
    79  H    0.079589
    80  H    0.123721
    81  H    0.077611
    82  H    0.311244
    83  H    0.303790
    84  H    0.102423
    85  H    0.106154
    86  H    0.114538
    87  H    0.104665
    88  H    0.093748
    89  H    0.113960
    90  H    0.116795
    91  H    0.118101
    92  H    0.072501
    93  H    0.103849
    94  H    0.077876
    95  H    0.079469
    96  H    0.077998
    97  H    0.074482
    98  H    0.116578
    99  H    0.115089
   100  H    0.114286
 Sum of Mulliken charges =  -0.00000

 Dipole moment (field-independent basis, Debye):
    X=              3.7073    Y=             -0.5367    Z=              1.8936  Tot=              4.1974
 Quadrupole moment (field-independent basis, Debye-Ang):
   XX=           -304.0591   YY=           -258.2048   ZZ=           -279.8708
   XY=             -1.7745   XZ=             29.7563   YZ=             -1.8503

 Normal termination of Gaussian 16 at Thu Aug  1 17:11:36 2019.
