 Gaussian 16, Revision A.03,
 Gaussian 16:  ES64L-G16RevA.03 25-Dec-2016

 -------------------------------------
 # td=(NStates=1) CAM-B3LYP/6-31G(d,p)
 -------------------------------------

 --
 TD
 --
 Symbolic Z-matrix:
 Charge =  0 Multiplicity = 1

                         Standard orientation:
 ---------------------------------------------------------------------
 Center     Atomic      Atomic             Coordinates (Angstroms)
 Number     Number       Type             X           Y           Z
 ---------------------------------------------------------------------
      1          8           0      -11.896500    0.370975   -1.381931
      2          8           0      -12.938536   -2.416299    1.479288
      3          8           0       10.772411   -0.942135   -2.034459
      4          8           0       14.540292   -0.802678   -0.068153
      5          6           0      -11.142776   -0.071708   -0.257187
      6          6           0      -11.848777   -0.996985   -1.134706
      7          6           0      -11.702876    0.405713    1.090065
      8          6           0      -13.144025   -1.667555   -0.847581
      9          6           0      -13.262414   -0.000195    1.115182
     10          6           0      -13.507457   -1.442571    0.676722
     11          6           0      -11.008976   -1.724015   -2.245165
     12          6           0       -9.752473    0.130158   -0.340203
     13          6           0      -11.015675   -0.162001    2.345141
     14          6           0      -11.828496    1.989373    1.105046
     15          6           0       -8.764064   -0.782618    0.032115
     16          6           0       -7.299733   -0.551282    0.037844
     17          6           0       -6.500483   -1.877667    0.081721
     18          6           0       -6.685180    0.655944   -0.065620
     19          6           0       -5.285609    0.921733   -0.147793
     20          6           0       11.964537    0.142963    1.507523
     21          6           0       11.850161   -0.516794   -1.065384
     22          6           0       12.731898   -1.216832    1.675490
     23          6           0       13.460485   -1.696190    0.366239
     24          6           0       12.475215   -1.883573   -0.726594
     25          6           0       11.138729    0.089460    0.114975
     26          6           0       10.881301    0.301716    2.705471
     27          6           0       12.817258    1.342935    1.548050
     28          6           0       12.727265    0.424529   -1.775717
     29          6           0       -4.665374    2.128088   -0.423082
     30          6           0        9.934958    0.586396    0.045099
     31          6           0       -3.297502    2.485293   -0.370694
     32          6           0        8.662956    1.039005   -0.233789
     33          6           0       -2.932803    3.900119   -0.721009
     34          6           0       -2.370337    1.527204   -0.273922
     35          6           0        7.502440    0.097878   -0.183300
     36          6           0        7.765979   -1.341745    0.010348
     37          6           0        6.265427    0.608284   -0.315120
     38          6           0       -0.967391    1.715683   -0.346171
     39          6           0        4.990920   -0.014605   -0.283993
     40          6           0        0.082950    0.745274   -0.338178
     41          6           0        3.807550    0.592852   -0.456438
     42          6           0        1.390996    1.010102   -0.445677
     43          6           0        2.493665    0.081637   -0.342674
     44          6           0        2.332431   -1.411618   -0.100117
     45          1           0      -13.044973   -2.670633   -0.873411
     46          1           0      -14.069696   -1.336900   -1.586202
     47          1           0      -13.354878    0.072566    2.312105
     48          1           0      -13.897698    0.641075    0.414451
     49          1           0      -14.628833   -1.687770    0.789754
     50          1           0      -10.551521   -2.567547   -1.882445
     51          1           0      -11.480092   -1.930515   -3.262359
     52          1           0      -10.035787   -1.024145   -2.353348
     53          1           0       -9.519015    0.952968   -0.811638
     54          1           0      -10.129510    0.366132    2.438942
     55          1           0      -11.674667   -0.104396    3.269071
     56          1           0      -10.601128   -1.272326    2.162552
     57          1           0      -12.319212    2.186582    0.144424
     58          1           0      -12.415368    2.336276    1.988502
     59          1           0      -10.903678    2.488810    1.091044
     60          1           0      -11.991346   -2.369916    1.204981
     61          1           0       -8.885504   -1.777059    0.290600
     62          1           0       -5.741895   -2.210749   -0.764801
     63          1           0       -5.958390   -2.067766    1.042888
     64          1           0       -7.101409   -2.794152    0.090723
     65          1           0       -7.376807    1.522760   -0.176779
     66          1           0       -4.742720    0.119990    0.077926
     67          1           0       13.384146   -1.050560    2.705417
     68          1           0       12.144615   -2.067598    2.020887
     69          1           0       13.754848   -2.451131    0.894185
     70          1           0       12.927407   -2.266472   -1.626505
     71          1           0       11.776287   -2.638494   -0.376291
     72          1           0       11.331845    0.154746    3.730563
     73          1           0       10.408845    1.096576    2.472433
     74          1           0       10.065859   -0.241905    2.491154
     75          1           0       13.798392    0.892818    0.813658
     76          1           0       12.327266    2.289807    1.125180
     77          1           0       13.158239    1.429230    2.481143
     78          1           0       13.040326   -0.256019   -2.802922
     79          1           0       11.774874    1.172445   -2.056780
     80          1           0       13.585097    0.904569   -1.252415
     81          1           0       -5.376163    2.865854   -0.479244
     82          1           0       10.085532   -0.304018   -2.123836
     83          1           0       15.058113   -0.806179    0.764341
     84          1           0        8.584225    2.013252   -0.369366
     85          1           0       -2.165157    4.169607    0.060661
     86          1           0       -2.395093    4.091027   -1.619008
     87          1           0       -3.725089    4.376092   -0.501734
     88          1           0       -2.624725    0.606583    0.153522
     89          1           0        6.732542   -1.806855   -0.015016
     90          1           0        8.319815   -2.092216   -0.686340
     91          1           0        8.127080   -1.641832    1.057118
     92          1           0        6.346408    1.670032   -0.631213
     93          1           0       -0.502111    2.554649   -0.450394
     94          1           0        5.002918   -1.033271   -0.151364
     95          1           0       -0.297225   -0.216710   -0.086561
     96          1           0        3.890301    1.735838   -0.546803
     97          1           0        1.640752    2.053137   -0.575856
     98          1           0        1.257586   -1.582842   -0.427869
     99          1           0        2.939117   -1.964701   -0.766558
    100          1           0        2.457712   -1.593964    1.109378
 ---------------------------------------------------------------------

 SCF Done:  E(RCAM-B3LYP) =  -1857.26296090     A.U. after   15 cycles

 Excitation energies and oscillator strengths:

 Excited State   1:      Singlet-A      2.1479 eV  577.23 nm  f=3.2174  <S**2>=0.000
     163 ->166         0.13401
     164 ->165         0.69539
 This state for optimization and/or second-order correction.
 Total Energy, E(TD-HF/TD-DFT) =  -1857.18402596
 Copying the excited state density for this state as the 1-particle RhoCI density.

 The electronic state is 1-A.
 Alpha  occ. eigenvalues --  -19.23326 -19.22676 -19.21812 -19.18928 -10.32341
 Alpha  occ. eigenvalues --  -10.31881 -10.31805 -10.30526 -10.30494 -10.28422
 Alpha  occ. eigenvalues --  -10.28302 -10.28239 -10.28125 -10.27945 -10.27637
 Alpha  occ. eigenvalues --  -10.27604 -10.27341 -10.27282 -10.27268 -10.27212
 Alpha  occ. eigenvalues --  -10.27087 -10.26950 -10.26712 -10.26562 -10.26511
 Alpha  occ. eigenvalues --  -10.26384 -10.26244 -10.26194 -10.26121 -10.26108
 Alpha  occ. eigenvalues --  -10.26043 -10.26035 -10.25998 -10.25977 -10.25774
 Alpha  occ. eigenvalues --  -10.25591 -10.25588 -10.25553 -10.25354 -10.25324
 Alpha  occ. eigenvalues --  -10.24930 -10.24605 -10.24203 -10.22336  -1.17858
 Alpha  occ. eigenvalues --   -1.11036  -1.10425  -1.06776  -0.93027  -0.92669
 Alpha  occ. eigenvalues --   -0.92131  -0.91641  -0.90703  -0.89891  -0.87887
 Alpha  occ. eigenvalues --   -0.87073  -0.86562  -0.85765  -0.85365  -0.83676
 Alpha  occ. eigenvalues --   -0.82835  -0.81150  -0.79637  -0.79585  -0.77565
 Alpha  occ. eigenvalues --   -0.77323  -0.77011  -0.76630  -0.75971  -0.75640
 Alpha  occ. eigenvalues --   -0.75533  -0.75448  -0.73831  -0.70985  -0.70263
 Alpha  occ. eigenvalues --   -0.69295  -0.67780  -0.66036  -0.65184  -0.64271
 Alpha  occ. eigenvalues --   -0.64099  -0.62936  -0.62099  -0.60486  -0.60440
 Alpha  occ. eigenvalues --   -0.59352  -0.59090  -0.58885  -0.57965  -0.57557
 Alpha  occ. eigenvalues --   -0.56659  -0.56380  -0.55833  -0.54548  -0.54219
 Alpha  occ. eigenvalues --   -0.53799  -0.53446  -0.53045  -0.52487  -0.52345
 Alpha  occ. eigenvalues --   -0.51330  -0.50998  -0.50502  -0.50326  -0.49945
 Alpha  occ. eigenvalues --   -0.49369  -0.49024  -0.48962  -0.48864  -0.48392
 Alpha  occ. eigenvalues --   -0.47961  -0.47718  -0.47515  -0.47389  -0.47178
 Alpha  occ. eigenvalues --   -0.47083  -0.46614  -0.46540  -0.46155  -0.46035
 Alpha  occ. eigenvalues --   -0.45879  -0.45712  -0.44853  -0.44593  -0.43890
 Alpha  occ. eigenvalues --   -0.43287  -0.43180  -0.42767  -0.42638  -0.42241
 Alpha  occ. eigenvalues --   -0.42037  -0.41953  -0.41827  -0.41720  -0.41455
 Alpha  occ. eigenvalues --   -0.41149  -0.40984  -0.40760  -0.40693  -0.40515
 Alpha  occ. eigenvalues --   -0.40067  -0.39559  -0.39243  -0.39150  -0.39084
 Alpha  occ. eigenvalues --   -0.38805  -0.38585  -0.38196  -0.37893  -0.37371
 Alpha  occ. eigenvalues --   -0.36523  -0.36320  -0.35504  -0.34306  -0.33659
 Alpha  occ. eigenvalues --   -0.32525  -0.32291  -0.31724  -0.31195  -0.30529
 Alpha  occ. eigenvalues --   -0.30347  -0.27897  -0.24907  -0.19808
 Alpha virt. eigenvalues --   -0.06512  -0.01246   0.02495   0.05853   0.07579
 Alpha virt. eigenvalues --    0.09555   0.09590   0.10237   0.11438   0.12121
 Alpha virt. eigenvalues --    0.12798   0.13276   0.13605   0.13813   0.14234

 Mulliken charges:
               1
     1  O   -0.494386
     2  O   -0.524675
     3  O   -0.591732
     4  O   -0.536917
     5  C    0.199655
     6  C    0.241811
     7  C   -0.006383
     8  C   -0.214593
     9  C   -0.165598
    10  C    0.134169
    11  C   -0.333775
    12  C   -0.100302
    13  C   -0.297092
    14  C   -0.312993
    15  C   -0.070745
    16  C    0.089115
    17  C   -0.398793
    18  C   -0.126175
    19  C   -0.051467
    20  C    0.016991
    21  C    0.218309
    22  C   -0.242654
    23  C    0.152291
    24  C   -0.163188
    25  C   -0.062618
    26  C   -0.302308
    27  C   -0.273980
    28  C   -0.228913
    29  C   -0.110476
    30  C    0.084476
    31  C    0.083511
    32  C   -0.236350
    33  C   -0.342871
    34  C   -0.101319
    35  C    0.123290
    36  C   -0.388257
    37  C   -0.102170
    38  C   -0.080448
    39  C   -0.084704
    40  C   -0.080925
    41  C   -0.099453
    42  C   -0.113916
    43  C    0.080208
    44  C   -0.358499
    45  H    0.120491
    46  H    0.101216
    47  H    0.081455
    48  H    0.106343
    49  H    0.081095
    50  H    0.110157
    51  H    0.113811
    52  H    0.099449
    53  H    0.108267
    54  H    0.123563
    55  H    0.114932
    56  H    0.067383
    57  H    0.130772
    58  H    0.104796
    59  H    0.098179
    60  H    0.297110
    61  H    0.075102
    62  H    0.114814
    63  H    0.121506
    64  H    0.108391
    65  H    0.075251
    66  H    0.071721
    67  H    0.061392
    68  H    0.113772
    69  H    0.100532
    70  H    0.121875
    71  H    0.113854
    72  H    0.091250
    73  H    0.108596
    74  H    0.105500
    75  H    0.074059
    76  H    0.104892
    77  H    0.105787
    78  H    0.088669
    79  H    0.060473
    80  H    0.140045
    81  H    0.068260
    82  H    0.297241
    83  H    0.311081
    84  H    0.103272
    85  H    0.109796
    86  H    0.137998
    87  H    0.111790
    88  H    0.084759
    89  H    0.093842
    90  H    0.137325
    91  H    0.114385
    92  H    0.077041
    93  H    0.049688
    94  H    0.079533
    95  H    0.071464
    96  H    0.070103
    97  H    0.083679
    98  H    0.110082
    99  H    0.132383
   100  H    0.114628
 Sum of Mulliken charges =  -0.00000

 Dipole moment (field-independent basis, Debye):
    X=              2.1431    Y=             -0.6739    Z=              2.6154  Tot=              3.4478
 Quadrupole moment (field-independent basis, Debye-Ang):
   XX=           -290.3920   YY=           -258.6424   ZZ=           -278.8526
   XY=            -10.7763   XZ=             39.5679   YZ=             -0.9062

 Normal termination of Gaussian 16 at Tue Jul 30 09:18:00 2019.
