 Gaussian 16, Revision A.03,
 Gaussian 16:  ES64L-G16RevA.03 25-Dec-2016

 -------------------------------------
 # td=(NStates=1) CAM-B3LYP/6-31G(d,p)
 -------------------------------------

 --
 TD
 --
 Symbolic Z-matrix:
 Charge =  0 Multiplicity = 1

                         Standard orientation:
 ---------------------------------------------------------------------
 Center     Atomic      Atomic             Coordinates (Angstroms)
 Number     Number       Type             X           Y           Z
 ---------------------------------------------------------------------
      1          8           0      -11.620398    0.004347   -1.609413
      2          8           0      -12.826123   -2.429404    1.611574
      3          8           0       10.495775   -1.103716   -2.059724
      4          8           0       14.375093   -1.279027   -0.084615
      5          6           0      -11.048491   -0.278341   -0.427518
      6          6           0      -11.693669   -1.382759   -1.219988
      7          6           0      -11.694662    0.375236    0.844275
      8          6           0      -13.010785   -1.950384   -0.847736
      9          6           0      -13.237674   -0.071834    0.840382
     10          6           0      -13.497834   -1.644632    0.596223
     11          6           0      -10.794811   -2.161575   -2.114658
     12          6           0       -9.625375    0.030857   -0.377022
     13          6           0      -11.216822    0.071142    2.260144
     14          6           0      -11.680404    1.959989    0.576323
     15          6           0       -8.587434   -0.799988    0.083829
     16          6           0       -7.215378   -0.510804    0.179218
     17          6           0       -6.376174   -1.698038    0.519902
     18          6           0       -6.592089    0.671624    0.007023
     19          6           0       -5.213692    0.973401   -0.072523
     20          6           0       11.957824    0.105476    1.271837
     21          6           0       11.648890   -0.689633   -1.274293
     22          6           0       12.651116   -1.308769    1.579185
     23          6           0       13.217106   -1.997946    0.411747
     24          6           0       12.284252   -2.083740   -0.896218
     25          6           0       11.045021   -0.039363    0.046875
     26          6           0       11.029556    0.458754    2.518085
     27          6           0       13.031799    1.261880    1.187599
     28          6           0       12.596334    0.180658   -2.124203
     29          6           0       -4.753389    2.295763   -0.351233
     30          6           0        9.884051    0.576851   -0.141414
     31          6           0       -3.396947    2.666798   -0.511466
     32          6           0        8.575637    0.937513   -0.247493
     33          6           0       -3.061797    4.083204   -0.657813
     34          6           0       -2.253823    1.700440   -0.318523
     35          6           0        7.449524    0.195982   -0.061823
     36          6           0        7.632349   -1.282481    0.314800
     37          6           0        6.150674    0.787554   -0.208059
     38          6           0       -0.888015    1.927104   -0.325783
     39          6           0        4.953536    0.286734    0.203882
     40          6           0       -0.004544    0.941706   -0.180655
     41          6           0        3.762702    0.999759    0.028528
     42          6           0        1.465654    1.341214   -0.160769
     43          6           0        2.473195    0.485226    0.125858
     44          6           0        2.324122   -0.966294    0.242387
     45          1           0      -12.956560   -3.065885   -1.126046
     46          1           0      -13.803877   -1.815387   -1.625420
     47          1           0      -13.705708    0.148848    1.849346
     48          1           0      -13.798538    0.510186   -0.019543
     49          1           0      -14.628278   -1.869109    0.596996
     50          1           0      -10.182581   -3.065759   -1.467187
     51          1           0      -11.464790   -2.598863   -2.879773
     52          1           0      -10.124107   -1.341464   -2.517243
     53          1           0       -9.446262    0.953306   -0.851240
     54          1           0      -10.197870    0.458496    2.320549
     55          1           0      -11.839382    0.600692    2.871695
     56          1           0      -11.159372   -1.124055    2.483665
     57          1           0      -12.018303    2.281736   -0.309959
     58          1           0      -12.332637    2.311774    1.306640
     59          1           0      -10.582145    2.478714    0.583879
     60          1           0      -11.824541   -2.118333    1.525262
     61          1           0       -8.828041   -1.731851    0.628641
     62          1           0       -5.922604   -2.007510   -0.283469
     63          1           0       -5.767851   -1.499906    1.341449
     64          1           0       -6.966120   -2.591853    0.784675
     65          1           0       -7.115348    1.654152   -0.161201
     66          1           0       -4.478543    0.371529    0.217485
     67          1           0       13.360861   -1.219832    2.265445
     68          1           0       11.813578   -1.859397    2.050228
     69          1           0       13.436995   -3.161686    0.713442
     70          1           0       12.564584   -2.555262   -1.773599
     71          1           0       11.445342   -2.804052   -0.628708
     72          1           0       11.565921    0.191800    3.595114
     73          1           0       10.605831    1.559239    2.300877
     74          1           0       10.235770   -0.339046    2.303554
     75          1           0       13.699693    1.095239    0.386810
     76          1           0       12.655814    2.192285    1.002107
     77          1           0       13.697465    1.167017    2.013732
     78          1           0       13.031716   -0.332949   -2.930303
     79          1           0       11.893951    1.092764   -2.349913
     80          1           0       13.395862    0.434860   -1.501198
     81          1           0       -5.596814    3.132273   -0.590091
     82          1           0       10.060167   -0.183181   -2.247224
     83          1           0       14.859745   -1.202874    0.639248
     84          1           0        8.458381    2.064565   -0.510737
     85          1           0       -2.698964    4.645102    0.223524
     86          1           0       -2.252100    4.274151   -1.326686
     87          1           0       -3.995101    4.835034   -1.040417
     88          1           0       -2.460735    0.655703   -0.196898
     89          1           0        6.509719   -1.577616    0.185034
     90          1           0        8.533243   -1.971592   -0.226431
     91          1           0        7.808565   -1.454321    1.490772
     92          1           0        6.173278    1.996903   -0.486633
     93          1           0       -0.315659    2.934416   -0.592370
     94          1           0        4.987602   -0.727858    0.456017
     95          1           0       -0.003174   -0.149533    0.151374
     96          1           0        4.058173    2.031561   -0.235281
     97          1           0        1.749236    2.581766   -0.392576
     98          1           0        1.269503   -1.350142    0.789921
     99          1           0        2.402543   -1.600909   -0.678035
    100          1           0        3.060484   -1.561177    1.094655
 ---------------------------------------------------------------------

 SCF Done:  E(RCAM-B3LYP) =  -1857.24327094     A.U. after   15 cycles

 Excitation energies and oscillator strengths:

 Excited State   1:      Singlet-A      1.9815 eV  625.71 nm  f=3.1512  <S**2>=0.000
     163 ->166         0.14403
     164 ->165         0.69108
 This state for optimization and/or second-order correction.
 Total Energy, E(TD-HF/TD-DFT) =  -1857.17045238
 Copying the excited state density for this state as the 1-particle RhoCI density.

 The electronic state is 1-A.
 Alpha  occ. eigenvalues --  -19.22679 -19.22143 -19.21674 -19.20321 -10.32777
 Alpha  occ. eigenvalues --  -10.32497 -10.32148 -10.31803 -10.31654 -10.29302
 Alpha  occ. eigenvalues --  -10.29069 -10.28913 -10.28688 -10.28674 -10.28193
 Alpha  occ. eigenvalues --  -10.27815 -10.27691 -10.27554 -10.27516 -10.27466
 Alpha  occ. eigenvalues --  -10.27415 -10.27399 -10.27353 -10.27327 -10.27321
 Alpha  occ. eigenvalues --  -10.27218 -10.27201 -10.27111 -10.26923 -10.26859
 Alpha  occ. eigenvalues --  -10.26816 -10.26663 -10.26648 -10.26564 -10.26317
 Alpha  occ. eigenvalues --  -10.26174 -10.26101 -10.25594 -10.25341 -10.25020
 Alpha  occ. eigenvalues --  -10.25018 -10.24021 -10.23772 -10.23377  -1.18551
 Alpha  occ. eigenvalues --   -1.12302  -1.07766  -1.07080  -0.92855  -0.92478
 Alpha  occ. eigenvalues --   -0.91855  -0.90968  -0.90316  -0.89947  -0.87830
 Alpha  occ. eigenvalues --   -0.87152  -0.85794  -0.84674  -0.84255  -0.83424
 Alpha  occ. eigenvalues --   -0.82686  -0.80698  -0.80209  -0.77599  -0.77270
 Alpha  occ. eigenvalues --   -0.76914  -0.76619  -0.76541  -0.75209  -0.75113
 Alpha  occ. eigenvalues --   -0.74977  -0.74556  -0.72195  -0.70617  -0.69303
 Alpha  occ. eigenvalues --   -0.68404  -0.67162  -0.65582  -0.64721  -0.64200
 Alpha  occ. eigenvalues --   -0.63067  -0.61955  -0.61004  -0.60509  -0.60015
 Alpha  occ. eigenvalues --   -0.58899  -0.58120  -0.57320  -0.57132  -0.55568
 Alpha  occ. eigenvalues --   -0.55513  -0.55047  -0.54696  -0.54091  -0.53872
 Alpha  occ. eigenvalues --   -0.53394  -0.53047  -0.52688  -0.52529  -0.52041
 Alpha  occ. eigenvalues --   -0.51801  -0.51096  -0.50731  -0.49984  -0.49395
 Alpha  occ. eigenvalues --   -0.49164  -0.48843  -0.48532  -0.48426  -0.48279
 Alpha  occ. eigenvalues --   -0.47798  -0.47749  -0.47616  -0.47457  -0.46859
 Alpha  occ. eigenvalues --   -0.46677  -0.46410  -0.45921  -0.45367  -0.44893
 Alpha  occ. eigenvalues --   -0.44791  -0.44725  -0.44446  -0.44124  -0.43583
 Alpha  occ. eigenvalues --   -0.43301  -0.42943  -0.42846  -0.42796  -0.42764
 Alpha  occ. eigenvalues --   -0.42487  -0.42140  -0.41841  -0.41679  -0.41282
 Alpha  occ. eigenvalues --   -0.41140  -0.40829  -0.40493  -0.40077  -0.39652
 Alpha  occ. eigenvalues --   -0.39430  -0.39129  -0.39011  -0.38900  -0.38416
 Alpha  occ. eigenvalues --   -0.38270  -0.38159  -0.37986  -0.37572  -0.36997
 Alpha  occ. eigenvalues --   -0.36469  -0.36171  -0.35435  -0.34503  -0.34146
 Alpha  occ. eigenvalues --   -0.33008  -0.32496  -0.32068  -0.31474  -0.30993
 Alpha  occ. eigenvalues --   -0.29862  -0.28004  -0.23127  -0.19314
 Alpha virt. eigenvalues --   -0.06688  -0.02149   0.02372   0.05783   0.06613
 Alpha virt. eigenvalues --    0.08949   0.10120   0.10666   0.10690   0.11580
 Alpha virt. eigenvalues --    0.11940   0.12786   0.13001   0.13111   0.13218

 Mulliken charges:
               1
     1  O   -0.493379
     2  O   -0.545762
     3  O   -0.563260
     4  O   -0.510887
     5  C    0.217407
     6  C    0.241142
     7  C   -0.010318
     8  C   -0.224050
     9  C   -0.201661
    10  C    0.143844
    11  C   -0.307739
    12  C   -0.106831
    13  C   -0.284823
    14  C   -0.313319
    15  C   -0.098927
    16  C    0.088132
    17  C   -0.378106
    18  C   -0.121066
    19  C   -0.041350
    20  C    0.003148
    21  C    0.208111
    22  C   -0.181995
    23  C    0.123221
    24  C   -0.176377
    25  C   -0.027435
    26  C   -0.290025
    27  C   -0.306006
    28  C   -0.279476
    29  C   -0.138775
    30  C    0.057372
    31  C    0.105528
    32  C   -0.252542
    33  C   -0.379040
    34  C   -0.142649
    35  C    0.149358
    36  C   -0.359171
    37  C   -0.121188
    38  C   -0.063221
    39  C   -0.073714
    40  C   -0.074607
    41  C   -0.112632
    42  C   -0.129644
    43  C    0.146496
    44  C   -0.379736
    45  H    0.103733
    46  H    0.117206
    47  H    0.094318
    48  H    0.095916
    49  H    0.099883
    50  H    0.080981
    51  H    0.105792
    52  H    0.132257
    53  H    0.111015
    54  H    0.114899
    55  H    0.125952
    56  H    0.074974
    57  H    0.136778
    58  H    0.108652
    59  H    0.079094
    60  H    0.305613
    61  H    0.075728
    62  H    0.142871
    63  H    0.129067
    64  H    0.097507
    65  H    0.073240
    66  H    0.080435
    67  H    0.096609
    68  H    0.105102
    69  H    0.060563
    70  H    0.119127
    71  H    0.094389
    72  H    0.079299
    73  H    0.104722
    74  H    0.104522
    75  H    0.114400
    76  H    0.110766
    77  H    0.094476
    78  H    0.121689
    79  H    0.071021
    80  H    0.135734
    81  H    0.078745
    82  H    0.299869
    83  H    0.287850
    84  H    0.092438
    85  H    0.131753
    86  H    0.127114
    87  H    0.080050
    88  H    0.088720
    89  H    0.090203
    90  H    0.136164
    91  H    0.101658
    92  H    0.061295
    93  H    0.086266
    94  H    0.080096
    95  H    0.090998
    96  H    0.082860
    97  H    0.068292
    98  H    0.086317
    99  H    0.145343
   100  H    0.091590
 Sum of Mulliken charges =  -0.00000

 Dipole moment (field-independent basis, Debye):
    X=              0.7042    Y=              0.5850    Z=              1.9658  Tot=              2.1685
 Quadrupole moment (field-independent basis, Debye-Ang):
   XX=           -258.2872   YY=           -261.3242   ZZ=           -280.4471
   XY=             -2.8610   XZ=             33.9320   YZ=             -3.1965

 Normal termination of Gaussian 16 at Thu Aug  1 03:26:32 2019.
