 Gaussian 16, Revision A.03,
 Gaussian 16:  ES64L-G16RevA.03 25-Dec-2016

 -------------------------------------
 # td=(NStates=1) CAM-B3LYP/6-31G(d,p)
 -------------------------------------

 --
 TD
 --
 Symbolic Z-matrix:
 Charge =  0 Multiplicity = 1

                         Standard orientation:
 ---------------------------------------------------------------------
 Center     Atomic      Atomic             Coordinates (Angstroms)
 Number     Number       Type             X           Y           Z
 ---------------------------------------------------------------------
      1          8           0      -11.855433    0.435643   -1.232508
      2          8           0      -12.979150   -2.705043    1.241476
      3          8           0       10.599494   -0.833615   -2.230645
      4          8           0       14.353773   -1.250195   -0.132225
      5          6           0      -10.967757   -0.208770   -0.233358
      6          6           0      -11.658894   -0.959948   -1.290933
      7          6           0      -11.624723   -0.004295    1.177068
      8          6           0      -13.034666   -1.708391   -0.991233
      9          6           0      -13.194837   -0.290808    1.042155
     10          6           0      -13.435112   -1.635569    0.427377
     11          6           0      -10.850703   -1.490245   -2.577452
     12          6           0       -9.602407    0.035435   -0.382209
     13          6           0      -10.891364   -0.800628    2.259843
     14          6           0      -11.626947    1.561349    1.347074
     15          6           0       -8.533089   -0.695551   -0.055916
     16          6           0       -7.087751   -0.432332   -0.074357
     17          6           0       -6.189194   -1.674535    0.176321
     18          6           0       -6.599087    0.804369   -0.153409
     19          6           0       -5.236048    1.056928   -0.234898
     20          6           0       11.847766   -0.181298    1.409000
     21          6           0       11.655739   -0.576085   -1.242432
     22          6           0       12.515379   -1.548993    1.475513
     23          6           0       13.226999   -1.967681    0.141629
     24          6           0       12.429555   -1.914016   -1.042403
     25          6           0       11.037923    0.022986    0.152235
     26          6           0       10.914662    0.095101    2.602559
     27          6           0       12.912564    0.912441    1.543841
     28          6           0       12.562788    0.467590   -1.881488
     29          6           0       -4.832199    2.304460   -0.306103
     30          6           0        9.850079    0.541209    0.125181
     31          6           0       -3.362930    2.681314   -0.330362
     32          6           0        8.649186    1.040870   -0.010826
     33          6           0       -3.140226    4.212203   -0.282268
     34          6           0       -2.364409    1.727766   -0.246816
     35          6           0        7.466129    0.250309   -0.068738
     36          6           0        7.586207   -1.279666    0.022378
     37          6           0        6.218486    0.902863   -0.062506
     38          6           0       -0.977780    2.033076   -0.354924
     39          6           0        4.943653    0.230986   -0.043794
     40          6           0        0.016395    1.045160   -0.256261
     41          6           0        3.798255    0.984230   -0.115107
     42          6           0        1.398935    1.363474   -0.082719
     43          6           0        2.524042    0.435065   -0.042942
     44          6           0        2.316762   -1.014852    0.045863
     45          1           0      -12.919064   -2.734177   -1.382216
     46          1           0      -13.895239   -1.305429   -1.564733
     47          1           0      -13.470403   -0.305584    2.067310
     48          1           0      -13.912249    0.461513    0.553535
     49          1           0      -14.488446   -1.964038    0.428408
     50          1           0      -10.634994   -2.555224   -2.085193
     51          1           0      -11.655855   -1.631775   -3.532417
     52          1           0      -10.044409   -0.811720   -2.745844
     53          1           0       -9.468719    1.097806   -0.664014
     54          1           0       -9.859880   -0.529384    2.221267
     55          1           0      -11.183879   -0.551561    3.298970
     56          1           0      -11.054431   -1.957722    2.333408
     57          1           0      -11.948408    2.065894    0.396591
     58          1           0      -12.321416    1.815698    2.110008
     59          1           0      -10.577712    2.104948    1.629031
     60          1           0      -11.885088   -2.878980    0.884395
     61          1           0       -8.814394   -1.610855    0.232757
     62          1           0       -5.697646   -2.133327   -0.758503
     63          1           0       -5.225751   -1.555853    0.880734
     64          1           0       -6.780983   -2.742491    0.620048
     65          1           0       -7.519637    1.630479   -0.145884
     66          1           0       -4.678488    0.038429   -0.033181
     67          1           0       13.291715   -1.519810    2.268068
     68          1           0       11.874194   -2.385009    1.584849
     69          1           0       13.569290   -2.916005    0.418828
     70          1           0       12.947850   -2.311670   -2.029429
     71          1           0       11.575844   -2.486620   -0.988169
     72          1           0       11.519311   -0.031691    3.496217
     73          1           0       10.331530    1.067758    2.733580
     74          1           0       10.057707   -0.726659    2.579891
     75          1           0       13.673122    0.924661    0.757328
     76          1           0       12.659087    1.962010    1.349123
     77          1           0       13.535572    0.931476    2.501754
     78          1           0       13.047585    0.271720   -2.730101
     79          1           0       11.895515    1.337109   -2.196004
     80          1           0       13.315454    0.779598   -1.226080
     81          1           0       -5.542298    3.148311   -0.517121
     82          1           0       10.048906   -0.122178   -2.306668
     83          1           0       15.186533   -1.470113    0.470981
     84          1           0        8.620646    2.172928   -0.300834
     85          1           0       -2.560434    4.405653    0.791302
     86          1           0       -2.533201    4.679772   -0.983571
     87          1           0       -4.056967    4.824755   -0.454987
     88          1           0       -2.695021    0.789141   -0.178709
     89          1           0        6.687546   -1.762839   -0.301542
     90          1           0        8.339470   -1.683942   -0.470293
     91          1           0        7.716006   -1.549610    1.163709
     92          1           0        6.265409    1.798928   -0.044537
     93          1           0       -0.673636    2.993162   -0.347461
     94          1           0        5.003672   -0.861346   -0.127185
     95          1           0       -0.335870    0.125364   -0.220343
     96          1           0        3.684004    2.256484    0.012891
     97          1           0        1.643726    2.464759   -0.339860
     98          1           0        1.241628   -1.284060   -0.156377
     99          1           0        2.986373   -1.576626   -0.698212
    100          1           0        2.799074   -1.319510    1.068218
 ---------------------------------------------------------------------

 SCF Done:  E(RCAM-B3LYP) =  -1857.28290978     A.U. after   15 cycles

 Excitation energies and oscillator strengths:

 Excited State   1:      Singlet-A      2.3185 eV  534.77 nm  f=3.1613  <S**2>=0.000
     163 ->166         0.14082
     164 ->165         0.69156
 This state for optimization and/or second-order correction.
 Total Energy, E(TD-HF/TD-DFT) =  -1857.19770722
 Copying the excited state density for this state as the 1-particle RhoCI density.

 The electronic state is 1-A.
 Alpha  occ. eigenvalues --  -19.22002 -19.21754 -19.21461 -19.20001 -10.32642
 Alpha  occ. eigenvalues --  -10.32231 -10.31332 -10.29947 -10.29819 -10.29362
 Alpha  occ. eigenvalues --  -10.28710 -10.28096 -10.28081 -10.28052 -10.27895
 Alpha  occ. eigenvalues --  -10.27709 -10.27551 -10.27487 -10.27422 -10.27409
 Alpha  occ. eigenvalues --  -10.27215 -10.27119 -10.27119 -10.26961 -10.26799
 Alpha  occ. eigenvalues --  -10.26714 -10.26673 -10.26358 -10.26013 -10.25826
 Alpha  occ. eigenvalues --  -10.25794 -10.25773 -10.25743 -10.25564 -10.25292
 Alpha  occ. eigenvalues --  -10.25262 -10.25257 -10.25247 -10.24966 -10.24851
 Alpha  occ. eigenvalues --  -10.24818 -10.24283 -10.24178 -10.22109  -1.14465
 Alpha  occ. eigenvalues --   -1.10681  -1.09001  -1.07093  -0.93058  -0.92862
 Alpha  occ. eigenvalues --   -0.91928  -0.90911  -0.90303  -0.89496  -0.87767
 Alpha  occ. eigenvalues --   -0.86703  -0.86121  -0.85258  -0.84647  -0.82979
 Alpha  occ. eigenvalues --   -0.82108  -0.80386  -0.79529  -0.78272  -0.77439
 Alpha  occ. eigenvalues --   -0.76613  -0.76287  -0.76107  -0.75601  -0.75253
 Alpha  occ. eigenvalues --   -0.74909  -0.74820  -0.73363  -0.70517  -0.69654
 Alpha  occ. eigenvalues --   -0.68870  -0.66700  -0.65490  -0.64499  -0.64317
 Alpha  occ. eigenvalues --   -0.64043  -0.63117  -0.61952  -0.60828  -0.59330
 Alpha  occ. eigenvalues --   -0.59069  -0.58555  -0.57981  -0.57562  -0.56751
 Alpha  occ. eigenvalues --   -0.55992  -0.55181  -0.54737  -0.54319  -0.54120
 Alpha  occ. eigenvalues --   -0.53407  -0.52838  -0.52717  -0.52226  -0.51686
 Alpha  occ. eigenvalues --   -0.51076  -0.50394  -0.50016  -0.49440  -0.49040
 Alpha  occ. eigenvalues --   -0.48486  -0.48239  -0.48008  -0.47831  -0.47545
 Alpha  occ. eigenvalues --   -0.47500  -0.47286  -0.47176  -0.46933  -0.46853
 Alpha  occ. eigenvalues --   -0.46505  -0.46265  -0.45760  -0.45497  -0.45099
 Alpha  occ. eigenvalues --   -0.45061  -0.44542  -0.44179  -0.44071  -0.43747
 Alpha  occ. eigenvalues --   -0.43595  -0.42944  -0.42861  -0.42509  -0.42370
 Alpha  occ. eigenvalues --   -0.42079  -0.41824  -0.41606  -0.41239  -0.41161
 Alpha  occ. eigenvalues --   -0.40929  -0.40842  -0.40676  -0.40561  -0.39790
 Alpha  occ. eigenvalues --   -0.39645  -0.39467  -0.39262  -0.39026  -0.38882
 Alpha  occ. eigenvalues --   -0.38702  -0.38369  -0.38234  -0.37893  -0.37086
 Alpha  occ. eigenvalues --   -0.36569  -0.36246  -0.35120  -0.34354  -0.34065
 Alpha  occ. eigenvalues --   -0.32486  -0.31727  -0.31357  -0.30944  -0.30290
 Alpha  occ. eigenvalues --   -0.30211  -0.27710  -0.24686  -0.19780
 Alpha virt. eigenvalues --   -0.05457  -0.00767   0.03203   0.06727   0.07199
 Alpha virt. eigenvalues --    0.07281   0.09222   0.10058   0.10925   0.11602
 Alpha virt. eigenvalues --    0.11861   0.12290   0.12918   0.13073   0.13839

 Mulliken charges:
               1
     1  O   -0.504914
     2  O   -0.545358
     3  O   -0.570188
     4  O   -0.547720
     5  C    0.181961
     6  C    0.212269
     7  C    0.036095
     8  C   -0.207320
     9  C   -0.167063
    10  C    0.153727
    11  C   -0.297566
    12  C   -0.116038
    13  C   -0.333566
    14  C   -0.318399
    15  C   -0.066967
    16  C    0.103296
    17  C   -0.385613
    18  C   -0.092820
    19  C   -0.051952
    20  C    0.033764
    21  C    0.237913
    22  C   -0.188167
    23  C    0.164781
    24  C   -0.179150
    25  C   -0.107344
    26  C   -0.294868
    27  C   -0.320746
    28  C   -0.276098
    29  C   -0.131621
    30  C    0.196201
    31  C    0.067479
    32  C   -0.305657
    33  C   -0.372141
    34  C   -0.087639
    35  C    0.077615
    36  C   -0.357929
    37  C   -0.022303
    38  C   -0.074658
    39  C   -0.116705
    40  C   -0.059888
    41  C   -0.100253
    42  C   -0.152900
    43  C    0.134625
    44  C   -0.371956
    45  H    0.096413
    46  H    0.118110
    47  H    0.108289
    48  H    0.105387
    49  H    0.089119
    50  H    0.089115
    51  H    0.094700
    52  H    0.135499
    53  H    0.096714
    54  H    0.121453
    55  H    0.107395
    56  H    0.100239
    57  H    0.137910
    58  H    0.107296
    59  H    0.068876
    60  H    0.275672
    61  H    0.060401
    62  H    0.124770
    63  H    0.113316
    64  H    0.082854
    65  H    0.081137
    66  H    0.097108
    67  H    0.083863
    68  H    0.103350
    69  H    0.074618
    70  H    0.109730
    71  H    0.121616
    72  H    0.092122
    73  H    0.112435
    74  H    0.076719
    75  H    0.120969
    76  H    0.103015
    77  H    0.083921
    78  H    0.115549
    79  H    0.063272
    80  H    0.117110
    81  H    0.097742
    82  H    0.297345
    83  H    0.310356
    84  H    0.109343
    85  H    0.105787
    86  H    0.129654
    87  H    0.106393
    88  H    0.066128
    89  H    0.105751
    90  H    0.137568
    91  H    0.107888
    92  H    0.030505
    93  H    0.073488
    94  H    0.091267
    95  H    0.065591
    96  H    0.075132
    97  H    0.077987
    98  H    0.112024
    99  H    0.116178
   100  H    0.119588
 Sum of Mulliken charges =  -0.00000

 Dipole moment (field-independent basis, Debye):
    X=              3.9032    Y=             -0.7701    Z=              1.2387  Tot=              4.1669
 Quadrupole moment (field-independent basis, Debye-Ang):
   XX=           -261.1490   YY=           -257.5822   ZZ=           -280.2471
   XY=            -11.8321   XZ=             30.5451   YZ=             -1.3418

 Normal termination of Gaussian 16 at Thu Aug  1 15:54:24 2019.
