 Gaussian 16, Revision A.03,
 Gaussian 16:  ES64L-G16RevA.03 25-Dec-2016

 -------------------------------------
 # td=(NStates=1) CAM-B3LYP/6-31G(d,p)
 -------------------------------------

 --
 TD
 --
 Symbolic Z-matrix:
 Charge =  0 Multiplicity = 1

                         Standard orientation:
 ---------------------------------------------------------------------
 Center     Atomic      Atomic             Coordinates (Angstroms)
 Number     Number       Type             X           Y           Z
 ---------------------------------------------------------------------
      1          8           0      -11.593184   -0.153294   -1.732809
      2          8           0      -13.137619   -2.095964    1.679350
      3          8           0       10.593355   -1.228374   -2.016362
      4          8           0       14.590646   -1.128372    0.005648
      5          6           0      -11.019332   -0.257967   -0.328764
      6          6           0      -11.546444   -1.431949   -1.025293
      7          6           0      -11.854877    0.398894    0.705586
      8          6           0      -12.985308   -1.945991   -0.651712
      9          6           0      -13.212474    0.049845    0.688204
     10          6           0      -13.555602   -1.332556    0.621908
     11          6           0      -10.808437   -2.462894   -1.794929
     12          6           0       -9.498456   -0.034355   -0.369935
     13          6           0      -11.112766    0.149494    2.145897
     14          6           0      -11.799732    2.008590    0.314226
     15          6           0       -8.572146   -0.732003    0.151918
     16          6           0       -7.119676   -0.556109    0.262833
     17          6           0       -6.265406   -1.814572    0.457106
     18          6           0       -6.642593    0.695943    0.029722
     19          6           0       -5.225565    0.900762   -0.014385
     20          6           0       11.901708    0.187768    1.275404
     21          6           0       11.628976   -0.788688   -1.227088
     22          6           0       12.677458   -1.135207    1.638074
     23          6           0       13.358510   -1.796594    0.443458
     24          6           0       12.409341   -1.931895   -0.704561
     25          6           0       11.129451    0.079891   -0.002538
     26          6           0       11.021878    0.449841    2.469181
     27          6           0       12.916506    1.396939    1.153295
     28          6           0       12.678287    0.101731   -2.016989
     29          6           0       -4.725079    2.200086   -0.415535
     30          6           0        9.928702    0.556436   -0.093717
     31          6           0       -3.406619    2.621752   -0.487591
     32          6           0        8.644109    0.971759   -0.282215
     33          6           0       -3.143746    4.099403   -0.655900
     34          6           0       -2.373926    1.700075   -0.262362
     35          6           0        7.442686    0.153698   -0.094977
     36          6           0        7.606371   -1.286020    0.228795
     37          6           0        6.187508    0.781681   -0.263101
     38          6           0       -1.021384    1.876680   -0.271875
     39          6           0        4.968465    0.184601   -0.089831
     40          6           0       -0.085311    0.952110    0.065231
     41          6           0        3.686370    0.835751   -0.295084
     42          6           0        1.357880    1.212486   -0.179364
     43          6           0        2.433948    0.263588   -0.105719
     44          6           0        2.213550   -1.145038    0.297934
     45          1           0      -12.671141   -2.960514   -0.283519
     46          1           0      -13.506743   -1.777776   -1.516882
     47          1           0      -13.591149    0.544538    1.568874
     48          1           0      -13.896567    0.423973   -0.313599
     49          1           0      -14.655680   -1.502190    0.572507
     50          1           0      -10.624679   -3.310476   -1.338886
     51          1           0      -11.206595   -2.644038   -2.737461
     52          1           0       -9.876140   -1.911639   -1.980999
     53          1           0       -9.073612    0.724211   -1.071983
     54          1           0      -10.105689    0.660559    1.869953
     55          1           0      -11.732144    0.697509    2.921959
     56          1           0      -11.058814   -0.877791    2.150830
     57          1           0      -12.029370    2.089714   -0.833322
     58          1           0      -12.311115    2.719477    1.007345
     59          1           0      -10.673033    2.554992    0.440902
     60          1           0      -12.182366   -2.144354    1.718702
     61          1           0       -9.062612   -1.672419    0.580950
     62          1           0       -5.947667   -2.302616   -0.561456
     63          1           0       -5.369074   -1.295442    0.982517
     64          1           0       -6.768946   -2.475195    1.185368
     65          1           0       -7.338825    1.561587   -0.059124
     66          1           0       -4.469823    0.095563    0.238642
     67          1           0       13.343559   -0.725209    2.573499
     68          1           0       11.981363   -1.870089    1.944698
     69          1           0       13.480554   -2.724365    0.765367
     70          1           0       13.060007   -2.303743   -1.615660
     71          1           0       11.705439   -2.784406   -0.695024
     72          1           0       11.635570    0.586817    3.389526
     73          1           0       10.384936    1.402667    2.234214
     74          1           0       10.366915   -0.537881    2.856088
     75          1           0       13.820314    1.111669    0.460164
     76          1           0       12.392231    2.217986    1.068249
     77          1           0       13.352340    1.684392    2.063226
     78          1           0       13.074630   -0.357463   -2.938250
     79          1           0       12.132913    1.147101   -2.322228
     80          1           0       13.541637    0.253689   -1.454686
     81          1           0       -5.484777    2.958753   -0.625366
     82          1           0       10.058312   -0.455763   -2.281049
     83          1           0       15.173619   -1.243270    0.806465
     84          1           0        8.374970    1.966151   -0.708484
     85          1           0       -2.510267    4.488425    0.207573
     86          1           0       -2.421953    4.259565   -1.633796
     87          1           0       -3.908175    4.814382   -1.072170
     88          1           0       -2.740704    0.620388   -0.024761
     89          1           0        6.697310   -2.045102    0.234146
     90          1           0        8.279703   -1.776074   -0.602866
     91          1           0        8.087247   -1.412104    1.267269
     92          1           0        6.135375    1.676461   -0.707482
     93          1           0       -0.813604    2.933893   -0.645363
     94          1           0        4.613769   -0.733025    0.327121
     95          1           0       -0.524440    0.104905    0.946040
     96          1           0        3.844650    1.752570   -0.525828
     97          1           0        1.709607    2.236043   -0.667945
     98          1           0        1.042479   -1.551939   -0.298466
     99          1           0        3.152225   -1.798362    0.165406
    100          1           0        2.187475   -1.314494    1.590588
 ---------------------------------------------------------------------

 SCF Done:  E(RCAM-B3LYP) =  -1857.21937617     A.U. after   15 cycles

 Excitation energies and oscillator strengths:

 Excited State   1:      Singlet-A      1.9245 eV  644.23 nm  f=2.9308  <S**2>=0.000
     163 ->166        -0.12915
     164 ->165         0.69842
     164 <-165        -0.10673
 This state for optimization and/or second-order correction.
 Total Energy, E(TD-HF/TD-DFT) =  -1857.14865048
 Copying the excited state density for this state as the 1-particle RhoCI density.

 The electronic state is 1-A.
 Alpha  occ. eigenvalues --  -19.23094 -19.22059 -19.21328 -19.20973 -10.32319
 Alpha  occ. eigenvalues --  -10.32255 -10.31328 -10.30881 -10.30287 -10.29428
 Alpha  occ. eigenvalues --  -10.28902 -10.28161 -10.28064 -10.28053 -10.28050
 Alpha  occ. eigenvalues --  -10.27929 -10.27880 -10.27877 -10.27869 -10.27845
 Alpha  occ. eigenvalues --  -10.27823 -10.27745 -10.27195 -10.27023 -10.26999
 Alpha  occ. eigenvalues --  -10.26968 -10.26848 -10.26785 -10.26745 -10.26695
 Alpha  occ. eigenvalues --  -10.26606 -10.26562 -10.26399 -10.26200 -10.25896
 Alpha  occ. eigenvalues --  -10.25779 -10.25532 -10.25351 -10.24893 -10.24739
 Alpha  occ. eigenvalues --  -10.24298 -10.24207 -10.23575 -10.23149  -1.12398
 Alpha  occ. eigenvalues --   -1.11697  -1.11460  -1.09355  -0.93362  -0.92709
 Alpha  occ. eigenvalues --   -0.92196  -0.91655  -0.91192  -0.89726  -0.87490
 Alpha  occ. eigenvalues --   -0.87181  -0.86473  -0.85743  -0.85133  -0.83086
 Alpha  occ. eigenvalues --   -0.82392  -0.80965  -0.80208  -0.77524  -0.77241
 Alpha  occ. eigenvalues --   -0.76622  -0.76256  -0.75582  -0.75384  -0.75353
 Alpha  occ. eigenvalues --   -0.75080  -0.74033  -0.72545  -0.71117  -0.70569
 Alpha  occ. eigenvalues --   -0.69009  -0.67144  -0.65434  -0.64930  -0.64358
 Alpha  occ. eigenvalues --   -0.63262  -0.61832  -0.61126  -0.60334  -0.59801
 Alpha  occ. eigenvalues --   -0.59472  -0.58675  -0.58288  -0.57756  -0.56920
 Alpha  occ. eigenvalues --   -0.55899  -0.55783  -0.54874  -0.54406  -0.54207
 Alpha  occ. eigenvalues --   -0.53926  -0.53052  -0.52584  -0.52448  -0.51894
 Alpha  occ. eigenvalues --   -0.51506  -0.51122  -0.50549  -0.50271  -0.49398
 Alpha  occ. eigenvalues --   -0.49206  -0.49087  -0.48927  -0.48650  -0.48390
 Alpha  occ. eigenvalues --   -0.48047  -0.47878  -0.47435  -0.47201  -0.46990
 Alpha  occ. eigenvalues --   -0.46374  -0.46193  -0.45610  -0.45412  -0.45180
 Alpha  occ. eigenvalues --   -0.45067  -0.44411  -0.43969  -0.43904  -0.43560
 Alpha  occ. eigenvalues --   -0.43282  -0.42981  -0.42769  -0.42743  -0.42357
 Alpha  occ. eigenvalues --   -0.41870  -0.41758  -0.41563  -0.41336  -0.40837
 Alpha  occ. eigenvalues --   -0.40756  -0.40450  -0.40143  -0.39824  -0.39371
 Alpha  occ. eigenvalues --   -0.39052  -0.38965  -0.38638  -0.38347  -0.38192
 Alpha  occ. eigenvalues --   -0.38168  -0.37852  -0.37543  -0.37408  -0.37356
 Alpha  occ. eigenvalues --   -0.36727  -0.36142  -0.34874  -0.34241  -0.34055
 Alpha  occ. eigenvalues --   -0.33138  -0.32533  -0.31959  -0.31038  -0.30892
 Alpha  occ. eigenvalues --   -0.30126  -0.28580  -0.23716  -0.18863
 Alpha virt. eigenvalues --   -0.06695  -0.01241   0.03230   0.06491   0.06863
 Alpha virt. eigenvalues --    0.09070   0.09802   0.10146   0.10360   0.10878
 Alpha virt. eigenvalues --    0.11522   0.11985   0.12162   0.12414   0.12940

 Mulliken charges:
               1
     1  O   -0.522789
     2  O   -0.541468
     3  O   -0.562114
     4  O   -0.549558
     5  C    0.206854
     6  C    0.179336
     7  C   -0.018623
     8  C   -0.200260
     9  C   -0.125348
    10  C    0.148643
    11  C   -0.318102
    12  C   -0.127511
    13  C   -0.284664
    14  C   -0.311659
    15  C   -0.051600
    16  C    0.061030
    17  C   -0.347554
    18  C   -0.096639
    19  C   -0.087733
    20  C   -0.002294
    21  C    0.295239
    22  C   -0.187954
    23  C    0.158429
    24  C   -0.232005
    25  C   -0.053508
    26  C   -0.291313
    27  C   -0.301632
    28  C   -0.312333
    29  C   -0.143478
    30  C    0.135529
    31  C    0.130058
    32  C   -0.290789
    33  C   -0.391611
    34  C   -0.110754
    35  C    0.145403
    36  C   -0.376204
    37  C   -0.117625
    38  C   -0.047288
    39  C   -0.062699
    40  C   -0.127780
    41  C   -0.102548
    42  C   -0.140476
    43  C    0.140764
    44  C   -0.348860
    45  H    0.098818
    46  H    0.121498
    47  H    0.096804
    48  H    0.078224
    49  H    0.094783
    50  H    0.110759
    51  H    0.127768
    52  H    0.114553
    53  H    0.096955
    54  H    0.124135
    55  H    0.114958
    56  H    0.078240
    57  H    0.134933
    58  H    0.105576
    59  H    0.054679
    60  H    0.299379
    61  H    0.044551
    62  H    0.128476
    63  H    0.109178
    64  H    0.119838
    65  H    0.105235
    66  H    0.096305
    67  H    0.074932
    68  H    0.102322
    69  H    0.105185
    70  H    0.108669
    71  H    0.119199
    72  H    0.096371
    73  H    0.102972
    74  H    0.074718
    75  H    0.123948
    76  H    0.109370
    77  H    0.090247
    78  H    0.103680
    79  H    0.059655
    80  H    0.144716
    81  H    0.081470
    82  H    0.313193
    83  H    0.312620
    84  H    0.105459
    85  H    0.134733
    86  H    0.094593
    87  H    0.123432
    88  H    0.062909
    89  H    0.100858
    90  H    0.126675
    91  H    0.114351
    92  H    0.076147
    93  H    0.082545
    94  H    0.055276
    95  H    0.089942
    96  H    0.052304
    97  H    0.088140
    98  H    0.092643
    99  H    0.118767
   100  H    0.087798
 Sum of Mulliken charges =  -0.00000

 Dipole moment (field-independent basis, Debye):
    X=              3.5473    Y=             -0.0810    Z=              2.4378  Tot=              4.3049
 Quadrupole moment (field-independent basis, Debye-Ang):
   XX=           -276.3703   YY=           -257.2617   ZZ=           -277.8505
   XY=             -9.0951   XZ=             26.2209   YZ=             -5.0390

 Normal termination of Gaussian 16 at Wed Jul 31 22:15:48 2019.
