 Gaussian 16, Revision A.03,
 Gaussian 16:  ES64L-G16RevA.03 25-Dec-2016

 -------------------------------------
 # td=(NStates=1) CAM-B3LYP/6-31G(d,p)
 -------------------------------------

 --
 TD
 --
 Symbolic Z-matrix:
 Charge =  0 Multiplicity = 1

                         Standard orientation:
 ---------------------------------------------------------------------
 Center     Atomic      Atomic             Coordinates (Angstroms)
 Number     Number       Type             X           Y           Z
 ---------------------------------------------------------------------
      1          8           0      -11.637559    0.191023   -1.481817
      2          8           0      -12.848941   -2.564339    1.236369
      3          8           0       10.636835   -1.025592   -2.201328
      4          8           0       14.477135   -1.089522   -0.231902
      5          6           0      -11.032052   -0.238905   -0.332152
      6          6           0      -11.680581   -1.163137   -1.200293
      7          6           0      -11.856010    0.362833    0.771868
      8          6           0      -13.051933   -1.805023   -1.060867
      9          6           0      -13.304966   -0.138221    0.683924
     10          6           0      -13.469937   -1.566314    0.375279
     11          6           0      -10.667930   -2.028923   -2.129751
     12          6           0       -9.608107    0.175869   -0.336381
     13          6           0      -11.261355    0.119982    2.197812
     14          6           0      -11.830553    1.942982    0.761330
     15          6           0       -8.686686   -0.636693    0.235362
     16          6           0       -7.281548   -0.539040    0.199876
     17          6           0       -6.369010   -1.693169    0.731222
     18          6           0       -6.575200    0.575641   -0.189362
     19          6           0       -5.214002    0.881785   -0.054113
     20          6           0       11.991720    0.027412    1.323111
     21          6           0       11.619417   -0.553941   -1.294604
     22          6           0       12.703291   -1.280489    1.406814
     23          6           0       13.340682   -1.866459    0.135564
     24          6           0       12.435423   -1.800104   -1.044066
     25          6           0       11.045948   -0.005303   -0.030285
     26          6           0       11.082938    0.115955    2.588635
     27          6           0       12.908466    1.219261    1.252978
     28          6           0       12.499258    0.487785   -2.027879
     29          6           0       -4.690785    2.154406   -0.401914
     30          6           0        9.883681    0.497408    0.046373
     31          6           0       -3.338297    2.610377   -0.435943
     32          6           0        8.558816    0.863901   -0.196560
     33          6           0       -3.031450    4.040390   -0.717089
     34          6           0       -2.285291    1.634660   -0.202718
     35          6           0        7.430856    0.119413    0.033899
     36          6           0        7.518691   -1.410832    0.381368
     37          6           0        6.211965    0.834302   -0.094810
     38          6           0       -0.897990    1.887287   -0.058056
     39          6           0        4.914596    0.253633    0.062770
     40          6           0        0.018590    0.867158    0.066034
     41          6           0        3.718011    0.876096   -0.039380
     42          6           0        1.365719    1.262479   -0.012535
     43          6           0        2.419122    0.292608    0.165031
     44          6           0        2.304625   -1.135108    0.558163
     45          1           0      -12.919485   -2.975192   -1.139939
     46          1           0      -13.743328   -1.403318   -1.781059
     47          1           0      -13.827548   -0.167248    1.822251
     48          1           0      -13.920477    0.433854   -0.071844
     49          1           0      -14.730869   -1.745396    0.514367
     50          1           0      -10.452403   -2.943585   -1.496674
     51          1           0      -11.316355   -2.236571   -3.040629
     52          1           0       -9.824041   -1.401043   -2.447683
     53          1           0       -9.275060    0.903419   -0.931892
     54          1           0      -10.182321    0.579678    2.012947
     55          1           0      -11.818358    0.837166    2.838210
     56          1           0      -11.185907   -0.901388    2.609966
     57          1           0      -12.116338    2.218194   -0.291510
     58          1           0      -12.492733    2.351504    1.433301
     59          1           0      -10.693874    1.971064    1.049255
     60          1           0      -11.846838   -2.710967    0.928808
     61          1           0       -8.890966   -1.573093    0.731111
     62          1           0       -5.691816   -2.269254   -0.055429
     63          1           0       -5.603889   -1.451210    1.863693
     64          1           0       -7.109315   -2.705655    1.077360
     65          1           0       -7.058494    1.403460   -0.665310
     66          1           0       -4.506842    0.045112    0.416535
     67          1           0       13.617872   -1.215297    2.187672
     68          1           0       12.133255   -1.817509    1.926607
     69          1           0       13.667604   -2.834435    0.354443
     70          1           0       12.931517   -2.066874   -2.047105
     71          1           0       11.627976   -2.592508   -1.010243
     72          1           0       11.744736    0.211106    3.433160
     73          1           0       10.490363    1.071220    2.531126
     74          1           0       10.428924   -0.759990    2.490446
     75          1           0       13.626194    1.068136    0.360343
     76          1           0       12.240904    2.165120    1.327804
     77          1           0       13.701717    1.195959    2.055273
     78          1           0       12.779242    0.326265   -3.123610
     79          1           0       11.919285    1.374852   -2.052371
     80          1           0       13.531061    0.681884   -1.690169
     81          1           0       -5.306442    2.923302   -0.562984
     82          1           0       10.005041   -0.196026   -2.327553
     83          1           0       15.351491   -1.308316    0.397111
     84          1           0        8.343178    1.873956   -0.432458
     85          1           0       -2.384084    4.631125   -0.037908
     86          1           0       -2.477052    4.101873   -1.643082
     87          1           0       -4.025198    4.569466   -1.076701
     88          1           0       -2.502493    0.540046   -0.314242
     89          1           0        6.682346   -2.071874    0.112511
     90          1           0        8.340569   -1.843056   -0.369596
     91          1           0        7.888456   -1.375847    1.363181
     92          1           0        6.411647    1.832382   -0.427871
     93          1           0       -0.520249    2.845591   -0.122637
     94          1           0        4.833104   -0.756097    0.469031
     95          1           0       -0.225329   -0.218683    0.266256
     96          1           0        3.821176    2.007888   -0.465327
     97          1           0        1.703861    2.284464   -0.231583
     98          1           0        1.335467   -1.316692    0.724706
     99          1           0        2.680341   -1.897099   -0.262063
    100          1           0        2.762216   -1.238210    1.539470
 ---------------------------------------------------------------------

 SCF Done:  E(RCAM-B3LYP) =  -1857.29555090     A.U. after   16 cycles

 Excitation energies and oscillator strengths:

 Excited State   1:      Singlet-A      1.9126 eV  648.24 nm  f=3.1028  <S**2>=0.000
     163 ->166        -0.13580
     164 ->165         0.69687
     164 <-165        -0.10323
 This state for optimization and/or second-order correction.
 Total Energy, E(TD-HF/TD-DFT) =  -1857.22526302
 Copying the excited state density for this state as the 1-particle RhoCI density.

 The electronic state is 1-A.
 Alpha  occ. eigenvalues --  -19.22462 -19.22240 -19.21905 -19.21628 -10.32245
 Alpha  occ. eigenvalues --  -10.31684 -10.31561 -10.30848 -10.30771 -10.30755
 Alpha  occ. eigenvalues --  -10.28453 -10.28156 -10.27921 -10.27819 -10.27588
 Alpha  occ. eigenvalues --  -10.27457 -10.27422 -10.27388 -10.27267 -10.27240
 Alpha  occ. eigenvalues --  -10.27178 -10.26980 -10.26903 -10.26790 -10.26600
 Alpha  occ. eigenvalues --  -10.26524 -10.26499 -10.26489 -10.26474 -10.26442
 Alpha  occ. eigenvalues --  -10.26284 -10.26224 -10.26134 -10.26003 -10.25993
 Alpha  occ. eigenvalues --  -10.25699 -10.25195 -10.25063 -10.24995 -10.24902
 Alpha  occ. eigenvalues --  -10.24527 -10.24275 -10.24002 -10.23662  -1.19791
 Alpha  occ. eigenvalues --   -1.09159  -1.08121  -1.07236  -0.92935  -0.92407
 Alpha  occ. eigenvalues --   -0.91845  -0.91238  -0.90479  -0.89826  -0.87943
 Alpha  occ. eigenvalues --   -0.86904  -0.86012  -0.85419  -0.84849  -0.83255
 Alpha  occ. eigenvalues --   -0.81403  -0.79973  -0.79851  -0.79276  -0.77353
 Alpha  occ. eigenvalues --   -0.76473  -0.76190  -0.75640  -0.75582  -0.75356
 Alpha  occ. eigenvalues --   -0.73785  -0.73093  -0.72803  -0.70504  -0.70292
 Alpha  occ. eigenvalues --   -0.68334  -0.66571  -0.65363  -0.64678  -0.64227
 Alpha  occ. eigenvalues --   -0.63660  -0.62588  -0.60935  -0.60168  -0.58994
 Alpha  occ. eigenvalues --   -0.58649  -0.58511  -0.57871  -0.57260  -0.56327
 Alpha  occ. eigenvalues --   -0.55883  -0.55677  -0.54881  -0.54539  -0.54180
 Alpha  occ. eigenvalues --   -0.53746  -0.52957  -0.52676  -0.52286  -0.52078
 Alpha  occ. eigenvalues --   -0.51657  -0.50785  -0.50347  -0.50249  -0.49962
 Alpha  occ. eigenvalues --   -0.49689  -0.49335  -0.48902  -0.48726  -0.48342
 Alpha  occ. eigenvalues --   -0.47915  -0.47682  -0.47189  -0.46960  -0.46665
 Alpha  occ. eigenvalues --   -0.46230  -0.46001  -0.45959  -0.45183  -0.44816
 Alpha  occ. eigenvalues --   -0.44756  -0.44465  -0.44192  -0.43873  -0.43655
 Alpha  occ. eigenvalues --   -0.43504  -0.43185  -0.42931  -0.42710  -0.42183
 Alpha  occ. eigenvalues --   -0.41536  -0.41130  -0.41046  -0.40496  -0.40475
 Alpha  occ. eigenvalues --   -0.40371  -0.40223  -0.40106  -0.39697  -0.39574
 Alpha  occ. eigenvalues --   -0.39551  -0.39432  -0.39333  -0.38961  -0.38498
 Alpha  occ. eigenvalues --   -0.38438  -0.38181  -0.37904  -0.37445  -0.37074
 Alpha  occ. eigenvalues --   -0.36744  -0.35502  -0.34969  -0.34683  -0.33468
 Alpha  occ. eigenvalues --   -0.32807  -0.32480  -0.31758  -0.31446  -0.31261
 Alpha  occ. eigenvalues --   -0.30879  -0.27471  -0.23632  -0.19199
 Alpha virt. eigenvalues --   -0.06949  -0.01739   0.02242   0.06258   0.07298
 Alpha virt. eigenvalues --    0.08358   0.08491   0.09788   0.10951   0.11614
 Alpha virt. eigenvalues --    0.11793   0.12703   0.12756   0.13226   0.13786

 Mulliken charges:
               1
     1  O   -0.479522
     2  O   -0.560868
     3  O   -0.568088
     4  O   -0.557167
     5  C    0.227717
     6  C    0.196274
     7  C    0.005603
     8  C   -0.212887
     9  C   -0.169077
    10  C    0.173853
    11  C   -0.314002
    12  C   -0.137694
    13  C   -0.300340
    14  C   -0.293902
    15  C   -0.032808
    16  C    0.069809
    17  C   -0.334133
    18  C   -0.098949
    19  C   -0.066328
    20  C    0.002339
    21  C    0.249872
    22  C   -0.142179
    23  C    0.158958
    24  C   -0.191501
    25  C   -0.049596
    26  C   -0.309836
    27  C   -0.287493
    28  C   -0.315313
    29  C   -0.107498
    30  C    0.069506
    31  C    0.086388
    32  C   -0.256697
    33  C   -0.391139
    34  C   -0.125782
    35  C    0.144418
    36  C   -0.371167
    37  C   -0.123960
    38  C   -0.075288
    39  C   -0.103440
    40  C   -0.077602
    41  C   -0.101277
    42  C   -0.115380
    43  C    0.081836
    44  C   -0.362642
    45  H    0.101060
    46  H    0.128199
    47  H    0.076653
    48  H    0.103248
    49  H    0.057448
    50  H    0.093383
    51  H    0.104811
    52  H    0.124060
    53  H    0.105259
    54  H    0.086795
    55  H    0.100778
    56  H    0.099709
    57  H    0.109600
    58  H    0.115524
    59  H    0.088968
    60  H    0.306033
    61  H    0.069975
    62  H    0.120947
    63  H    0.073866
    64  H    0.056998
    65  H    0.078466
    66  H    0.084601
    67  H    0.049009
    68  H    0.096774
    69  H    0.087854
    70  H    0.111921
    71  H    0.107819
    72  H    0.106531
    73  H    0.103631
    74  H    0.107172
    75  H    0.124788
    76  H    0.089524
    77  H    0.082809
    78  H    0.098511
    79  H    0.088695
    80  H    0.135705
    81  H    0.073422
    82  H    0.305211
    83  H    0.305661
    84  H    0.105047
    85  H    0.130248
    86  H    0.135148
    87  H    0.100163
    88  H    0.088274
    89  H    0.121432
    90  H    0.118405
    91  H    0.137177
    92  H    0.078139
    93  H    0.081151
    94  H    0.080974
    95  H    0.098678
    96  H    0.063486
    97  H    0.096317
    98  H    0.113550
    99  H    0.120679
   100  H    0.136693
 Sum of Mulliken charges =  -0.00000

 Dipole moment (field-independent basis, Debye):
    X=              5.2993    Y=             -0.3201    Z=              0.6399  Tot=              5.3474
 Quadrupole moment (field-independent basis, Debye-Ang):
   XX=           -282.1964   YY=           -259.9437   ZZ=           -280.3916
   XY=            -11.6612   XZ=             39.5279   YZ=             -5.3130

 Normal termination of Gaussian 16 at Sun Jul 28 23:25:14 2019.
