 Gaussian 16, Revision A.03,
 Gaussian 16:  ES64L-G16RevA.03 25-Dec-2016

 -------------------------------------
 # td=(NStates=1) CAM-B3LYP/6-31G(d,p)
 -------------------------------------

 --
 TD
 --
 Symbolic Z-matrix:
 Charge =  0 Multiplicity = 1

                         Standard orientation:
 ---------------------------------------------------------------------
 Center     Atomic      Atomic             Coordinates (Angstroms)
 Number     Number       Type             X           Y           Z
 ---------------------------------------------------------------------
      1          8           0      -11.786924    0.216737   -1.470443
      2          8           0      -13.217775   -2.376791    1.483604
      3          8           0       10.759481   -1.032106   -2.084963
      4          8           0       14.499099   -0.947672   -0.004543
      5          6           0      -11.092955   -0.160455   -0.332518
      6          6           0      -11.668887   -1.252473   -1.241641
      7          6           0      -11.733175    0.438913    0.902823
      8          6           0      -13.089343   -1.714116   -0.933563
      9          6           0      -13.191764    0.122094    0.948873
     10          6           0      -13.664978   -1.426399    0.497317
     11          6           0      -10.910660   -1.956034   -2.340832
     12          6           0       -9.613244    0.130999   -0.357690
     13          6           0      -11.009868   -0.117754    2.168889
     14          6           0      -11.594778    1.891044    0.939239
     15          6           0       -8.668446   -0.803906    0.060897
     16          6           0       -7.264278   -0.576596    0.086033
     17          6           0       -6.336561   -1.765512    0.615451
     18          6           0       -6.626817    0.642062   -0.109688
     19          6           0       -5.210568    0.798678   -0.068032
     20          6           0       11.926246    0.136308    1.502686
     21          6           0       11.798215   -0.617012   -1.279739
     22          6           0       12.606509   -1.292524    1.598479
     23          6           0       13.440729   -1.772966    0.397792
     24          6           0       12.556650   -1.879084   -0.887734
     25          6           0       11.058545    0.006624    0.026783
     26          6           0       10.937678    0.315559    2.649448
     27          6           0       12.927322    1.298489    1.344518
     28          6           0       12.657315    0.362516   -2.000551
     29          6           0       -4.728644    2.065571   -0.378392
     30          6           0        9.866244    0.396441   -0.072868
     31          6           0       -3.426863    2.438146   -0.485781
     32          6           0        8.612507    0.920406   -0.247434
     33          6           0       -2.926155    3.838190   -0.800588
     34          6           0       -2.305967    1.538452   -0.323227
     35          6           0        7.463992    0.078770   -0.207950
     36          6           0        7.685020   -1.341221    0.118289
     37          6           0        6.209128    0.660325   -0.328027
     38          6           0       -0.949913    1.898102   -0.285641
     39          6           0        4.955451    0.155702   -0.068482
     40          6           0        0.045126    0.963929   -0.057428
     41          6           0        3.740385    0.832755   -0.260513
     42          6           0        1.425066    1.176031   -0.057792
     43          6           0        2.427791    0.288305   -0.019657
     44          6           0        2.325494   -1.168394    0.378534
     45          1           0      -13.222059   -2.850186   -0.953903
     46          1           0      -13.974313   -1.063355   -1.386101
     47          1           0      -13.652027    0.419128    1.884862
     48          1           0      -13.898932    0.819472    0.342685
     49          1           0      -14.750759   -1.059899    0.385922
     50          1           0      -10.721394   -2.856188   -1.807894
     51          1           0      -11.520587   -2.179933   -3.082155
     52          1           0      -10.030225   -1.439498   -2.529500
     53          1           0       -9.611203    0.976083   -0.774048
     54          1           0       -9.935924    0.220253    2.341379
     55          1           0      -11.651328   -0.102452    3.106369
     56          1           0      -10.933832   -1.099419    2.256152
     57          1           0      -12.038430    2.327221    0.100337
     58          1           0      -12.229828    2.236546    2.054638
     59          1           0      -10.628190    2.245124    1.086035
     60          1           0      -12.242542   -2.425603    1.377353
     61          1           0       -9.420729   -1.798544    0.460469
     62          1           0       -5.811542   -2.052550   -0.319019
     63          1           0       -5.828244   -1.358932    1.440999
     64          1           0       -6.939765   -2.613999    0.916694
     65          1           0       -7.314619    1.474193   -0.520596
     66          1           0       -4.556473   -0.043918    0.083429
     67          1           0       13.352551   -1.001826    2.407894
     68          1           0       11.932079   -1.968302    1.711823
     69          1           0       14.007930   -2.729243    0.587370
     70          1           0       13.293877   -2.216364   -1.571963
     71          1           0       11.778186   -2.740727   -0.738252
     72          1           0       11.480642    0.492675    3.579441
     73          1           0       10.319571    1.272471    2.427790
     74          1           0       10.070048   -0.311044    2.597727
     75          1           0       13.604227    1.125179    0.663443
     76          1           0       12.394341    2.372266    1.290942
     77          1           0       13.381738    1.377444    2.314546
     78          1           0       12.806150    0.099372   -3.218150
     79          1           0       12.312878    1.501697   -1.830446
     80          1           0       13.649867    0.056429   -1.570298
     81          1           0       -5.559153    2.963056   -0.680210
     82          1           0        9.928500   -0.467427   -2.085359
     83          1           0       15.144446   -0.733326    0.533614
     84          1           0        8.598471    2.080245   -0.790718
     85          1           0       -2.344887    4.099968   -0.027325
     86          1           0       -2.143822    3.892334   -1.661072
     87          1           0       -3.808085    4.488263   -1.008292
     88          1           0       -2.581867    0.431379   -0.053184
     89          1           0        6.742610   -1.886130   -0.416444
     90          1           0        8.601465   -1.722353   -0.379809
     91          1           0        7.925503   -1.750728    1.094281
     92          1           0        6.399866    1.830635   -0.484029
     93          1           0       -0.777782    2.883332   -0.399681
     94          1           0        4.851870   -0.886546    0.253324
     95          1           0       -0.247993    0.041362    0.397835
     96          1           0        3.869526    1.922030   -0.563811
     97          1           0        1.602173    2.145794   -0.235893
     98          1           0        1.174985   -1.422357    0.859767
     99          1           0        2.361295   -1.810651   -0.568700
    100          1           0        2.851402   -1.383586    1.168786
 ---------------------------------------------------------------------

 SCF Done:  E(RCAM-B3LYP) =  -1857.18448640     A.U. after   15 cycles

 Excitation energies and oscillator strengths:

 Excited State   1:      Singlet-A      1.9402 eV  639.02 nm  f=3.1924  <S**2>=0.000
     163 ->166         0.13442
     164 ->165         0.69826
     164 <-165        -0.10617
 This state for optimization and/or second-order correction.
 Total Energy, E(TD-HF/TD-DFT) =  -1857.11318430
 Copying the excited state density for this state as the 1-particle RhoCI density.

 The electronic state is 1-A.
 Alpha  occ. eigenvalues --  -19.21768 -19.21406 -19.21147 -19.19389 -10.32575
 Alpha  occ. eigenvalues --  -10.32111 -10.32104 -10.32025 -10.31522 -10.29742
 Alpha  occ. eigenvalues --  -10.29331 -10.29062 -10.27979 -10.27834 -10.27775
 Alpha  occ. eigenvalues --  -10.27760 -10.27280 -10.27252 -10.27196 -10.27157
 Alpha  occ. eigenvalues --  -10.27052 -10.27007 -10.26975 -10.26753 -10.26717
 Alpha  occ. eigenvalues --  -10.26619 -10.26502 -10.26426 -10.26188 -10.26106
 Alpha  occ. eigenvalues --  -10.25964 -10.25618 -10.25610 -10.25514 -10.25449
 Alpha  occ. eigenvalues --  -10.25365 -10.25167 -10.25138 -10.24983 -10.24932
 Alpha  occ. eigenvalues --  -10.24828 -10.24775 -10.24069 -10.24006  -1.14701
 Alpha  occ. eigenvalues --   -1.13090  -1.09187  -1.08719  -0.92781  -0.92190
 Alpha  occ. eigenvalues --   -0.91845  -0.91528  -0.90939  -0.90020  -0.87545
 Alpha  occ. eigenvalues --   -0.86465  -0.86268  -0.85696  -0.84753  -0.83208
 Alpha  occ. eigenvalues --   -0.82340  -0.81258  -0.80782  -0.79045  -0.77281
 Alpha  occ. eigenvalues --   -0.77170  -0.76490  -0.76476  -0.76297  -0.75559
 Alpha  occ. eigenvalues --   -0.75455  -0.74572  -0.72628  -0.70698  -0.70532
 Alpha  occ. eigenvalues --   -0.68931  -0.67019  -0.65409  -0.64710  -0.64176
 Alpha  occ. eigenvalues --   -0.63781  -0.63142  -0.61637  -0.59667  -0.59570
 Alpha  occ. eigenvalues --   -0.58717  -0.58613  -0.58194  -0.57684  -0.56561
 Alpha  occ. eigenvalues --   -0.55851  -0.55415  -0.55081  -0.54986  -0.54384
 Alpha  occ. eigenvalues --   -0.54210  -0.53580  -0.52542  -0.52054  -0.51704
 Alpha  occ. eigenvalues --   -0.51522  -0.51325  -0.51083  -0.50596  -0.50473
 Alpha  occ. eigenvalues --   -0.50376  -0.49819  -0.49358  -0.49112  -0.48670
 Alpha  occ. eigenvalues --   -0.48200  -0.47904  -0.47801  -0.47744  -0.47437
 Alpha  occ. eigenvalues --   -0.46861  -0.46253  -0.45559  -0.45268  -0.45168
 Alpha  occ. eigenvalues --   -0.44919  -0.44578  -0.44180  -0.43721  -0.43315
 Alpha  occ. eigenvalues --   -0.43260  -0.43070  -0.42788  -0.42590  -0.42496
 Alpha  occ. eigenvalues --   -0.42259  -0.42103  -0.41731  -0.41490  -0.41100
 Alpha  occ. eigenvalues --   -0.40373  -0.40362  -0.40253  -0.39972  -0.39856
 Alpha  occ. eigenvalues --   -0.39624  -0.39310  -0.39071  -0.38754  -0.38397
 Alpha  occ. eigenvalues --   -0.37782  -0.37655  -0.37558  -0.37382  -0.36392
 Alpha  occ. eigenvalues --   -0.36103  -0.35750  -0.35313  -0.34344  -0.33658
 Alpha  occ. eigenvalues --   -0.33284  -0.31852  -0.31155  -0.30987  -0.30498
 Alpha  occ. eigenvalues --   -0.29853  -0.27787  -0.23609  -0.19156
 Alpha virt. eigenvalues --   -0.06844  -0.01601   0.02523   0.06267   0.07095
 Alpha virt. eigenvalues --    0.08233   0.09586   0.10291   0.10836   0.11758
 Alpha virt. eigenvalues --    0.12430   0.12646   0.12780   0.13201   0.14021

 Mulliken charges:
               1
     1  O   -0.515504
     2  O   -0.546669
     3  O   -0.584400
     4  O   -0.524769
     5  C    0.182737
     6  C    0.180730
     7  C    0.054376
     8  C   -0.195608
     9  C   -0.210985
    10  C    0.119904
    11  C   -0.301218
    12  C   -0.042187
    13  C   -0.314327
    14  C   -0.283104
    15  C   -0.101525
    16  C    0.023612
    17  C   -0.365567
    18  C   -0.092226
    19  C   -0.073497
    20  C    0.022292
    21  C    0.335331
    22  C   -0.150876
    23  C    0.150418
    24  C   -0.209051
    25  C   -0.186684
    26  C   -0.318239
    27  C   -0.299568
    28  C   -0.319149
    29  C   -0.124803
    30  C    0.150610
    31  C    0.092132
    32  C   -0.253510
    33  C   -0.378833
    34  C   -0.115591
    35  C    0.118121
    36  C   -0.378572
    37  C   -0.096385
    38  C   -0.061593
    39  C   -0.103828
    40  C   -0.091277
    41  C   -0.112394
    42  C   -0.103370
    43  C    0.112293
    44  C   -0.359230
    45  H    0.098854
    46  H    0.111680
    47  H    0.101013
    48  H    0.077281
    49  H    0.113572
    50  H    0.105754
    51  H    0.133038
    52  H    0.131854
    53  H    0.084372
    54  H    0.110062
    55  H    0.097385
    56  H    0.082894
    57  H    0.124942
    58  H    0.055255
    59  H    0.108768
    60  H    0.313828
    61  H    0.067100
    62  H    0.128105
    63  H    0.136309
    64  H    0.108093
    65  H    0.086120
    66  H    0.109952
    67  H    0.073318
    68  H    0.107222
    69  H    0.080323
    70  H    0.120065
    71  H    0.100790
    72  H    0.105529
    73  H    0.101676
    74  H    0.118184
    75  H    0.129749
    76  H    0.094060
    77  H    0.092590
    78  H    0.087330
    79  H    0.086120
    80  H    0.144883
    81  H    0.071323
    82  H    0.311369
    83  H    0.286478
    84  H    0.097727
    85  H    0.145256
    86  H    0.115037
    87  H    0.100255
    88  H    0.061996
    89  H    0.093719
    90  H    0.121572
    91  H    0.128258
    92  H    0.069337
    93  H    0.074523
    94  H    0.086645
    95  H    0.077693
    96  H    0.083675
    97  H    0.069943
    98  H    0.071440
    99  H    0.132518
   100  H    0.145151
 Sum of Mulliken charges =  -0.00000

 Dipole moment (field-independent basis, Debye):
    X=              4.6069    Y=             -0.2822    Z=              2.3495  Tot=              5.1792
 Quadrupole moment (field-independent basis, Debye-Ang):
   XX=           -269.2555   YY=           -261.7562   ZZ=           -280.4002
   XY=             -1.1518   XZ=             40.0248   YZ=             -2.2184

 Normal termination of Gaussian 16 at Thu Aug  1 05:24:18 2019.
