 Gaussian 16, Revision A.03,
 Gaussian 16:  ES64L-G16RevA.03 25-Dec-2016

 -------------------------------------
 # td=(NStates=1) CAM-B3LYP/6-31G(d,p)
 -------------------------------------

 --
 TD
 --
 Symbolic Z-matrix:
 Charge =  0 Multiplicity = 1

                         Standard orientation:
 ---------------------------------------------------------------------
 Center     Atomic      Atomic             Coordinates (Angstroms)
 Number     Number       Type             X           Y           Z
 ---------------------------------------------------------------------
      1          8           0      -11.628032   -0.035973   -1.550059
      2          8           0      -12.851217   -2.337868    1.550714
      3          8           0       10.662994   -1.306713   -1.977458
      4          8           0       14.533773   -0.996434    0.177057
      5          6           0      -11.101587   -0.201628   -0.279320
      6          6           0      -11.648917   -1.364145   -1.082900
      7          6           0      -11.822986    0.510971    0.855780
      8          6           0      -13.127017   -1.857150   -0.797188
      9          6           0      -13.316759    0.030140    0.928771
     10          6           0      -13.502545   -1.434041    0.585529
     11          6           0      -10.715870   -2.360658   -1.931216
     12          6           0       -9.645441    0.027239   -0.381289
     13          6           0      -11.186407    0.116148    2.233218
     14          6           0      -11.901523    1.911627    0.601807
     15          6           0       -8.620784   -0.762324    0.229659
     16          6           0       -7.284874   -0.580797    0.140531
     17          6           0       -6.265644   -1.636564    0.451918
     18          6           0       -6.716567    0.693050   -0.205653
     19          6           0       -5.364665    0.928318   -0.225472
     20          6           0       11.850286    0.277819    1.280999
     21          6           0       11.740919   -0.770225   -1.104740
     22          6           0       12.626641   -1.001978    1.655638
     23          6           0       13.342246   -1.772603    0.685194
     24          6           0       12.440670   -2.007088   -0.507529
     25          6           0       11.058049    0.071995    0.003876
     26          6           0       10.910939    0.621128    2.389031
     27          6           0       12.912823    1.364449    1.079672
     28          6           0       12.625114   -0.045258   -2.004561
     29          6           0       -4.760888    2.298149   -0.319228
     30          6           0        9.876433    0.439103   -0.129541
     31          6           0       -3.384906    2.495287   -0.521543
     32          6           0        8.700687    0.866368   -0.369137
     33          6           0       -2.993580    3.897924   -0.868445
     34          6           0       -2.414587    1.582525   -0.207781
     35          6           0        7.472061    0.071636   -0.240589
     36          6           0        7.689962   -1.301489    0.278449
     37          6           0        6.280382    0.725034   -0.389591
     38          6           0       -0.959161    1.854731   -0.324118
     39          6           0        4.989956    0.115933   -0.175366
     40          6           0        0.054811    1.058754   -0.029898
     41          6           0        3.806173    0.806327   -0.434011
     42          6           0        1.428849    1.227744   -0.229077
     43          6           0        2.545185    0.392802   -0.094486
     44          6           0        2.300407   -1.063273    0.243572
     45          1           0      -13.411049   -2.791435   -1.029824
     46          1           0      -13.665246   -1.255365   -1.598803
     47          1           0      -13.762040    0.256359    1.907714
     48          1           0      -14.089304    0.558290    0.319743
     49          1           0      -14.507039   -1.736204    0.704735
     50          1           0      -10.583480   -3.110446   -1.210896
     51          1           0      -11.201193   -2.610354   -2.902596
     52          1           0       -9.791105   -1.791976   -2.015529
     53          1           0       -9.328863    0.768214   -1.245135
     54          1           0      -10.004550    0.328433    2.103294
     55          1           0      -11.762670    0.710767    2.967198
     56          1           0      -11.645162   -0.860140    2.521079
     57          1           0      -12.406533    2.274842   -0.310861
     58          1           0      -12.401093    2.315571    1.607887
     59          1           0      -10.908265    2.256740    0.703519
     60          1           0      -11.888998   -2.036759    1.489224
     61          1           0       -9.100111   -1.760193    0.613054
     62          1           0       -5.909377   -2.090155   -0.561448
     63          1           0       -5.474379   -1.402520    1.335763
     64          1           0       -6.911856   -2.361783    1.054794
     65          1           0       -7.327465    1.723779   -0.244419
     66          1           0       -4.507941    0.214281    0.050827
     67          1           0       13.388657   -0.693635    2.555324
     68          1           0       11.912110   -1.530554    2.375655
     69          1           0       13.571275   -2.873597    0.914886
     70          1           0       13.114915   -2.540729   -1.352864
     71          1           0       11.653575   -2.741067   -0.161201
     72          1           0       11.274814    0.892243    3.321166
     73          1           0       10.125986    1.618818    2.114577
     74          1           0       10.126439   -0.232124    2.446640
     75          1           0       13.827776    1.090352    0.532586
     76          1           0       12.632395    2.476036    0.647536
     77          1           0       13.338800    1.616168    2.154663
     78          1           0       13.212234   -0.727463   -2.751492
     79          1           0       12.025482    0.725008   -2.604429
     80          1           0       13.397151    0.354731   -1.315211
     81          1           0       -5.335908    3.292580   -0.632820
     82          1           0       10.013760   -0.636415   -2.448869
     83          1           0       15.202559   -1.135983    1.020287
     84          1           0        8.618856    1.905587   -0.742002
     85          1           0       -2.610147    4.374099    0.112129
     86          1           0       -2.012751    4.030962   -1.575658
     87          1           0       -3.830436    4.587719   -1.053307
     88          1           0       -2.478116    0.570693    0.049989
     89          1           0        6.734595   -1.996752    0.424450
     90          1           0        8.177915   -1.857300   -0.575097
     91          1           0        8.344930   -1.416298    1.258273
     92          1           0        6.314946    1.690148   -0.768634
     93          1           0       -0.739477    2.877927   -0.511722
     94          1           0        5.093462   -1.084813    0.060380
     95          1           0       -0.182424   -0.089511    0.098162
     96          1           0        3.833683    1.819809   -0.679722
     97          1           0        1.674854    2.267622   -0.418217
     98          1           0        1.285315   -1.297829    0.494460
     99          1           0        2.670667   -1.633471   -0.732256
    100          1           0        2.962335   -1.242894    1.135195
 ---------------------------------------------------------------------

 SCF Done:  E(RCAM-B3LYP) =  -1857.29832937     A.U. after   16 cycles

 Excitation energies and oscillator strengths:

 Excited State   1:      Singlet-A      1.9455 eV  637.27 nm  f=2.7621  <S**2>=0.000
     163 ->166         0.13222
     164 ->165         0.69929
     164 <-165        -0.11221
 This state for optimization and/or second-order correction.
 Total Energy, E(TD-HF/TD-DFT) =  -1857.22683175
 Copying the excited state density for this state as the 1-particle RhoCI density.

 The electronic state is 1-A.
 Alpha  occ. eigenvalues --  -19.23779 -19.22186 -19.21007 -19.19672 -10.32791
 Alpha  occ. eigenvalues --  -10.32405 -10.31894 -10.31837 -10.29653 -10.28644
 Alpha  occ. eigenvalues --  -10.28239 -10.28025 -10.28004 -10.27956 -10.27919
 Alpha  occ. eigenvalues --  -10.27813 -10.27801 -10.27786 -10.27591 -10.27577
 Alpha  occ. eigenvalues --  -10.27461 -10.27244 -10.27224 -10.27169 -10.26915
 Alpha  occ. eigenvalues --  -10.26857 -10.26503 -10.26428 -10.26248 -10.26209
 Alpha  occ. eigenvalues --  -10.26011 -10.26006 -10.25935 -10.25911 -10.25776
 Alpha  occ. eigenvalues --  -10.25754 -10.25619 -10.25566 -10.25352 -10.25346
 Alpha  occ. eigenvalues --  -10.25245 -10.25080 -10.24538 -10.24521  -1.17614
 Alpha  occ. eigenvalues --   -1.07576  -1.07494  -1.05414  -0.94188  -0.92430
 Alpha  occ. eigenvalues --   -0.92217  -0.91799  -0.91206  -0.90622  -0.87578
 Alpha  occ. eigenvalues --   -0.86782  -0.86341  -0.85939  -0.84502  -0.83240
 Alpha  occ. eigenvalues --   -0.81627  -0.80819  -0.80244  -0.78086  -0.77025
 Alpha  occ. eigenvalues --   -0.76985  -0.76295  -0.76261  -0.75838  -0.75362
 Alpha  occ. eigenvalues --   -0.74826  -0.74800  -0.73045  -0.70055  -0.69538
 Alpha  occ. eigenvalues --   -0.68172  -0.66914  -0.64812  -0.64623  -0.64502
 Alpha  occ. eigenvalues --   -0.62624  -0.61326  -0.60661  -0.59878  -0.59402
 Alpha  occ. eigenvalues --   -0.58005  -0.57807  -0.57656  -0.57341  -0.56680
 Alpha  occ. eigenvalues --   -0.55428  -0.55231  -0.55103  -0.54943  -0.54383
 Alpha  occ. eigenvalues --   -0.53249  -0.52877  -0.52515  -0.52194  -0.51299
 Alpha  occ. eigenvalues --   -0.51015  -0.50808  -0.50714  -0.49807  -0.49711
 Alpha  occ. eigenvalues --   -0.49005  -0.48566  -0.48489  -0.48331  -0.48193
 Alpha  occ. eigenvalues --   -0.48112  -0.47625  -0.47469  -0.47165  -0.46924
 Alpha  occ. eigenvalues --   -0.46601  -0.46319  -0.45982  -0.45793  -0.45609
 Alpha  occ. eigenvalues --   -0.45359  -0.45023  -0.44630  -0.43971  -0.43803
 Alpha  occ. eigenvalues --   -0.42896  -0.42705  -0.42634  -0.42572  -0.42269
 Alpha  occ. eigenvalues --   -0.42069  -0.41750  -0.41242  -0.41207  -0.40853
 Alpha  occ. eigenvalues --   -0.40594  -0.40289  -0.40048  -0.39898  -0.39732
 Alpha  occ. eigenvalues --   -0.39185  -0.39048  -0.38810  -0.38224  -0.37872
 Alpha  occ. eigenvalues --   -0.37743  -0.37558  -0.37361  -0.37250  -0.36973
 Alpha  occ. eigenvalues --   -0.36042  -0.35818  -0.35137  -0.34592  -0.34150
 Alpha  occ. eigenvalues --   -0.33783  -0.32296  -0.31765  -0.31553  -0.31086
 Alpha  occ. eigenvalues --   -0.30474  -0.28200  -0.23475  -0.19290
 Alpha virt. eigenvalues --   -0.06866  -0.02034   0.03399   0.06382   0.07900
 Alpha virt. eigenvalues --    0.08273   0.10105   0.10738   0.10965   0.12227
 Alpha virt. eigenvalues --    0.12338   0.12592   0.12795   0.12813   0.12917

 Mulliken charges:
               1
     1  O   -0.485817
     2  O   -0.559508
     3  O   -0.612531
     4  O   -0.545964
     5  C    0.220780
     6  C    0.171185
     7  C    0.003542
     8  C   -0.168410
     9  C   -0.198545
    10  C    0.127774
    11  C   -0.324964
    12  C   -0.132399
    13  C   -0.336894
    14  C   -0.282250
    15  C   -0.114051
    16  C    0.091303
    17  C   -0.366290
    18  C   -0.103318
    19  C   -0.080077
    20  C    0.045192
    21  C    0.272698
    22  C   -0.170639
    23  C    0.126054
    24  C   -0.193708
    25  C   -0.131674
    26  C   -0.307029
    27  C   -0.297909
    28  C   -0.271073
    29  C   -0.144184
    30  C    0.288355
    31  C    0.129496
    32  C   -0.336371
    33  C   -0.385746
    34  C   -0.106419
    35  C    0.117358
    36  C   -0.377092
    37  C   -0.088989
    38  C   -0.085558
    39  C   -0.099809
    40  C   -0.076172
    41  C   -0.113595
    42  C   -0.136665
    43  C    0.120899
    44  C   -0.356872
    45  H    0.111202
    46  H    0.109191
    47  H    0.102480
    48  H    0.099669
    49  H    0.095363
    50  H    0.118660
    51  H    0.119345
    52  H    0.123901
    53  H    0.113888
    54  H    0.117894
    55  H    0.103727
    56  H    0.118093
    57  H    0.127715
    58  H    0.077885
    59  H    0.099583
    60  H    0.298547
    61  H    0.083284
    62  H    0.132616
    63  H    0.116178
    64  H    0.100667
    65  H    0.092231
    66  H    0.101049
    67  H    0.062384
    68  H    0.102030
    69  H    0.104364
    70  H    0.102099
    71  H    0.115129
    72  H    0.112091
    73  H    0.076465
    74  H    0.098107
    75  H    0.143284
    76  H    0.076730
    77  H    0.070994
    78  H    0.101648
    79  H    0.081160
    80  H    0.120533
    81  H    0.075621
    82  H    0.309015
    83  H    0.309768
    84  H    0.108270
    85  H    0.122570
    86  H    0.112922
    87  H    0.112096
    88  H    0.080313
    89  H    0.089426
    90  H    0.141966
    91  H    0.115364
    92  H    0.077866
    93  H    0.069355
    94  H    0.085024
    95  H    0.054010
    96  H    0.082350
    97  H    0.062230
    98  H    0.111092
    99  H    0.109730
   100  H    0.116713
 Sum of Mulliken charges =  -0.00000

 Dipole moment (field-independent basis, Debye):
    X=              3.2235    Y=              0.1977    Z=              1.7224  Tot=              3.6601
 Quadrupole moment (field-independent basis, Debye-Ang):
   XX=           -250.2235   YY=           -263.7854   ZZ=           -276.0767
   XY=            -14.3483   XZ=             34.3577   YZ=             -3.4320

 Normal termination of Gaussian 16 at Wed Jul 31 19:41:10 2019.
