 Gaussian 16, Revision A.03,
 Gaussian 16:  ES64L-G16RevA.03 25-Dec-2016

 -------------------------------------
 # td=(NStates=1) CAM-B3LYP/6-31G(d,p)
 -------------------------------------

 --
 TD
 --
 Symbolic Z-matrix:
 Charge =  0 Multiplicity = 1

                         Standard orientation:
 ---------------------------------------------------------------------
 Center     Atomic      Atomic             Coordinates (Angstroms)
 Number     Number       Type             X           Y           Z
 ---------------------------------------------------------------------
      1          8           0      -11.657634    0.471750   -1.508258
      2          8           0      -12.987668   -2.566638    1.218575
      3          8           0       10.453986   -1.021426   -2.006927
      4          8           0       14.547021   -1.094181   -0.217950
      5          6           0      -11.025838   -0.054576   -0.328620
      6          6           0      -11.710315   -1.006580   -1.366639
      7          6           0      -11.642965    0.278774    1.037397
      8          6           0      -13.153851   -1.486591   -1.018002
      9          6           0      -13.210108   -0.107972    1.102096
     10          6           0      -13.535292   -1.478582    0.386669
     11          6           0      -10.898091   -1.721789   -2.430250
     12          6           0       -9.501509    0.074253   -0.344272
     13          6           0      -11.017820   -0.464790    2.299589
     14          6           0      -11.571966    1.852004    1.283580
     15          6           0       -8.615806   -0.772081    0.230655
     16          6           0       -7.140725   -0.662464    0.221735
     17          6           0       -6.347907   -1.975705    0.370923
     18          6           0       -6.568666    0.543741    0.036950
     19          6           0       -5.135312    0.813172   -0.036119
     20          6           0       11.914724   -0.006909    1.462070
     21          6           0       11.698261   -0.618962   -1.231623
     22          6           0       12.814810   -1.247568    1.464378
     23          6           0       13.338336   -1.867508    0.188338
     24          6           0       12.411912   -1.863517   -0.947147
     25          6           0       11.039057   -0.052239    0.129132
     26          6           0       11.082844    0.155530    2.673757
     27          6           0       12.876044    1.199622    1.390882
     28          6           0       12.529706    0.375382   -2.081782
     29          6           0       -4.704077    2.116415   -0.312823
     30          6           0        9.823575    0.418740    0.053276
     31          6           0       -3.351167    2.553413   -0.413232
     32          6           0        8.548868    0.870683   -0.134380
     33          6           0       -3.073686    3.997222   -0.727351
     34          6           0       -2.349732    1.569774   -0.191513
     35          6           0        7.391811    0.152376    0.003269
     36          6           0        7.488482   -1.343903    0.153212
     37          6           0        6.189274    0.837488   -0.067697
     38          6           0       -1.008312    1.918507   -0.296654
     39          6           0        4.917049    0.281668    0.026566
     40          6           0        0.003822    0.927945   -0.173630
     41          6           0        3.818778    0.997086   -0.206405
     42          6           0        1.351162    1.208916   -0.209824
     43          6           0        2.392047    0.463826   -0.092954
     44          6           0        2.358052   -1.020789    0.117278
     45          1           0      -13.095330   -2.555476   -1.382553
     46          1           0      -13.605506   -0.781819   -1.770660
     47          1           0      -13.698173   -0.154875    2.073804
     48          1           0      -13.787564    0.529284    0.397997
     49          1           0      -14.593796   -1.585940    0.437327
     50          1           0      -10.814752   -2.755743   -1.999327
     51          1           0      -11.572859   -1.624783   -3.273777
     52          1           0       -9.922696   -1.293741   -2.734101
     53          1           0       -9.094842    0.869530   -0.946320
     54          1           0       -9.992019   -0.051955    2.469291
     55          1           0      -11.550073   -0.049384    3.133119
     56          1           0      -11.266873   -1.578538    2.205691
     57          1           0      -12.339309    2.311024    0.478208
     58          1           0      -11.814853    1.872139    2.281603
     59          1           0      -10.502200    2.174186    1.288373
     60          1           0      -12.075964   -2.834625    0.802711
     61          1           0       -9.159614   -1.510336    0.754357
     62          1           0       -5.920233   -2.377392   -0.427614
     63          1           0       -5.438088   -1.954442    1.099754
     64          1           0       -6.876706   -2.883234    0.544015
     65          1           0       -7.145507    1.463029   -0.116947
     66          1           0       -4.475620   -0.086691   -0.182815
     67          1           0       13.744399   -1.019095    2.055709
     68          1           0       11.948036   -2.112276    1.899241
     69          1           0       13.645199   -2.859837    0.589333
     70          1           0       12.858107   -2.199183   -1.900452
     71          1           0       11.585760   -2.534158   -0.622613
     72          1           0       11.514761    0.212331    3.493208
     73          1           0       10.231814    1.116924    2.471265
     74          1           0       10.160923   -0.499012    2.751654
     75          1           0       13.844554    1.089104    0.823634
     76          1           0       12.488784    2.260711    0.878615
     77          1           0       13.268323    1.675908    2.398074
     78          1           0       12.669589    0.035331   -3.035306
     79          1           0       11.969998    1.266059   -1.982510
     80          1           0       13.480845    0.550598   -1.831979
     81          1           0       -5.412113    2.816508   -0.516843
     82          1           0        9.979377   -0.250669   -2.269826
     83          1           0       15.109596   -0.905569    0.619299
     84          1           0        8.523497    1.967346   -0.457190
     85          1           0       -2.471801    4.262641    0.124702
     86          1           0       -2.422243    4.205052   -1.676365
     87          1           0       -4.037085    4.622502   -0.832955
     88          1           0       -2.533260    0.585746    0.226668
     89          1           0        6.441373   -1.839651    0.390051
     90          1           0        8.017535   -1.712216   -0.605506
     91          1           0        8.231351   -1.350699    1.045903
     92          1           0        6.285172    1.961428   -0.212185
     93          1           0       -0.698612    3.016762   -0.554456
     94          1           0        4.673440   -0.739263    0.209989
     95          1           0       -0.431851   -0.080707   -0.052927
     96          1           0        3.771433    2.091967   -0.569593
     97          1           0        1.668105    2.218582   -0.412550
     98          1           0        1.381504   -1.524022    0.051397
     99          1           0        2.946094   -1.680374   -0.678560
    100          1           0        2.911523   -1.229109    1.042414
 ---------------------------------------------------------------------

 SCF Done:  E(RCAM-B3LYP) =  -1857.34567841     A.U. after   15 cycles

 Excitation energies and oscillator strengths:

 Excited State   1:      Singlet-A      2.3235 eV  533.61 nm  f=2.8030  <S**2>=0.000
     163 ->166         0.13525
     164 ->165         0.69249
 This state for optimization and/or second-order correction.
 Total Energy, E(TD-HF/TD-DFT) =  -1857.26029147
 Copying the excited state density for this state as the 1-particle RhoCI density.

 The electronic state is 1-A.
 Alpha  occ. eigenvalues --  -19.22430 -19.22012 -19.21908 -19.20130 -10.32801
 Alpha  occ. eigenvalues --  -10.32404 -10.32038 -10.31763 -10.30794 -10.29146
 Alpha  occ. eigenvalues --  -10.28362 -10.27905 -10.27876 -10.27705 -10.27650
 Alpha  occ. eigenvalues --  -10.27479 -10.27320 -10.27243 -10.27227 -10.27093
 Alpha  occ. eigenvalues --  -10.26911 -10.26896 -10.26811 -10.26601 -10.26571
 Alpha  occ. eigenvalues --  -10.26500 -10.26426 -10.26083 -10.26029 -10.26019
 Alpha  occ. eigenvalues --  -10.25999 -10.25933 -10.25856 -10.25574 -10.25442
 Alpha  occ. eigenvalues --  -10.25324 -10.25277 -10.25275 -10.25256 -10.25075
 Alpha  occ. eigenvalues --  -10.24905 -10.24781 -10.24562 -10.22570  -1.12781
 Alpha  occ. eigenvalues --   -1.07702  -1.07580  -1.07090  -0.93065  -0.92507
 Alpha  occ. eigenvalues --   -0.91882  -0.91176  -0.90241  -0.89003  -0.87886
 Alpha  occ. eigenvalues --   -0.87418  -0.87080  -0.85347  -0.84156  -0.83389
 Alpha  occ. eigenvalues --   -0.82080  -0.81300  -0.81031  -0.78669  -0.77700
 Alpha  occ. eigenvalues --   -0.77200  -0.77035  -0.76054  -0.75734  -0.75090
 Alpha  occ. eigenvalues --   -0.74788  -0.74124  -0.73223  -0.70368  -0.69929
 Alpha  occ. eigenvalues --   -0.68220  -0.66654  -0.65348  -0.64557  -0.63631
 Alpha  occ. eigenvalues --   -0.63453  -0.61415  -0.60691  -0.60204  -0.59825
 Alpha  occ. eigenvalues --   -0.57923  -0.57724  -0.57512  -0.57292  -0.56252
 Alpha  occ. eigenvalues --   -0.56166  -0.55272  -0.54646  -0.54437  -0.54311
 Alpha  occ. eigenvalues --   -0.53239  -0.52934  -0.52670  -0.52153  -0.52062
 Alpha  occ. eigenvalues --   -0.51393  -0.51124  -0.50588  -0.49776  -0.49622
 Alpha  occ. eigenvalues --   -0.48974  -0.48939  -0.48835  -0.48722  -0.48669
 Alpha  occ. eigenvalues --   -0.48370  -0.48324  -0.47459  -0.47256  -0.46741
 Alpha  occ. eigenvalues --   -0.46581  -0.46400  -0.45967  -0.45290  -0.45244
 Alpha  occ. eigenvalues --   -0.45103  -0.44597  -0.44177  -0.44005  -0.43871
 Alpha  occ. eigenvalues --   -0.43536  -0.43329  -0.42980  -0.42571  -0.42326
 Alpha  occ. eigenvalues --   -0.42228  -0.42031  -0.41833  -0.41350  -0.41151
 Alpha  occ. eigenvalues --   -0.40836  -0.40753  -0.40427  -0.40243  -0.40121
 Alpha  occ. eigenvalues --   -0.39935  -0.39733  -0.39223  -0.39091  -0.38698
 Alpha  occ. eigenvalues --   -0.38481  -0.37944  -0.37694  -0.37603  -0.37026
 Alpha  occ. eigenvalues --   -0.35575  -0.35452  -0.35364  -0.34040  -0.33283
 Alpha  occ. eigenvalues --   -0.33086  -0.32759  -0.32340  -0.31732  -0.30218
 Alpha  occ. eigenvalues --   -0.30144  -0.27394  -0.23979  -0.19912
 Alpha virt. eigenvalues --   -0.05268  -0.00479   0.03274   0.06578   0.07180
 Alpha virt. eigenvalues --    0.08663   0.08709   0.10645   0.12355   0.12560
 Alpha virt. eigenvalues --    0.12814   0.13239   0.13359   0.13582   0.14138

 Mulliken charges:
               1
     1  O   -0.525399
     2  O   -0.558580
     3  O   -0.575785
     4  O   -0.567129
     5  C    0.238977
     6  C    0.164121
     7  C   -0.005168
     8  C   -0.219004
     9  C   -0.189435
    10  C    0.162006
    11  C   -0.308667
    12  C   -0.112780
    13  C   -0.318412
    14  C   -0.295247
    15  C   -0.089707
    16  C    0.085847
    17  C   -0.385143
    18  C   -0.119748
    19  C   -0.071178
    20  C    0.080000
    21  C    0.227816
    22  C   -0.188680
    23  C    0.170110
    24  C   -0.176693
    25  C   -0.121863
    26  C   -0.291156
    27  C   -0.318495
    28  C   -0.310334
    29  C   -0.117710
    30  C    0.134632
    31  C    0.082341
    32  C   -0.269717
    33  C   -0.376285
    34  C   -0.110167
    35  C    0.130017
    36  C   -0.347671
    37  C   -0.116241
    38  C   -0.078256
    39  C   -0.072925
    40  C   -0.102941
    41  C   -0.116063
    42  C   -0.124391
    43  C    0.138307
    44  C   -0.395392
    45  H    0.098404
    46  H    0.145027
    47  H    0.108307
    48  H    0.089971
    49  H    0.110268
    50  H    0.097648
    51  H    0.119502
    52  H    0.134986
    53  H    0.091766
    54  H    0.108049
    55  H    0.105284
    56  H    0.105344
    57  H    0.111802
    58  H    0.109100
    59  H    0.099210
    60  H    0.303162
    61  H    0.076460
    62  H    0.136360
    63  H    0.105083
    64  H    0.110180
    65  H    0.087895
    66  H    0.093958
    67  H    0.079008
    68  H    0.062879
    69  H    0.102024
    70  H    0.118894
    71  H    0.120674
    72  H    0.106740
    73  H    0.074578
    74  H    0.104169
    75  H    0.108298
    76  H    0.079937
    77  H    0.087750
    78  H    0.121100
    79  H    0.097549
    80  H    0.140501
    81  H    0.074143
    82  H    0.302097
    83  H    0.302893
    84  H    0.110297
    85  H    0.141834
    86  H    0.119005
    87  H    0.109086
    88  H    0.095531
    89  H    0.097287
    90  H    0.153505
    91  H    0.105424
    92  H    0.078097
    93  H    0.081472
    94  H    0.082303
    95  H    0.081525
    96  H    0.071383
    97  H    0.068586
    98  H    0.106603
    99  H    0.103426
   100  H    0.125826
 Sum of Mulliken charges =  -0.00000

 Dipole moment (field-independent basis, Debye):
    X=              2.3030    Y=             -0.2568    Z=              0.5142  Tot=              2.3737
 Quadrupole moment (field-independent basis, Debye-Ang):
   XX=           -261.5100   YY=           -260.3950   ZZ=           -276.1287
   XY=             10.5523   XZ=             32.7882   YZ=             -1.7345

 Normal termination of Gaussian 16 at Wed Jul 31 08:46:03 2019.
