 Gaussian 16, Revision A.03,
 Gaussian 16:  ES64L-G16RevA.03 25-Dec-2016

 -------------------------------------
 # td=(NStates=1) CAM-B3LYP/6-31G(d,p)
 -------------------------------------

 --
 TD
 --
 Symbolic Z-matrix:
 Charge =  0 Multiplicity = 1

                         Standard orientation:
 ---------------------------------------------------------------------
 Center     Atomic      Atomic             Coordinates (Angstroms)
 Number     Number       Type             X           Y           Z
 ---------------------------------------------------------------------
      1          8           0      -11.602395    0.133512   -1.576287
      2          8           0      -12.925542   -2.264607    1.449806
      3          8           0       10.551972   -1.221823   -2.030445
      4          8           0       14.474916   -1.082612   -0.159555
      5          6           0      -10.941336   -0.295288   -0.313356
      6          6           0      -11.663790   -1.257073   -1.135332
      7          6           0      -11.687995    0.415692    0.875763
      8          6           0      -13.084056   -1.744948   -0.878962
      9          6           0      -13.203362    0.029097    0.830501
     10          6           0      -13.578315   -1.380558    0.488591
     11          6           0      -10.773883   -2.237995   -2.009818
     12          6           0       -9.563787   -0.022635   -0.393821
     13          6           0      -10.991596    0.110621    2.234536
     14          6           0      -11.596749    1.984654    0.696909
     15          6           0       -8.568874   -0.844641    0.049825
     16          6           0       -7.231907   -0.720836    0.233514
     17          6           0       -6.234096   -1.812983    0.544537
     18          6           0       -6.577869    0.577531   -0.050106
     19          6           0       -5.181072    0.827981   -0.156567
     20          6           0       11.861274    0.175490    1.274188
     21          6           0       11.567710   -0.789793   -1.190531
     22          6           0       12.678471   -1.116267    1.557738
     23          6           0       13.366383   -1.821812    0.307737
     24          6           0       12.370357   -1.975150   -0.813077
     25          6           0       11.056541   -0.076014    0.058576
     26          6           0       10.930685    0.402578    2.433641
     27          6           0       12.765297    1.386298    1.138053
     28          6           0       12.468407    0.236259   -2.081911
     29          6           0       -4.784691    2.082556   -0.443522
     30          6           0        9.867163    0.422985   -0.087727
     31          6           0       -3.404008    2.415718   -0.468846
     32          6           0        8.624409    0.887159   -0.239237
     33          6           0       -3.063694    3.821955   -0.864609
     34          6           0       -2.325850    1.615249   -0.258212
     35          6           0        7.415994    0.174186    0.058821
     36          6           0        7.617648   -1.267516    0.448610
     37          6           0        6.203732    0.731920   -0.079195
     38          6           0       -1.027716    2.019722   -0.326873
     39          6           0        5.000546    0.101010    0.095813
     40          6           0       -0.014177    1.140420   -0.069454
     41          6           0        3.831563    0.832781   -0.132932
     42          6           0        1.407276    1.355367   -0.276442
     43          6           0        2.490027    0.456771    0.053994
     44          6           0        2.221493   -1.020721    0.470974
     45          1           0      -13.251339   -2.778145   -0.960418
     46          1           0      -13.824771   -1.389206   -1.498084
     47          1           0      -13.411994    0.339451    1.950951
     48          1           0      -13.780608    0.717059    0.180719
     49          1           0      -14.708089   -1.455188    0.698009
     50          1           0      -10.508511   -3.086163   -1.448014
     51          1           0      -11.403613   -2.412263   -2.988947
     52          1           0       -9.857322   -1.697316   -2.037434
     53          1           0       -9.481035    0.872463   -0.730066
     54          1           0       -9.832472    0.152698    2.192309
     55          1           0      -11.524701    0.537543    2.994407
     56          1           0      -11.165171   -0.985552    2.494100
     57          1           0      -12.137895    2.317066   -0.255152
     58          1           0      -11.914283    2.603233    1.551364
     59          1           0      -10.437241    2.398829    0.459072
     60          1           0      -12.008429   -2.174280    1.449903
     61          1           0       -9.026380   -1.889041    0.402401
     62          1           0       -5.627061   -2.123359   -0.310123
     63          1           0       -5.384521   -1.630356    1.238920
     64          1           0       -6.760641   -2.756784    0.915588
     65          1           0       -7.235600    1.395524   -0.646179
     66          1           0       -4.439508    0.186888    0.346985
     67          1           0       13.437058   -0.808846    2.511933
     68          1           0       11.903899   -1.692285    1.839245
     69          1           0       13.625716   -2.852409    0.771291
     70          1           0       12.869080   -2.411744   -1.770153
     71          1           0       11.684731   -2.733469   -0.769730
     72          1           0       11.688458    0.392232    3.430345
     73          1           0       10.299376    1.481935    2.232867
     74          1           0       10.194596   -0.364174    2.516827
     75          1           0       13.658431    1.122680    0.464852
     76          1           0       12.251744    2.364984    0.672032
     77          1           0       13.302990    1.435972    2.124872
     78          1           0       12.813830   -0.194073   -3.155194
     79          1           0       11.822881    1.132797   -2.440363
     80          1           0       13.422334    0.634823   -1.575792
     81          1           0       -5.713088    2.709179   -0.779227
     82          1           0       10.024905   -0.543973   -2.196025
     83          1           0       14.943792   -0.569150    0.726181
     84          1           0        8.621915    2.027308   -0.411621
     85          1           0       -2.997966    4.523117    0.112107
     86          1           0       -2.397620    4.007361   -1.741181
     87          1           0       -4.136022    4.290951   -1.139669
     88          1           0       -2.421287    0.657793    0.107645
     89          1           0        6.650883   -1.809651    0.564929
     90          1           0        8.203986   -1.811685   -0.331779
     91          1           0        8.118276   -1.469538    1.346574
     92          1           0        6.115536    1.827328   -0.402749
     93          1           0       -0.662989    2.978768   -0.817431
     94          1           0        5.127015   -0.880935    0.476213
     95          1           0       -0.359580    0.118417    0.163154
     96          1           0        4.003094    1.684969   -0.498609
     97          1           0        1.646442    2.310613   -0.496373
     98          1           0        1.050201   -1.343367    0.598664
     99          1           0        2.593566   -1.640813   -0.392362
    100          1           0        2.866499   -1.152599    1.299322
 ---------------------------------------------------------------------

 SCF Done:  E(RCAM-B3LYP) =  -1857.29793356     A.U. after   15 cycles

 Excitation energies and oscillator strengths:

 Excited State   1:      Singlet-A      2.0464 eV  605.88 nm  f=3.1927  <S**2>=0.000
     163 ->166        -0.14920
     164 ->165         0.69226
 This state for optimization and/or second-order correction.
 Total Energy, E(TD-HF/TD-DFT) =  -1857.22273152
 Copying the excited state density for this state as the 1-particle RhoCI density.

 The electronic state is 1-A.
 Alpha  occ. eigenvalues --  -19.23786 -19.21250 -19.21044 -19.19390 -10.32858
 Alpha  occ. eigenvalues --  -10.32551 -10.32397 -10.30995 -10.30953 -10.28687
 Alpha  occ. eigenvalues --  -10.28341 -10.28329 -10.28295 -10.28047 -10.28004
 Alpha  occ. eigenvalues --  -10.27853 -10.27678 -10.27639 -10.27511 -10.27370
 Alpha  occ. eigenvalues --  -10.27327 -10.27284 -10.27196 -10.27152 -10.26944
 Alpha  occ. eigenvalues --  -10.26905 -10.26865 -10.26701 -10.26675 -10.26457
 Alpha  occ. eigenvalues --  -10.26438 -10.26392 -10.26364 -10.26149 -10.26010
 Alpha  occ. eigenvalues --  -10.25606 -10.25586 -10.25474 -10.25373 -10.25142
 Alpha  occ. eigenvalues --  -10.25045 -10.25005 -10.24901 -10.24458  -1.13511
 Alpha  occ. eigenvalues --   -1.13017  -1.08948  -1.08489  -0.94811  -0.93348
 Alpha  occ. eigenvalues --   -0.93003  -0.91682  -0.90505  -0.89653  -0.88547
 Alpha  occ. eigenvalues --   -0.87185  -0.87118  -0.86376  -0.85014  -0.83677
 Alpha  occ. eigenvalues --   -0.82602  -0.80573  -0.79991  -0.78544  -0.77478
 Alpha  occ. eigenvalues --   -0.76694  -0.76408  -0.76335  -0.75768  -0.74940
 Alpha  occ. eigenvalues --   -0.74884  -0.74480  -0.73258  -0.71234  -0.70670
 Alpha  occ. eigenvalues --   -0.69451  -0.66884  -0.65900  -0.65200  -0.64306
 Alpha  occ. eigenvalues --   -0.63490  -0.62848  -0.62331  -0.61237  -0.60332
 Alpha  occ. eigenvalues --   -0.60148  -0.59238  -0.58873  -0.57298  -0.57233
 Alpha  occ. eigenvalues --   -0.56857  -0.55593  -0.55174  -0.54816  -0.54709
 Alpha  occ. eigenvalues --   -0.53496  -0.53316  -0.52658  -0.52203  -0.51879
 Alpha  occ. eigenvalues --   -0.51548  -0.50775  -0.49831  -0.49697  -0.49414
 Alpha  occ. eigenvalues --   -0.49337  -0.49247  -0.48813  -0.48551  -0.48446
 Alpha  occ. eigenvalues --   -0.48217  -0.47782  -0.47743  -0.47422  -0.47241
 Alpha  occ. eigenvalues --   -0.46738  -0.46697  -0.46471  -0.46296  -0.45207
 Alpha  occ. eigenvalues --   -0.44720  -0.44481  -0.44187  -0.43945  -0.43788
 Alpha  occ. eigenvalues --   -0.43438  -0.42962  -0.42673  -0.42404  -0.42221
 Alpha  occ. eigenvalues --   -0.42057  -0.42001  -0.41786  -0.41359  -0.41329
 Alpha  occ. eigenvalues --   -0.41257  -0.40583  -0.40539  -0.40213  -0.40140
 Alpha  occ. eigenvalues --   -0.40012  -0.39781  -0.39723  -0.39360  -0.38598
 Alpha  occ. eigenvalues --   -0.38510  -0.38429  -0.38209  -0.37851  -0.37692
 Alpha  occ. eigenvalues --   -0.37608  -0.36165  -0.35525  -0.35079  -0.34059
 Alpha  occ. eigenvalues --   -0.33273  -0.32655  -0.32071  -0.31660  -0.31503
 Alpha  occ. eigenvalues --   -0.30118  -0.27968  -0.23963  -0.19756
 Alpha virt. eigenvalues --   -0.06796  -0.02242   0.02902   0.05815   0.06731
 Alpha virt. eigenvalues --    0.07632   0.10314   0.10437   0.10851   0.11339
 Alpha virt. eigenvalues --    0.12553   0.12990   0.13354   0.13551   0.13797

 Mulliken charges:
               1
     1  O   -0.518295
     2  O   -0.562513
     3  O   -0.535443
     4  O   -0.541079
     5  C    0.155123
     6  C    0.218098
     7  C    0.021590
     8  C   -0.178519
     9  C   -0.169803
    10  C    0.124311
    11  C   -0.322059
    12  C   -0.050159
    13  C   -0.313473
    14  C   -0.303111
    15  C   -0.101966
    16  C    0.097409
    17  C   -0.383605
    18  C   -0.141720
    19  C   -0.041165
    20  C    0.011617
    21  C    0.269078
    22  C   -0.207123
    23  C    0.185846
    24  C   -0.199739
    25  C   -0.052760
    26  C   -0.269285
    27  C   -0.280441
    28  C   -0.303671
    29  C   -0.105276
    30  C    0.136536
    31  C    0.081738
    32  C   -0.299898
    33  C   -0.381398
    34  C   -0.094376
    35  C    0.118908
    36  C   -0.386901
    37  C   -0.094892
    38  C   -0.054044
    39  C   -0.068625
    40  C   -0.092573
    41  C   -0.087383
    42  C   -0.133676
    43  C    0.086299
    44  C   -0.358350
    45  H    0.120406
    46  H    0.120981
    47  H    0.082361
    48  H    0.104443
    49  H    0.099997
    50  H    0.111663
    51  H    0.107517
    52  H    0.127202
    53  H    0.092516
    54  H    0.120282
    55  H    0.117590
    56  H    0.072607
    57  H    0.119851
    58  H    0.107883
    59  H    0.063757
    60  H    0.298233
    61  H    0.057847
    62  H    0.132435
    63  H    0.123176
    64  H    0.097961
    65  H    0.076177
    66  H    0.090133
    67  H    0.056754
    68  H    0.111997
    69  H    0.078578
    70  H    0.112294
    71  H    0.123883
    72  H    0.066718
    73  H    0.087798
    74  H    0.114608
    75  H    0.092225
    76  H    0.100669
    77  H    0.089437
    78  H    0.089436
    79  H    0.070252
    80  H    0.120082
    81  H    0.097799
    82  H    0.287474
    83  H    0.311920
    84  H    0.107395
    85  H    0.113620
    86  H    0.130519
    87  H    0.081946
    88  H    0.072157
    89  H    0.098968
    90  H    0.134256
    91  H    0.128957
    92  H    0.076601
    93  H    0.087423
    94  H    0.080345
    95  H    0.070875
    96  H    0.060488
    97  H    0.075242
    98  H    0.096126
    99  H    0.125129
   100  H    0.129783
 Sum of Mulliken charges =  -0.00000

 Dipole moment (field-independent basis, Debye):
    X=              3.8717    Y=              0.5570    Z=              2.0233  Tot=              4.4039
 Quadrupole moment (field-independent basis, Debye-Ang):
   XX=           -289.4485   YY=           -264.7814   ZZ=           -280.4794
   XY=              2.4875   XZ=             31.0446   YZ=             -3.5432

 Normal termination of Gaussian 16 at Thu Aug  1 16:12:30 2019.
