 Gaussian 16, Revision A.03,
 Gaussian 16:  ES64L-G16RevA.03 25-Dec-2016

 -------------------------------------
 # td=(NStates=1) CAM-B3LYP/6-31G(d,p)
 -------------------------------------

 --
 TD
 --
 Symbolic Z-matrix:
 Charge =  0 Multiplicity = 1

                         Standard orientation:
 ---------------------------------------------------------------------
 Center     Atomic      Atomic             Coordinates (Angstroms)
 Number     Number       Type             X           Y           Z
 ---------------------------------------------------------------------
      1          8           0      -11.523388    0.170906   -1.602514
      2          8           0      -12.719152   -2.556692    1.321970
      3          8           0       10.403712   -0.916952   -2.169198
      4          8           0       14.307585   -1.243607   -0.183656
      5          6           0      -10.993665   -0.234072   -0.343810
      6          6           0      -11.546481   -1.267449   -1.288168
      7          6           0      -11.838461    0.407642    0.885678
      8          6           0      -12.914721   -1.818260   -1.062810
      9          6           0      -13.299844   -0.144384    0.901815
     10          6           0      -13.389914   -1.676583    0.415890
     11          6           0      -10.567143   -2.290167   -2.008658
     12          6           0       -9.480286    0.057259   -0.361875
     13          6           0      -11.169472   -0.118306    2.122206
     14          6           0      -11.731816    1.868961    0.702755
     15          6           0       -8.545498   -0.696413    0.080378
     16          6           0       -7.110899   -0.484668    0.174305
     17          6           0       -6.191937   -1.563066    0.812082
     18          6           0       -6.660604    0.795222   -0.205788
     19          6           0       -5.314355    1.087112   -0.051374
     20          6           0       11.835310   -0.041670    1.248899
     21          6           0       11.503333   -0.591286   -1.367870
     22          6           0       12.434661   -1.415564    1.416159
     23          6           0       13.136440   -1.982273    0.213870
     24          6           0       12.174366   -1.955895   -0.994905
     25          6           0       11.000296    0.056200    0.017805
     26          6           0       11.032030    0.379195    2.520307
     27          6           0       12.998548    1.093293    1.275210
     28          6           0       12.534579    0.345213   -2.037714
     29          6           0       -4.656470    2.332204   -0.442365
     30          6           0        9.805893    0.631219    0.036816
     31          6           0       -3.360432    2.663007   -0.426038
     32          6           0        8.552609    0.991348   -0.222043
     33          6           0       -2.968127    4.122663   -0.697037
     34          6           0       -2.271273    1.716012   -0.141359
     35          6           0        7.411529    0.138075    0.065818
     36          6           0        7.676529   -1.214677    0.419157
     37          6           0        6.187123    0.635559   -0.079059
     38          6           0       -0.923747    2.005382   -0.245281
     39          6           0        4.909768    0.045719    0.149455
     40          6           0        0.033233    1.092174   -0.027941
     41          6           0        3.815805    0.807053    0.078451
     42          6           0        1.368406    1.368019   -0.071200
     43          6           0        2.419445    0.386455    0.036575
     44          6           0        2.164719   -1.049520    0.272529
     45          1           0      -12.869320   -2.874500   -1.315356
     46          1           0      -13.654693   -1.629681   -1.741766
     47          1           0      -13.596647   -0.224923    2.039038
     48          1           0      -13.969140    0.297955    0.169209
     49          1           0      -14.381009   -1.743162    0.564716
     50          1           0      -10.156512   -3.085812   -1.355096
     51          1           0      -11.090114   -2.729582   -2.757007
     52          1           0       -9.807299   -1.768855   -2.451899
     53          1           0       -9.455894    1.093821   -0.627632
     54          1           0      -10.109391    0.085722    2.407117
     55          1           0      -11.802379    0.185516    2.996729
     56          1           0      -11.108887   -1.155606    2.100602
     57          1           0      -12.120596    2.236542   -0.085499
     58          1           0      -12.341561    2.347081    1.489954
     59          1           0      -10.807123    2.281024    0.906030
     60          1           0      -11.752928   -2.542658    1.215899
     61          1           0       -8.797484   -1.551732    0.606874
     62          1           0       -5.688730   -2.069360   -0.151047
     63          1           0       -5.528720   -1.034973    1.551025
     64          1           0       -6.708238   -2.460326    1.325164
     65          1           0       -7.290689    1.561501   -0.513856
     66          1           0       -4.515752    0.243347    0.081554
     67          1           0       13.237482   -1.424780    2.115083
     68          1           0       11.760776   -2.142708    1.680305
     69          1           0       13.438783   -3.096779    0.383882
     70          1           0       12.807442   -2.213542   -1.898204
     71          1           0       11.368504   -2.731691   -0.822887
     72          1           0       11.800932    0.775886    3.486535
     73          1           0       10.499940    1.132319    2.107628
     74          1           0       10.445522   -0.564028    2.858326
     75          1           0       13.888738    0.868592    0.700526
     76          1           0       12.421443    2.017329    1.163397
     77          1           0       13.421538    1.136206    2.221333
     78          1           0       12.867458   -0.287886   -2.782902
     79          1           0       11.950395    1.265172   -2.594233
     80          1           0       13.380368    0.656685   -1.578387
     81          1           0       -5.433284    3.081687   -0.862085
     82          1           0        9.800341   -0.087876   -2.050530
     83          1           0       14.903050   -1.206119    0.666615
     84          1           0        8.570344    2.111889   -0.548970
     85          1           0       -1.952988    4.409816   -0.108994
     86          1           0       -2.807436    4.423770   -1.820246
     87          1           0       -3.853869    4.807515   -0.229532
     88          1           0       -2.516239    0.612524   -0.385402
     89          1           0        6.830377   -1.963188    0.622917
     90          1           0        8.401549   -1.620141   -0.308141
     91          1           0        8.417350   -1.433999    1.288545
     92          1           0        6.162136    1.719691   -0.527958
     93          1           0       -0.531467    2.928280   -0.311085
     94          1           0        4.962765   -1.113523    0.463922
     95          1           0       -0.366706    0.086595   -0.133208
     96          1           0        3.928846    1.859238   -0.134304
     97          1           0        1.697770    2.483105   -0.077921
     98          1           0        1.128303   -1.106797    0.643512
     99          1           0        2.200077   -2.006855   -0.488400
    100          1           0        2.615956   -1.351359    1.248106
 ---------------------------------------------------------------------

 SCF Done:  E(RCAM-B3LYP) =  -1857.32103784     A.U. after   16 cycles

 Excitation energies and oscillator strengths:

 Excited State   1:      Singlet-A      1.8764 eV  660.74 nm  f=2.6271  <S**2>=0.000
     163 ->166        -0.10981
     164 ->165         0.70905
     164 <-165        -0.13840
 This state for optimization and/or second-order correction.
 Total Energy, E(TD-HF/TD-DFT) =  -1857.25208005
 Copying the excited state density for this state as the 1-particle RhoCI density.

 The electronic state is 1-A.
 Alpha  occ. eigenvalues --  -19.22834 -19.22024 -19.21634 -19.21389 -10.32703
 Alpha  occ. eigenvalues --  -10.32495 -10.31487 -10.31485 -10.30490 -10.28818
 Alpha  occ. eigenvalues --  -10.28618 -10.28514 -10.28256 -10.28118 -10.28066
 Alpha  occ. eigenvalues --  -10.27834 -10.27561 -10.27502 -10.27375 -10.27089
 Alpha  occ. eigenvalues --  -10.27087 -10.27070 -10.26949 -10.26925 -10.26750
 Alpha  occ. eigenvalues --  -10.26315 -10.26202 -10.26132 -10.26076 -10.26070
 Alpha  occ. eigenvalues --  -10.25882 -10.25782 -10.25724 -10.25596 -10.25500
 Alpha  occ. eigenvalues --  -10.25247 -10.25199 -10.24866 -10.24786 -10.24580
 Alpha  occ. eigenvalues --  -10.24071 -10.23788 -10.23482 -10.22109  -1.14024
 Alpha  occ. eigenvalues --   -1.09657  -1.09042  -1.08926  -0.93241  -0.92470
 Alpha  occ. eigenvalues --   -0.92128  -0.91741  -0.90624  -0.89974  -0.88183
 Alpha  occ. eigenvalues --   -0.87111  -0.85912  -0.85352  -0.84824  -0.83307
 Alpha  occ. eigenvalues --   -0.81875  -0.81164  -0.80598  -0.78524  -0.78285
 Alpha  occ. eigenvalues --   -0.77036  -0.76921  -0.76093  -0.75968  -0.75543
 Alpha  occ. eigenvalues --   -0.74798  -0.73603  -0.72445  -0.70622  -0.69293
 Alpha  occ. eigenvalues --   -0.68226  -0.67006  -0.66316  -0.64864  -0.64552
 Alpha  occ. eigenvalues --   -0.63340  -0.61815  -0.60820  -0.60556  -0.59627
 Alpha  occ. eigenvalues --   -0.59381  -0.58155  -0.57599  -0.56949  -0.56917
 Alpha  occ. eigenvalues --   -0.55620  -0.55261  -0.54761  -0.54275  -0.54068
 Alpha  occ. eigenvalues --   -0.53636  -0.53087  -0.53052  -0.52537  -0.51869
 Alpha  occ. eigenvalues --   -0.51587  -0.51048  -0.50583  -0.50416  -0.50219
 Alpha  occ. eigenvalues --   -0.49595  -0.49330  -0.48937  -0.48795  -0.47973
 Alpha  occ. eigenvalues --   -0.47820  -0.47427  -0.47344  -0.47055  -0.46900
 Alpha  occ. eigenvalues --   -0.46319  -0.46024  -0.45876  -0.45714  -0.45328
 Alpha  occ. eigenvalues --   -0.45249  -0.45162  -0.44382  -0.44305  -0.43868
 Alpha  occ. eigenvalues --   -0.43731  -0.43458  -0.43287  -0.43238  -0.43092
 Alpha  occ. eigenvalues --   -0.42606  -0.42047  -0.41591  -0.41345  -0.41310
 Alpha  occ. eigenvalues --   -0.41072  -0.40690  -0.40663  -0.40377  -0.39992
 Alpha  occ. eigenvalues --   -0.39677  -0.39522  -0.39446  -0.39089  -0.38957
 Alpha  occ. eigenvalues --   -0.38498  -0.38029  -0.37557  -0.37292  -0.36996
 Alpha  occ. eigenvalues --   -0.36418  -0.36276  -0.35386  -0.34809  -0.34148
 Alpha  occ. eigenvalues --   -0.32598  -0.32506  -0.31772  -0.31452  -0.30535
 Alpha  occ. eigenvalues --   -0.29490  -0.28388  -0.24664  -0.18808
 Alpha virt. eigenvalues --   -0.07114  -0.00641   0.03444   0.06424   0.06805
 Alpha virt. eigenvalues --    0.09329   0.09981   0.10483   0.11810   0.12226
 Alpha virt. eigenvalues --    0.12483   0.12921   0.13126   0.13807   0.14028

 Mulliken charges:
               1
     1  O   -0.512287
     2  O   -0.548757
     3  O   -0.566467
     4  O   -0.545726
     5  C    0.136813
     6  C    0.226721
     7  C    0.054262
     8  C   -0.222746
     9  C   -0.212630
    10  C    0.160058
    11  C   -0.340425
    12  C   -0.068519
    13  C   -0.302764
    14  C   -0.306238
    15  C   -0.062965
    16  C    0.053621
    17  C   -0.364143
    18  C   -0.076212
    19  C   -0.086538
    20  C   -0.018231
    21  C    0.261378
    22  C   -0.168799
    23  C    0.143230
    24  C   -0.197464
    25  C    0.023158
    26  C   -0.272651
    27  C   -0.311156
    28  C   -0.279873
    29  C   -0.146772
    30  C    0.003857
    31  C    0.111639
    32  C   -0.279778
    33  C   -0.356217
    34  C   -0.146671
    35  C    0.186589
    36  C   -0.408378
    37  C   -0.126515
    38  C   -0.042689
    39  C   -0.071910
    40  C   -0.068327
    41  C   -0.109094
    42  C   -0.129740
    43  C    0.096967
    44  C   -0.387942
    45  H    0.107587
    46  H    0.123163
    47  H    0.099732
    48  H    0.102868
    49  H    0.106518
    50  H    0.109138
    51  H    0.117990
    52  H    0.134238
    53  H    0.104989
    54  H    0.101073
    55  H    0.095614
    56  H    0.078761
    57  H    0.127765
    58  H    0.088661
    59  H    0.106948
    60  H    0.309212
    61  H    0.062118
    62  H    0.120577
    63  H    0.140166
    64  H    0.108837
    65  H    0.094347
    66  H    0.083053
    67  H    0.078116
    68  H    0.102608
    69  H    0.071136
    70  H    0.105994
    71  H    0.107373
    72  H    0.064951
    73  H    0.128088
    74  H    0.091747
    75  H    0.111865
    76  H    0.102712
    77  H    0.096863
    78  H    0.116167
    79  H    0.064051
    80  H    0.138035
    81  H    0.075255
    82  H    0.311036
    83  H    0.305421
    84  H    0.117590
    85  H    0.104870
    86  H    0.121092
    87  H    0.095185
    88  H    0.082698
    89  H    0.107776
    90  H    0.139765
    91  H    0.104319
    92  H    0.071974
    93  H    0.069048
    94  H    0.087136
    95  H    0.081728
    96  H    0.079727
    97  H    0.083437
    98  H    0.108986
    99  H    0.109338
   100  H    0.120889
 Sum of Mulliken charges =  -0.00000

 Dipole moment (field-independent basis, Debye):
    X=              0.5956    Y=             -0.8041    Z=              2.0686  Tot=              2.2980
 Quadrupole moment (field-independent basis, Debye-Ang):
   XX=           -260.4654   YY=           -258.7076   ZZ=           -280.7325
   XY=              0.8048   XZ=             35.5879   YZ=             -3.8815

 Normal termination of Gaussian 16 at Mon Jul 29 08:36:17 2019.
