 Gaussian 16, Revision A.03,
 Gaussian 16:  ES64L-G16RevA.03 25-Dec-2016

 -------------------------------------
 # td=(NStates=1) CAM-B3LYP/6-31G(d,p)
 -------------------------------------

 --
 TD
 --
 Symbolic Z-matrix:
 Charge =  0 Multiplicity = 1

                         Standard orientation:
 ---------------------------------------------------------------------
 Center     Atomic      Atomic             Coordinates (Angstroms)
 Number     Number       Type             X           Y           Z
 ---------------------------------------------------------------------
      1          8           0      -11.653561    0.248829   -1.524193
      2          8           0      -12.898787   -2.531945    1.447304
      3          8           0       10.566420   -1.449074   -1.828468
      4          8           0       14.489028   -0.931040   -0.063293
      5          6           0      -11.067484   -0.118353   -0.309753
      6          6           0      -11.609574   -1.123255   -1.204556
      7          6           0      -11.778747    0.455544    0.902964
      8          6           0      -12.968087   -1.834066   -0.877889
      9          6           0      -13.270611   -0.129180    0.975545
     10          6           0      -13.502193   -1.616835    0.541710
     11          6           0      -10.839039   -2.079678   -2.105590
     12          6           0       -9.570824    0.107742   -0.279896
     13          6           0      -11.052489   -0.049313    2.159925
     14          6           0      -11.889185    1.940808    0.883405
     15          6           0       -8.664596   -0.802487    0.109433
     16          6           0       -7.193284   -0.702381    0.026693
     17          6           0       -6.371856   -1.839492    0.529569
     18          6           0       -6.637906    0.629500   -0.275868
     19          6           0       -5.237676    0.853986   -0.330806
     20          6           0       12.011103    0.087571    1.283210
     21          6           0       11.657807   -0.904434   -1.235705
     22          6           0       12.831231   -1.124158    1.478548
     23          6           0       13.437526   -1.804857    0.401482
     24          6           0       12.537148   -2.028775   -0.811571
     25          6           0       11.185673   -0.047496    0.058599
     26          6           0       11.116822    0.503598    2.535774
     27          6           0       12.906568    1.429164    1.060546
     28          6           0       12.515434    0.077295   -2.181095
     29          6           0       -4.802495    2.163357   -0.424009
     30          6           0        9.934141    0.401190   -0.089474
     31          6           0       -3.406348    2.528605   -0.548861
     32          6           0        8.733648    0.888783   -0.249750
     33          6           0       -3.071471    3.946108   -0.886565
     34          6           0       -2.343745    1.685080   -0.357810
     35          6           0        7.401349    0.172058   -0.017324
     36          6           0        7.567717   -1.324695    0.222880
     37          6           0        6.188001    0.821285   -0.213827
     38          6           0       -1.017367    1.942497   -0.358145
     39          6           0        4.941904    0.267005    0.023900
     40          6           0       -0.008614    1.086826   -0.011799
     41          6           0        3.752095    0.963685   -0.150384
     42          6           0        1.372106    1.394879   -0.052870
     43          6           0        2.434914    0.454705    0.119645
     44          6           0        2.236553   -0.947112    0.676560
     45          1           0      -12.972657   -2.841608   -1.093479
     46          1           0      -13.829884   -1.411870   -1.468251
     47          1           0      -13.622444    0.147049    2.016408
     48          1           0      -13.791340    0.543010    0.369668
     49          1           0      -14.567345   -1.809401    0.432860
     50          1           0      -10.586419   -3.023489   -1.707623
     51          1           0      -11.572376   -2.340829   -2.864431
     52          1           0       -9.991508   -1.583196   -2.708385
     53          1           0       -9.265949    1.030115   -0.741907
     54          1           0       -9.946012    0.409586    2.144247
     55          1           0      -11.626000    0.250986    3.123905
     56          1           0      -11.117750   -1.056756    2.451897
     57          1           0      -12.242315    2.228672   -0.113215
     58          1           0      -12.593570    2.215951    1.610144
     59          1           0      -10.898741    2.527468    1.255343
     60          1           0      -11.932122   -2.305397    1.382188
     61          1           0       -9.070173   -1.834462    0.278498
     62          1           0       -5.947172   -2.201138   -0.396681
     63          1           0       -5.740044   -1.477424    1.427543
     64          1           0       -7.090243   -2.695455    0.873320
     65          1           0       -7.428495    1.370206   -0.380476
     66          1           0       -4.606929    0.104930    0.000384
     67          1           0       13.466725   -1.177051    2.385917
     68          1           0       11.938849   -1.863979    1.876931
     69          1           0       13.715810   -2.849499    0.699671
     70          1           0       13.193181   -2.501723   -1.796694
     71          1           0       11.873379   -2.870402   -0.640040
     72          1           0       11.689232    0.650052    3.482372
     73          1           0       10.638908    1.380079    2.256177
     74          1           0       10.310488   -0.199091    2.659177
     75          1           0       13.601948    1.422637    0.349647
     76          1           0       12.291259    2.408540    1.138438
     77          1           0       13.393247    1.705569    2.084680
     78          1           0       12.788155   -0.679620   -3.135859
     79          1           0       11.846191    0.865041   -2.456919
     80          1           0       13.336686    0.536148   -1.825713
     81          1           0       -5.452864    2.998245   -0.599041
     82          1           0       10.006380   -0.716084   -1.939407
     83          1           0       15.123471   -0.621259    0.631280
     84          1           0        8.665127    1.880303   -0.527374
     85          1           0       -2.627920    4.364635   -0.012465
     86          1           0       -2.509567    3.886050   -1.912462
     87          1           0       -4.134231    4.480678   -0.927015
     88          1           0       -2.567324    0.579599    0.088650
     89          1           0        6.659773   -1.842963   -0.039011
     90          1           0        8.274417   -1.838173   -0.204799
     91          1           0        7.923536   -1.342370    1.408666
     92          1           0        6.318684    1.939050   -0.567685
     93          1           0       -0.779324    2.955115   -0.603691
     94          1           0        4.897721   -0.779907    0.306885
     95          1           0       -0.406008   -0.044019    0.234927
     96          1           0        3.923165    2.010061   -0.570231
     97          1           0        1.571106    2.394206   -0.751766
     98          1           0        1.208657   -0.985648    1.124360
     99          1           0        2.552533   -1.851163   -0.007196
    100          1           0        2.934396   -1.182391    1.545801
 ---------------------------------------------------------------------

 SCF Done:  E(RCAM-B3LYP) =  -1857.36733681     A.U. after   15 cycles

 Excitation energies and oscillator strengths:

 Excited State   1:      Singlet-A      2.1090 eV  587.87 nm  f=3.0461  <S**2>=0.000
     163 ->166        -0.14249
     164 ->165         0.69375
 This state for optimization and/or second-order correction.
 Total Energy, E(TD-HF/TD-DFT) =  -1857.28983098
 Copying the excited state density for this state as the 1-particle RhoCI density.

 The electronic state is 1-A.
 Alpha  occ. eigenvalues --  -19.22925 -19.21546 -19.21535 -19.21434 -10.32700
 Alpha  occ. eigenvalues --  -10.32079 -10.31487 -10.31091 -10.30934 -10.28928
 Alpha  occ. eigenvalues --  -10.28650 -10.28515 -10.28211 -10.28114 -10.27542
 Alpha  occ. eigenvalues --  -10.27492 -10.27456 -10.27353 -10.27273 -10.26996
 Alpha  occ. eigenvalues --  -10.26956 -10.26901 -10.26898 -10.26793 -10.26789
 Alpha  occ. eigenvalues --  -10.26763 -10.26695 -10.26591 -10.26368 -10.26354
 Alpha  occ. eigenvalues --  -10.26109 -10.25915 -10.25826 -10.25721 -10.25695
 Alpha  occ. eigenvalues --  -10.25603 -10.25429 -10.25313 -10.25255 -10.25238
 Alpha  occ. eigenvalues --  -10.25223 -10.25065 -10.24668 -10.24114  -1.17791
 Alpha  occ. eigenvalues --   -1.13446  -1.09306  -1.09045  -0.93144  -0.92333
 Alpha  occ. eigenvalues --   -0.91410  -0.91167  -0.90231  -0.89448  -0.87442
 Alpha  occ. eigenvalues --   -0.86806  -0.86241  -0.85366  -0.84520  -0.83116
 Alpha  occ. eigenvalues --   -0.82434  -0.81090  -0.80568  -0.78145  -0.76983
 Alpha  occ. eigenvalues --   -0.76772  -0.76341  -0.75839  -0.75767  -0.75507
 Alpha  occ. eigenvalues --   -0.75414  -0.74058  -0.72713  -0.70843  -0.70135
 Alpha  occ. eigenvalues --   -0.68502  -0.67124  -0.65957  -0.65837  -0.65082
 Alpha  occ. eigenvalues --   -0.63227  -0.61640  -0.60162  -0.60021  -0.59616
 Alpha  occ. eigenvalues --   -0.58920  -0.58793  -0.57834  -0.57252  -0.56964
 Alpha  occ. eigenvalues --   -0.55637  -0.55213  -0.54730  -0.54563  -0.54242
 Alpha  occ. eigenvalues --   -0.54223  -0.53370  -0.52981  -0.52109  -0.51666
 Alpha  occ. eigenvalues --   -0.51411  -0.50980  -0.50793  -0.50622  -0.50252
 Alpha  occ. eigenvalues --   -0.50010  -0.49733  -0.49568  -0.49060  -0.48476
 Alpha  occ. eigenvalues --   -0.48326  -0.47750  -0.47477  -0.47190  -0.46841
 Alpha  occ. eigenvalues --   -0.46499  -0.46268  -0.45765  -0.45493  -0.45313
 Alpha  occ. eigenvalues --   -0.45122  -0.44809  -0.44284  -0.44035  -0.43948
 Alpha  occ. eigenvalues --   -0.43579  -0.43359  -0.42965  -0.42667  -0.42472
 Alpha  occ. eigenvalues --   -0.42346  -0.42042  -0.41919  -0.41799  -0.41598
 Alpha  occ. eigenvalues --   -0.40875  -0.40684  -0.40627  -0.40408  -0.39818
 Alpha  occ. eigenvalues --   -0.39791  -0.39305  -0.39212  -0.38939  -0.38477
 Alpha  occ. eigenvalues --   -0.38213  -0.38024  -0.37727  -0.37466  -0.37449
 Alpha  occ. eigenvalues --   -0.36108  -0.35810  -0.35203  -0.34598  -0.33995
 Alpha  occ. eigenvalues --   -0.33149  -0.32597  -0.32493  -0.31894  -0.31196
 Alpha  occ. eigenvalues --   -0.28910  -0.27729  -0.23934  -0.19316
 Alpha virt. eigenvalues --   -0.06066  -0.01155   0.03249   0.05968   0.06971
 Alpha virt. eigenvalues --    0.10147   0.10217   0.10721   0.10899   0.12130
 Alpha virt. eigenvalues --    0.12867   0.13036   0.13370   0.13612   0.13682

 Mulliken charges:
               1
     1  O   -0.502459
     2  O   -0.544198
     3  O   -0.528258
     4  O   -0.558046
     5  C    0.205049
     6  C    0.267600
     7  C    0.015266
     8  C   -0.222522
     9  C   -0.201641
    10  C    0.134184
    11  C   -0.357011
    12  C   -0.111138
    13  C   -0.313629
    14  C   -0.311507
    15  C   -0.075433
    16  C    0.037114
    17  C   -0.367373
    18  C   -0.097564
    19  C   -0.060231
    20  C    0.024661
    21  C    0.263578
    22  C   -0.186482
    23  C    0.174896
    24  C   -0.186298
    25  C   -0.057618
    26  C   -0.310463
    27  C   -0.307350
    28  C   -0.282623
    29  C   -0.107247
    30  C    0.136728
    31  C    0.058560
    32  C   -0.308413
    33  C   -0.367993
    34  C   -0.094601
    35  C    0.091644
    36  C   -0.348889
    37  C   -0.108885
    38  C   -0.069183
    39  C   -0.089085
    40  C   -0.088015
    41  C   -0.108087
    42  C   -0.142651
    43  C    0.110348
    44  C   -0.374677
    45  H    0.116488
    46  H    0.106621
    47  H    0.094786
    48  H    0.105133
    49  H    0.102660
    50  H    0.122105
    51  H    0.118929
    52  H    0.115540
    53  H    0.105423
    54  H    0.104131
    55  H    0.084512
    56  H    0.099948
    57  H    0.128568
    58  H    0.116126
    59  H    0.082714
    60  H    0.306651
    61  H    0.069072
    62  H    0.141866
    63  H    0.131823
    64  H    0.101248
    65  H    0.085812
    66  H    0.096820
    67  H    0.096649
    68  H    0.067554
    69  H    0.085843
    70  H    0.079537
    71  H    0.114378
    72  H    0.100191
    73  H    0.122566
    74  H    0.105221
    75  H    0.122871
    76  H    0.092579
    77  H    0.070951
    78  H    0.076420
    79  H    0.084387
    80  H    0.135784
    81  H    0.082642
    82  H    0.300817
    83  H    0.306643
    84  H    0.107045
    85  H    0.142025
    86  H    0.128712
    87  H    0.084345
    88  H    0.048546
    89  H    0.107390
    90  H    0.143327
    91  H    0.091311
    92  H    0.077737
    93  H    0.079301
    94  H    0.084724
    95  H    0.073565
    96  H    0.080866
    97  H    0.084470
    98  H    0.117744
    99  H    0.118558
   100  H    0.118270
 Sum of Mulliken charges =  -0.00000

 Dipole moment (field-independent basis, Debye):
    X=              1.4604    Y=              0.2889    Z=              1.9380  Tot=              2.4438
 Quadrupole moment (field-independent basis, Debye-Ang):
   XX=           -264.2440   YY=           -262.3975   ZZ=           -277.7431
   XY=              2.7340   XZ=             34.0327   YZ=             -0.6752

 Normal termination of Gaussian 16 at Thu Aug  1 18:25:34 2019.
