 Gaussian 16, Revision A.03,
 Gaussian 16:  ES64L-G16RevA.03 25-Dec-2016

 -------------------------------------
 # td=(NStates=1) CAM-B3LYP/6-31G(d,p)
 -------------------------------------

 --
 TD
 --
 Symbolic Z-matrix:
 Charge =  0 Multiplicity = 1

                         Standard orientation:
 ---------------------------------------------------------------------
 Center     Atomic      Atomic             Coordinates (Angstroms)
 Number     Number       Type             X           Y           Z
 ---------------------------------------------------------------------
      1          8           0      -11.628387    0.062151   -1.595990
      2          8           0      -13.293340   -2.223020    1.512472
      3          8           0       10.759052   -1.409617   -2.039092
      4          8           0       14.586375   -0.950769    0.006458
      5          6           0      -11.028188   -0.106160   -0.374658
      6          6           0      -11.696688   -1.284903   -1.120385
      7          6           0      -11.852283    0.542608    0.836240
      8          6           0      -13.158637   -1.798320   -0.894608
      9          6           0      -13.358644    0.134290    0.732737
     10          6           0      -13.746236   -1.375685    0.575558
     11          6           0      -10.944098   -2.221437   -1.959576
     12          6           0       -9.565533    0.017101   -0.374627
     13          6           0      -11.312483    0.246616    2.270777
     14          6           0      -11.668524    2.027719    0.468309
     15          6           0       -8.729267   -0.808923    0.182274
     16          6           0       -7.259087   -0.665334    0.117867
     17          6           0       -6.445313   -1.942343    0.758573
     18          6           0       -6.587349    0.563537   -0.016097
     19          6           0       -5.196274    0.720921   -0.230066
     20          6           0       11.866518    0.267827    1.310892
     21          6           0       11.714984   -0.801989   -1.194667
     22          6           0       12.777499   -1.023153    1.602226
     23          6           0       13.412720   -1.731686    0.506978
     24          6           0       12.600805   -1.957121   -0.661680
     25          6           0       11.133707    0.015101   -0.065511
     26          6           0       10.929691    0.648851    2.434360
     27          6           0       12.756240    1.403893    0.962593
     28          6           0       12.594366    0.160595   -2.103559
     29          6           0       -4.685634    2.047906   -0.388307
     30          6           0        9.972991    0.490075   -0.294202
     31          6           0       -3.377728    2.478489   -0.512467
     32          6           0        8.704753    0.897880   -0.299989
     33          6           0       -3.113507    3.881107   -0.841329
     34          6           0       -2.302199    1.667904   -0.221435
     35          6           0        7.544474    0.126781   -0.064922
     36          6           0        7.673111   -1.239969    0.372899
     37          6           0        6.310360    0.729773   -0.214283
     38          6           0       -0.954785    1.863409   -0.372969
     39          6           0        5.013489    0.021492    0.054643
     40          6           0        0.080917    1.032979   -0.060845
     41          6           0        3.808711    0.749174   -0.032837
     42          6           0        1.490621    1.213080   -0.135923
     43          6           0        2.541678    0.328236    0.114701
     44          6           0        2.263153   -1.132004    0.538820
     45          1           0      -13.050758   -3.015728   -0.821953
     46          1           0      -13.729663   -1.586731   -1.734555
     47          1           0      -13.696439    0.369842    1.738950
     48          1           0      -13.787799    0.562085   -0.215700
     49          1           0      -14.772873   -1.227203    0.492793
     50          1           0      -10.855076   -3.231177   -1.606869
     51          1           0      -11.688725   -2.564402   -2.870503
     52          1           0       -9.828858   -1.946868   -2.344288
     53          1           0       -9.138093    1.044808   -0.856673
     54          1           0      -10.343319    0.529582    2.143079
     55          1           0      -11.944096    0.914217    2.911545
     56          1           0      -11.327293   -0.735240    2.689812
     57          1           0      -11.875377    2.062966   -0.684037
     58          1           0      -12.252549    2.618482    1.152448
     59          1           0      -10.496576    2.311652    0.635753
     60          1           0      -12.163775   -2.207485    1.673892
     61          1           0       -9.075065   -1.737561    0.555615
     62          1           0       -5.726076   -2.250037   -0.141252
     63          1           0       -5.727025   -1.783724    1.730399
     64          1           0       -7.088553   -2.723548    0.806660
     65          1           0       -7.229914    1.520133   -0.281144
     66          1           0       -4.542360   -0.153587   -0.198457
     67          1           0       13.565050   -0.624574    2.337817
     68          1           0       12.169931   -1.790143    2.053102
     69          1           0       13.872741   -2.895692    1.004830
     70          1           0       13.120057   -2.669241   -1.391912
     71          1           0       11.885838   -2.690405   -0.218058
     72          1           0       11.548670    0.615240    3.497724
     73          1           0       10.375658    1.546444    2.325292
     74          1           0       10.177557   -0.244844    2.572889
     75          1           0       13.534308    1.135726    0.318684
     76          1           0       12.078833    2.308524    0.578417
     77          1           0       13.191036    1.856386    1.846636
     78          1           0       13.067596   -0.395736   -2.938772
     79          1           0       11.973503    0.958296   -2.732315
     80          1           0       13.469296    0.581389   -1.547805
     81          1           0       -5.455573    2.826769   -0.573664
     82          1           0       10.304559   -0.633667   -2.631559
     83          1           0       15.273498   -1.156703    0.468009
     84          1           0        8.678920    1.932393   -0.781414
     85          1           0       -2.645187    4.489234    0.092287
     86          1           0       -2.485487    3.943563   -1.687991
     87          1           0       -3.907873    4.492812   -1.099689
     88          1           0       -2.671821    0.639521    0.144926
     89          1           0        6.716004   -1.944133    0.528720
     90          1           0        8.496199   -1.717612   -0.168530
     91          1           0        8.265005   -1.367372    1.423136
     92          1           0        6.360656    1.761376   -0.403450
     93          1           0       -0.711544    2.900103   -0.779294
     94          1           0        5.159501   -1.032189    0.349072
     95          1           0       -0.218946    0.110163    0.286046
     96          1           0        3.958670    1.825980   -0.197990
     97          1           0        1.703473    2.211101   -0.553340
     98          1           0        1.257732   -1.452777    0.643504
     99          1           0        2.632823   -1.629242   -0.356293
    100          1           0        2.959990   -1.621018    1.311656
 ---------------------------------------------------------------------

 SCF Done:  E(RCAM-B3LYP) =  -1857.31075002     A.U. after   15 cycles

 Excitation energies and oscillator strengths:

 Excited State   1:      Singlet-A      2.0426 eV  606.98 nm  f=3.1609  <S**2>=0.000
     163 ->166         0.13631
     164 ->165         0.69721
     164 <-165        -0.10186
 This state for optimization and/or second-order correction.
 Total Energy, E(TD-HF/TD-DFT) =  -1857.23568487
 Copying the excited state density for this state as the 1-particle RhoCI density.

 The electronic state is 1-A.
 Alpha  occ. eigenvalues --  -19.22849 -19.22466 -19.22197 -19.20409 -10.33661
 Alpha  occ. eigenvalues --  -10.33132 -10.31879 -10.31793 -10.30515 -10.28872
 Alpha  occ. eigenvalues --  -10.28367 -10.27793 -10.27676 -10.27607 -10.27416
 Alpha  occ. eigenvalues --  -10.27394 -10.27295 -10.27133 -10.27045 -10.26897
 Alpha  occ. eigenvalues --  -10.26778 -10.26771 -10.26696 -10.26655 -10.26519
 Alpha  occ. eigenvalues --  -10.26494 -10.26490 -10.26385 -10.26348 -10.26184
 Alpha  occ. eigenvalues --  -10.26128 -10.26084 -10.26068 -10.26018 -10.26000
 Alpha  occ. eigenvalues --  -10.25992 -10.25973 -10.25863 -10.25794 -10.25407
 Alpha  occ. eigenvalues --  -10.25012 -10.24695 -10.24539 -10.23942  -1.16830
 Alpha  occ. eigenvalues --   -1.10911  -1.09801  -1.09027  -0.93870  -0.92514
 Alpha  occ. eigenvalues --   -0.92003  -0.91127  -0.90625  -0.89219  -0.87876
 Alpha  occ. eigenvalues --   -0.87311  -0.85753  -0.85383  -0.84990  -0.82726
 Alpha  occ. eigenvalues --   -0.81282  -0.80416  -0.80102  -0.78662  -0.77057
 Alpha  occ. eigenvalues --   -0.76624  -0.76464  -0.76401  -0.75922  -0.75642
 Alpha  occ. eigenvalues --   -0.74376  -0.73660  -0.72965  -0.70124  -0.69410
 Alpha  occ. eigenvalues --   -0.68739  -0.67145  -0.64683  -0.64628  -0.63789
 Alpha  occ. eigenvalues --   -0.63437  -0.62626  -0.60836  -0.60515  -0.59510
 Alpha  occ. eigenvalues --   -0.58896  -0.58420  -0.58068  -0.56792  -0.56571
 Alpha  occ. eigenvalues --   -0.55560  -0.55439  -0.55109  -0.54944  -0.54424
 Alpha  occ. eigenvalues --   -0.53592  -0.52848  -0.52381  -0.52053  -0.51364
 Alpha  occ. eigenvalues --   -0.51282  -0.50801  -0.50623  -0.50108  -0.49769
 Alpha  occ. eigenvalues --   -0.49632  -0.49384  -0.48739  -0.48550  -0.48217
 Alpha  occ. eigenvalues --   -0.47842  -0.47462  -0.46855  -0.46558  -0.46487
 Alpha  occ. eigenvalues --   -0.46334  -0.46135  -0.45788  -0.45425  -0.44962
 Alpha  occ. eigenvalues --   -0.44906  -0.44524  -0.44450  -0.44088  -0.44024
 Alpha  occ. eigenvalues --   -0.43780  -0.43300  -0.42859  -0.42685  -0.42329
 Alpha  occ. eigenvalues --   -0.42094  -0.41787  -0.41746  -0.41712  -0.41403
 Alpha  occ. eigenvalues --   -0.41079  -0.40920  -0.40519  -0.40223  -0.39878
 Alpha  occ. eigenvalues --   -0.39612  -0.39580  -0.39164  -0.39018  -0.38833
 Alpha  occ. eigenvalues --   -0.38138  -0.37857  -0.37854  -0.37384  -0.37028
 Alpha  occ. eigenvalues --   -0.36153  -0.35654  -0.34665  -0.34221  -0.33531
 Alpha  occ. eigenvalues --   -0.32921  -0.32568  -0.31743  -0.31502  -0.29985
 Alpha  occ. eigenvalues --   -0.29654  -0.28021  -0.23997  -0.19238
 Alpha virt. eigenvalues --   -0.06483  -0.00911   0.03469   0.06666   0.06891
 Alpha virt. eigenvalues --    0.07530   0.08348   0.10228   0.10809   0.11292
 Alpha virt. eigenvalues --    0.11929   0.12434   0.12838   0.13411   0.14030

 Mulliken charges:
               1
     1  O   -0.493571
     2  O   -0.544196
     3  O   -0.569136
     4  O   -0.535659
     5  C    0.204036
     6  C    0.242268
     7  C    0.007069
     8  C   -0.240811
     9  C   -0.201858
    10  C    0.194310
    11  C   -0.339933
    12  C   -0.096587
    13  C   -0.308897
    14  C   -0.307276
    15  C   -0.066763
    16  C    0.025647
    17  C   -0.354328
    18  C   -0.095022
    19  C   -0.065147
    20  C    0.027618
    21  C    0.265484
    22  C   -0.164699
    23  C    0.126696
    24  C   -0.172022
    25  C   -0.073378
    26  C   -0.298841
    27  C   -0.289852
    28  C   -0.316465
    29  C   -0.142163
    30  C    0.125182
    31  C    0.122454
    32  C   -0.276119
    33  C   -0.380148
    34  C   -0.104394
    35  C    0.194683
    36  C   -0.402333
    37  C   -0.126864
    38  C   -0.083928
    39  C   -0.093407
    40  C   -0.071082
    41  C   -0.126401
    42  C   -0.148371
    43  C    0.146916
    44  C   -0.380554
    45  H    0.079637
    46  H    0.119013
    47  H    0.090311
    48  H    0.103183
    49  H    0.112479
    50  H    0.112979
    51  H    0.085172
    52  H    0.110308
    53  H    0.092758
    54  H    0.123737
    55  H    0.106103
    56  H    0.084915
    57  H    0.132839
    58  H    0.102281
    59  H    0.075642
    60  H    0.324065
    61  H    0.076517
    62  H    0.099668
    63  H    0.114657
    64  H    0.118909
    65  H    0.074176
    66  H    0.097271
    67  H    0.091299
    68  H    0.103984
    69  H    0.040104
    70  H    0.120916
    71  H    0.106785
    72  H    0.078887
    73  H    0.128378
    74  H    0.093431
    75  H    0.138714
    76  H    0.079678
    77  H    0.088840
    78  H    0.107326
    79  H    0.069445
    80  H    0.133058
    81  H    0.081721
    82  H    0.317088
    83  H    0.283988
    84  H    0.101437
    85  H    0.104557
    86  H    0.129200
    87  H    0.113497
    88  H    0.063178
    89  H    0.104326
    90  H    0.142077
    91  H    0.098105
    92  H    0.079126
    93  H    0.072790
    94  H    0.081999
    95  H    0.064904
    96  H    0.090554
    97  H    0.075064
    98  H    0.121187
    99  H    0.131996
   100  H    0.113585
 Sum of Mulliken charges =  -0.00000

 Dipole moment (field-independent basis, Debye):
    X=              4.5809    Y=             -0.7867    Z=              1.8353  Tot=              4.9972
 Quadrupole moment (field-independent basis, Debye-Ang):
   XX=           -262.0665   YY=           -260.2845   ZZ=           -275.5256
   XY=             -6.8297   XZ=             15.6073   YZ=             -6.3235

 Normal termination of Gaussian 16 at Mon Jul 29 14:21:56 2019.
