 Gaussian 16, Revision A.03,
 Gaussian 16:  ES64L-G16RevA.03 25-Dec-2016

 -------------------------------------
 # td=(NStates=1) CAM-B3LYP/6-31G(d,p)
 -------------------------------------

 --
 TD
 --
 Symbolic Z-matrix:
 Charge =  0 Multiplicity = 1

                         Standard orientation:
 ---------------------------------------------------------------------
 Center     Atomic      Atomic             Coordinates (Angstroms)
 Number     Number       Type             X           Y           Z
 ---------------------------------------------------------------------
      1          8           0      -11.687732    0.191257   -1.617282
      2          8           0      -12.934792   -2.503932    1.543578
      3          8           0       10.544872   -0.760907   -2.146120
      4          8           0       14.515870   -0.957586   -0.262521
      5          6           0      -10.966449   -0.096241   -0.375048
      6          6           0      -11.654841   -1.179364   -1.139266
      7          6           0      -11.687007    0.484670    0.921163
      8          6           0      -12.951215   -1.749487   -0.857812
      9          6           0      -13.153476   -0.059563    1.026999
     10          6           0      -13.414903   -1.452115    0.543917
     11          6           0      -10.881556   -2.016659   -2.243039
     12          6           0       -9.570200    0.100970   -0.417122
     13          6           0      -11.018170    0.079931    2.158875
     14          6           0      -11.742974    1.994747    0.793454
     15          6           0       -8.725255   -0.851194    0.051998
     16          6           0       -7.291073   -0.735132    0.118947
     17          6           0       -6.402097   -1.926016    0.307138
     18          6           0       -6.656522    0.517876   -0.012978
     19          6           0       -5.283948    0.863245   -0.125829
     20          6           0       11.875519   -0.220918    1.446929
     21          6           0       11.716382   -0.531641   -1.271186
     22          6           0       12.721861   -1.400288    1.348486
     23          6           0       13.401897   -1.724220    0.012586
     24          6           0       12.431209   -1.787669   -1.138673
     25          6           0       11.030340    0.012492    0.152080
     26          6           0       11.030248   -0.156306    2.711329
     27          6           0       12.903899    1.060976    1.489529
     28          6           0       12.411302    0.702973   -1.923292
     29          6           0       -4.723102    2.121480   -0.395773
     30          6           0        9.909198    0.555935    0.119910
     31          6           0       -3.430250    2.582469   -0.446520
     32          6           0        8.667330    0.995040    0.023760
     33          6           0       -3.103214    3.938479   -0.576042
     34          6           0       -2.366450    1.594612   -0.398289
     35          6           0        7.475345    0.059086    0.049206
     36          6           0        7.609729   -1.344822    0.029973
     37          6           0        6.261489    0.749513    0.051046
     38          6           0       -0.938187    1.922292   -0.295243
     39          6           0        4.919159    0.137693    0.161928
     40          6           0        0.009481    0.972942   -0.122152
     41          6           0        3.872944    0.896136   -0.047181
     42          6           0        1.409116    1.236437   -0.117161
     43          6           0        2.496214    0.342868   -0.013926
     44          6           0        2.290790   -1.075068    0.115017
     45          1           0      -12.994576   -2.791994   -0.983185
     46          1           0      -13.595605   -1.437592   -1.675473
     47          1           0      -13.511189   -0.153088    2.131812
     48          1           0      -13.887635    0.553699    0.456871
     49          1           0      -14.477199   -1.472231    0.415300
     50          1           0      -10.448042   -2.973973   -1.818283
     51          1           0      -11.718151   -2.156113   -3.039508
     52          1           0      -10.021218   -1.427196   -2.832151
     53          1           0       -9.242506    1.161800   -0.565672
     54          1           0       -9.981122    0.333427    2.320095
     55          1           0      -11.606127    0.244794    3.190230
     56          1           0      -11.126032   -0.997419    2.297516
     57          1           0      -12.207353    2.441501   -0.192998
     58          1           0      -12.319055    2.414676    1.625096
     59          1           0      -10.716763    2.463594    1.003149
     60          1           0      -11.976317   -2.796398    1.288906
     61          1           0       -9.163213   -1.600629    0.409682
     62          1           0       -5.540446   -1.977878   -0.387029
     63          1           0       -5.921089   -2.030229    1.267362
     64          1           0       -7.093507   -2.832712    0.272060
     65          1           0       -7.316250    1.465201   -0.103095
     66          1           0       -4.498716    0.119361   -0.080191
     67          1           0       13.554591   -1.660126    2.149358
     68          1           0       12.076828   -2.223505    1.798367
     69          1           0       13.812834   -2.772877    0.077423
     70          1           0       13.063161   -1.845429   -2.011428
     71          1           0       11.669539   -2.597649   -1.139113
     72          1           0       11.478284   -0.229189    3.542959
     73          1           0       10.429609    0.613426    2.886077
     74          1           0       10.162223   -0.971057    2.676163
     75          1           0       13.607249    1.333777    0.615272
     76          1           0       12.178615    1.928340    1.750650
     77          1           0       13.779371    0.710802    2.280517
     78          1           0       12.485845    0.489885   -2.964273
     79          1           0       11.742343    1.451200   -1.986690
     80          1           0       13.353523    0.948257   -1.489974
     81          1           0       -5.447700    2.908836   -0.303611
     82          1           0        9.782243    0.042028   -2.292683
     83          1           0       15.170813   -0.838921    0.551128
     84          1           0        8.471582    2.158531   -0.115225
     85          1           0       -2.675306    4.493206    0.456752
     86          1           0       -2.391268    4.263151   -1.387382
     87          1           0       -4.078344    4.347345   -0.676150
     88          1           0       -2.518813    0.579578   -0.396529
     89          1           0        6.679031   -1.871538   -0.337771
     90          1           0        8.558315   -1.654206   -0.407293
     91          1           0        7.782344   -1.632917    1.014551
     92          1           0        6.326381    1.920625   -0.020723
     93          1           0       -0.752550    2.978420   -0.237707
     94          1           0        4.969130   -0.940435    0.279839
     95          1           0       -0.468575    0.077944   -0.123133
     96          1           0        4.019598    1.988032   -0.166534
     97          1           0        1.686823    2.290599   -0.117932
     98          1           0        1.033709   -1.342473   -0.453749
     99          1           0        3.198129   -1.719554   -0.335680
    100          1           0        2.221428   -1.222336    1.436355
 ---------------------------------------------------------------------

 SCF Done:  E(RCAM-B3LYP) =  -1857.26989745     A.U. after   15 cycles

 Excitation energies and oscillator strengths:

 Excited State   1:      Singlet-A      2.1480 eV  577.20 nm  f=2.5523  <S**2>=0.000
     163 ->166        -0.12621
     164 ->165         0.69769
 This state for optimization and/or second-order correction.
 Total Energy, E(TD-HF/TD-DFT) =  -1857.19095828
 Copying the excited state density for this state as the 1-particle RhoCI density.

 The electronic state is 1-A.
 Alpha  occ. eigenvalues --  -19.22984 -19.22035 -19.21294 -19.20454 -10.32532
 Alpha  occ. eigenvalues --  -10.31753 -10.31582 -10.31543 -10.30896 -10.30604
 Alpha  occ. eigenvalues --  -10.29024 -10.28082 -10.27883 -10.27793 -10.27679
 Alpha  occ. eigenvalues --  -10.27560 -10.27393 -10.27151 -10.27063 -10.27045
 Alpha  occ. eigenvalues --  -10.26709 -10.26564 -10.26531 -10.26512 -10.26456
 Alpha  occ. eigenvalues --  -10.26437 -10.26408 -10.26305 -10.26228 -10.26136
 Alpha  occ. eigenvalues --  -10.26133 -10.26011 -10.25963 -10.25894 -10.25713
 Alpha  occ. eigenvalues --  -10.25490 -10.25377 -10.25376 -10.25218 -10.25129
 Alpha  occ. eigenvalues --  -10.24699 -10.24597 -10.23514 -10.22471  -1.13377
 Alpha  occ. eigenvalues --   -1.10711  -1.05756  -1.04923  -0.92837  -0.92683
 Alpha  occ. eigenvalues --   -0.92023  -0.91788  -0.90599  -0.90357  -0.88288
 Alpha  occ. eigenvalues --   -0.87948  -0.86954  -0.85704  -0.85198  -0.83335
 Alpha  occ. eigenvalues --   -0.82447  -0.80755  -0.80606  -0.78480  -0.78078
 Alpha  occ. eigenvalues --   -0.77370  -0.76195  -0.75996  -0.75525  -0.75370
 Alpha  occ. eigenvalues --   -0.75024  -0.74315  -0.72542  -0.70501  -0.69891
 Alpha  occ. eigenvalues --   -0.68470  -0.66765  -0.65330  -0.64882  -0.64012
 Alpha  occ. eigenvalues --   -0.63805  -0.62571  -0.60957  -0.60037  -0.59967
 Alpha  occ. eigenvalues --   -0.58586  -0.58340  -0.57709  -0.57046  -0.56477
 Alpha  occ. eigenvalues --   -0.56014  -0.55335  -0.54908  -0.54423  -0.54293
 Alpha  occ. eigenvalues --   -0.53772  -0.52613  -0.52399  -0.52369  -0.51775
 Alpha  occ. eigenvalues --   -0.51726  -0.50900  -0.50725  -0.50171  -0.49554
 Alpha  occ. eigenvalues --   -0.49133  -0.48764  -0.48650  -0.48494  -0.48350
 Alpha  occ. eigenvalues --   -0.47851  -0.47546  -0.47415  -0.47248  -0.47224
 Alpha  occ. eigenvalues --   -0.46839  -0.46493  -0.46185  -0.46133  -0.45991
 Alpha  occ. eigenvalues --   -0.44945  -0.44890  -0.44614  -0.44431  -0.43901
 Alpha  occ. eigenvalues --   -0.43166  -0.43144  -0.42974  -0.42876  -0.42580
 Alpha  occ. eigenvalues --   -0.42208  -0.42031  -0.41510  -0.41397  -0.41175
 Alpha  occ. eigenvalues --   -0.40674  -0.40495  -0.40403  -0.40170  -0.39675
 Alpha  occ. eigenvalues --   -0.39447  -0.39235  -0.39003  -0.38372  -0.38276
 Alpha  occ. eigenvalues --   -0.38206  -0.37929  -0.37804  -0.37567  -0.36310
 Alpha  occ. eigenvalues --   -0.35920  -0.35714  -0.34859  -0.34239  -0.33725
 Alpha  occ. eigenvalues --   -0.32616  -0.32527  -0.31399  -0.31214  -0.30374
 Alpha  occ. eigenvalues --   -0.30014  -0.27386  -0.24020  -0.19767
 Alpha virt. eigenvalues --   -0.06031  -0.00559   0.02823   0.06098   0.07643
 Alpha virt. eigenvalues --    0.08301   0.08815   0.09487   0.09707   0.10408
 Alpha virt. eigenvalues --    0.10829   0.12398   0.12833   0.13340   0.13734

 Mulliken charges:
               1
     1  O   -0.515793
     2  O   -0.570532
     3  O   -0.616438
     4  O   -0.558164
     5  C    0.215047
     6  C    0.207205
     7  C    0.056776
     8  C   -0.227238
     9  C   -0.190278
    10  C    0.142207
    11  C   -0.311206
    12  C   -0.086538
    13  C   -0.327007
    14  C   -0.310520
    15  C   -0.048006
    16  C    0.080958
    17  C   -0.378116
    18  C   -0.111038
    19  C   -0.062597
    20  C    0.041646
    21  C    0.273295
    22  C   -0.204694
    23  C    0.179965
    24  C   -0.195139
    25  C   -0.141245
    26  C   -0.305286
    27  C   -0.292619
    28  C   -0.295454
    29  C   -0.131213
    30  C    0.221338
    31  C    0.138060
    32  C   -0.315730
    33  C   -0.386455
    34  C   -0.124939
    35  C    0.130348
    36  C   -0.397132
    37  C   -0.130764
    38  C   -0.073456
    39  C   -0.077729
    40  C   -0.062723
    41  C   -0.093778
    42  C   -0.132905
    43  C    0.129255
    44  C   -0.332431
    45  H    0.122301
    46  H    0.130344
    47  H    0.109101
    48  H    0.099473
    49  H    0.108521
    50  H    0.092965
    51  H    0.098829
    52  H    0.115166
    53  H    0.102766
    54  H    0.112911
    55  H    0.090653
    56  H    0.096694
    57  H    0.112523
    58  H    0.105271
    59  H    0.085099
    60  H    0.306133
    61  H    0.052682
    62  H    0.126597
    63  H    0.130031
    64  H    0.093890
    65  H    0.069373
    66  H    0.067635
    67  H    0.070047
    68  H    0.093927
    69  H    0.070952
    70  H    0.125399
    71  H    0.134041
    72  H    0.111478
    73  H    0.122254
    74  H    0.077985
    75  H    0.116915
    76  H    0.099370
    77  H    0.056180
    78  H    0.108204
    79  H    0.099331
    80  H    0.122771
    81  H    0.066301
    82  H    0.317258
    83  H    0.321416
    84  H    0.100998
    85  H    0.095639
    86  H    0.131850
    87  H    0.113476
    88  H    0.074211
    89  H    0.110568
    90  H    0.141104
    91  H    0.136037
    92  H    0.068683
    93  H    0.076822
    94  H    0.085434
    95  H    0.070871
    96  H    0.090667
    97  H    0.078925
    98  H    0.071616
    99  H    0.107907
   100  H    0.093462
 Sum of Mulliken charges =  -0.00000

 Dipole moment (field-independent basis, Debye):
    X=              4.0123    Y=             -0.5035    Z=              2.1697  Tot=              4.5890
 Quadrupole moment (field-independent basis, Debye-Ang):
   XX=           -260.9461   YY=           -259.4230   ZZ=           -280.8337
   XY=             -0.0716   XZ=             29.6047   YZ=             -1.3619

 Normal termination of Gaussian 16 at Fri Aug  2 12:55:57 2019.
