 Gaussian 16, Revision A.03,
 Gaussian 16:  ES64L-G16RevA.03 25-Dec-2016

 -------------------------------------
 # td=(NStates=1) CAM-B3LYP/6-31G(d,p)
 -------------------------------------

 --
 TD
 --
 Symbolic Z-matrix:
 Charge =  0 Multiplicity = 1

                         Standard orientation:
 ---------------------------------------------------------------------
 Center     Atomic      Atomic             Coordinates (Angstroms)
 Number     Number       Type             X           Y           Z
 ---------------------------------------------------------------------
      1          8           0      -11.666415    0.097959   -1.512387
      2          8           0      -12.872692   -2.489623    1.483856
      3          8           0       10.722330   -1.270508   -2.021581
      4          8           0       14.427291   -1.192584    0.160281
      5          6           0      -11.023710   -0.245125   -0.266276
      6          6           0      -11.617485   -1.286495   -1.178685
      7          6           0      -11.711333    0.259978    0.940558
      8          6           0      -12.915471   -1.843866   -0.844602
      9          6           0      -13.254584   -0.114178    0.931532
     10          6           0      -13.384092   -1.553434    0.539082
     11          6           0      -10.722821   -2.207863   -2.115673
     12          6           0       -9.586149    0.177684   -0.414167
     13          6           0      -10.969914   -0.204702    2.255530
     14          6           0      -11.658623    1.825006    0.806818
     15          6           0       -8.652508   -0.611856    0.149030
     16          6           0       -7.170617   -0.483841    0.066775
     17          6           0       -6.319248   -1.667929    0.420439
     18          6           0       -6.602203    0.768762   -0.118843
     19          6           0       -5.226688    0.997988   -0.195002
     20          6           0       11.782578    0.076508    1.374303
     21          6           0       11.699077   -0.683494   -1.188469
     22          6           0       12.534311   -1.244855    1.693147
     23          6           0       13.238299   -1.864869    0.468239
     24          6           0       12.289746   -2.019804   -0.709029
     25          6           0       11.078084    0.069892   -0.037613
     26          6           0       10.825987    0.388402    2.520121
     27          6           0       12.827336    1.221701    1.285314
     28          6           0       12.529403    0.258965   -2.022295
     29          6           0       -4.741742    2.311369   -0.327355
     30          6           0        9.918898    0.617107   -0.170712
     31          6           0       -3.324087    2.684915   -0.376573
     32          6           0        8.664756    0.984601   -0.371842
     33          6           0       -3.167295    4.192918   -0.716056
     34          6           0       -2.359109    1.726657   -0.213817
     35          6           0        7.513226    0.170925   -0.055633
     36          6           0        7.695303   -1.321252    0.069189
     37          6           0        6.228901    0.830771   -0.253624
     38          6           0       -0.961767    2.044279   -0.167414
     39          6           0        4.924786    0.137796   -0.129460
     40          6           0        0.006262    0.933844   -0.112501
     41          6           0        3.786657    0.890670   -0.188065
     42          6           0        1.361747    1.248494   -0.220146
     43          6           0        2.452930    0.340747   -0.189430
     44          6           0        2.263653   -1.157947    0.097751
     45          1           0      -13.047278   -2.886803   -0.990627
     46          1           0      -13.503768   -1.374564   -1.569000
     47          1           0      -13.717866   -0.098052    1.955377
     48          1           0      -13.969635    0.472797    0.262620
     49          1           0      -14.413831   -1.856994    0.433652
     50          1           0      -10.386774   -3.147424   -1.639244
     51          1           0      -11.462838   -2.592660   -2.788476
     52          1           0       -9.815278   -1.817783   -2.568269
     53          1           0       -9.321439    1.105537   -0.782611
     54          1           0       -9.927262    0.150828    2.388647
     55          1           0      -11.805983    0.111160    3.004804
     56          1           0      -10.827593   -1.134338    2.469535
     57          1           0      -11.850681    2.348642   -0.232697
     58          1           0      -12.086259    2.329365    1.598714
     59          1           0      -10.642155    2.216034    0.994315
     60          1           0      -11.838781   -2.266579    1.267892
     61          1           0       -8.962044   -1.634814    0.377196
     62          1           0       -5.679657   -1.889002   -0.489181
     63          1           0       -5.785373   -1.364711    1.356496
     64          1           0       -7.033654   -2.487552    0.545280
     65          1           0       -7.201989    1.600617   -0.145720
     66          1           0       -4.471592    0.062752   -0.042800
     67          1           0       13.344812   -1.149781    2.382477
     68          1           0       11.951517   -2.071178    1.908360
     69          1           0       13.546285   -2.987204    0.690865
     70          1           0       12.908730   -2.397639   -1.628543
     71          1           0       11.590414   -2.788550   -0.469527
     72          1           0       11.298437    0.577617    3.355456
     73          1           0       10.502293    1.461461    2.308998
     74          1           0        9.997722   -0.350236    2.509419
     75          1           0       13.661404    0.954386    0.573598
     76          1           0       12.255012    2.194502    1.168159
     77          1           0       13.344612    1.330754    2.257921
     78          1           0       12.828690   -0.228537   -2.838456
     79          1           0       11.744883    1.128113   -2.324786
     80          1           0       13.380417    0.763769   -1.587814
     81          1           0       -5.455921    3.107594   -0.429307
     82          1           0       10.158901   -0.470627   -2.618857
     83          1           0       14.680734   -0.911981    1.177629
     84          1           0        8.458151    2.119613   -0.589151
     85          1           0       -2.511745    4.560593    0.275233
     86          1           0       -2.753281    4.313977   -1.765979
     87          1           0       -4.159088    4.793833   -0.855960
     88          1           0       -2.784532    0.759936    0.129091
     89          1           0        6.801915   -1.797985    0.005805
     90          1           0        8.543677   -1.665657   -0.469637
     91          1           0        8.045962   -1.749416    0.974634
     92          1           0        6.358257    1.749279   -0.514493
     93          1           0       -0.616699    3.092738   -0.201644
     94          1           0        4.693680   -0.985307    0.121126
     95          1           0       -0.456620   -0.039052    0.334192
     96          1           0        3.825081    1.886575   -0.692712
     97          1           0        1.645334    2.361983   -0.249898
     98          1           0        1.210653   -1.552842   -0.387899
     99          1           0        3.030677   -1.685669   -0.481485
    100          1           0        2.282268   -1.224286    1.438684
 ---------------------------------------------------------------------

 SCF Done:  E(RCAM-B3LYP) =  -1857.30466508     A.U. after   15 cycles

 Excitation energies and oscillator strengths:

 Excited State   1:      Singlet-A      2.1306 eV  581.93 nm  f=2.9280  <S**2>=0.000
     163 ->166         0.13693
     164 ->165         0.69426
 This state for optimization and/or second-order correction.
 Total Energy, E(TD-HF/TD-DFT) =  -1857.22636876
 Copying the excited state density for this state as the 1-particle RhoCI density.

 The electronic state is 1-A.
 Alpha  occ. eigenvalues --  -19.22898 -19.22253 -19.22080 -19.21722 -10.32406
 Alpha  occ. eigenvalues --  -10.31678 -10.31272 -10.30989 -10.29327 -10.29140
 Alpha  occ. eigenvalues --  -10.28812 -10.28593 -10.28579 -10.28038 -10.27693
 Alpha  occ. eigenvalues --  -10.27658 -10.27552 -10.27444 -10.27376 -10.27322
 Alpha  occ. eigenvalues --  -10.27299 -10.27260 -10.26623 -10.26617 -10.26558
 Alpha  occ. eigenvalues --  -10.26475 -10.26460 -10.26174 -10.26100 -10.26036
 Alpha  occ. eigenvalues --  -10.25907 -10.25836 -10.25794 -10.25637 -10.25621
 Alpha  occ. eigenvalues --  -10.25598 -10.25528 -10.25132 -10.25038 -10.24752
 Alpha  occ. eigenvalues --  -10.24535 -10.24113 -10.24018 -10.23341  -1.15237
 Alpha  occ. eigenvalues --   -1.09893  -1.08694  -1.08259  -0.92761  -0.91893
 Alpha  occ. eigenvalues --   -0.90968  -0.90651  -0.89931  -0.89288  -0.88085
 Alpha  occ. eigenvalues --   -0.86300  -0.85600  -0.85204  -0.84392  -0.82625
 Alpha  occ. eigenvalues --   -0.81517  -0.80881  -0.80384  -0.78007  -0.77658
 Alpha  occ. eigenvalues --   -0.77373  -0.77327  -0.76871  -0.76180  -0.75679
 Alpha  occ. eigenvalues --   -0.75042  -0.74168  -0.72418  -0.70444  -0.69002
 Alpha  occ. eigenvalues --   -0.67786  -0.66405  -0.65274  -0.65023  -0.64464
 Alpha  occ. eigenvalues --   -0.63288  -0.61516  -0.60916  -0.59520  -0.59078
 Alpha  occ. eigenvalues --   -0.58605  -0.57813  -0.57378  -0.56803  -0.55861
 Alpha  occ. eigenvalues --   -0.55707  -0.55080  -0.54784  -0.54210  -0.54007
 Alpha  occ. eigenvalues --   -0.53947  -0.53640  -0.52635  -0.52404  -0.52043
 Alpha  occ. eigenvalues --   -0.51190  -0.50824  -0.50691  -0.50414  -0.49952
 Alpha  occ. eigenvalues --   -0.49704  -0.49334  -0.48916  -0.48615  -0.47859
 Alpha  occ. eigenvalues --   -0.47741  -0.47556  -0.47433  -0.47197  -0.46869
 Alpha  occ. eigenvalues --   -0.46637  -0.46096  -0.46016  -0.45758  -0.45377
 Alpha  occ. eigenvalues --   -0.44969  -0.44745  -0.44574  -0.44396  -0.43768
 Alpha  occ. eigenvalues --   -0.43563  -0.43424  -0.43153  -0.42970  -0.42882
 Alpha  occ. eigenvalues --   -0.42245  -0.42065  -0.41938  -0.41835  -0.41410
 Alpha  occ. eigenvalues --   -0.41176  -0.40513  -0.40250  -0.40231  -0.39977
 Alpha  occ. eigenvalues --   -0.39609  -0.39487  -0.39352  -0.38906  -0.38675
 Alpha  occ. eigenvalues --   -0.38654  -0.38225  -0.38020  -0.37561  -0.36922
 Alpha  occ. eigenvalues --   -0.36371  -0.35407  -0.35338  -0.34650  -0.34148
 Alpha  occ. eigenvalues --   -0.32895  -0.32164  -0.31802  -0.31554  -0.31156
 Alpha  occ. eigenvalues --   -0.29870  -0.26992  -0.23723  -0.19101
 Alpha virt. eigenvalues --   -0.05647  -0.00688   0.02907   0.06781   0.06896
 Alpha virt. eigenvalues --    0.08760   0.09612   0.09705   0.09850   0.10602
 Alpha virt. eigenvalues --    0.11637   0.12559   0.12904   0.13122   0.13375

 Mulliken charges:
               1
     1  O   -0.514655
     2  O   -0.539240
     3  O   -0.568568
     4  O   -0.538147
     5  C    0.165203
     6  C    0.242702
     7  C    0.007761
     8  C   -0.205209
     9  C   -0.173116
    10  C    0.112735
    11  C   -0.343120
    12  C   -0.060762
    13  C   -0.318280
    14  C   -0.325185
    15  C   -0.099487
    16  C    0.035872
    17  C   -0.363363
    18  C   -0.082239
    19  C   -0.070684
    20  C    0.015790
    21  C    0.260146
    22  C   -0.201237
    23  C    0.145645
    24  C   -0.183781
    25  C   -0.079261
    26  C   -0.284085
    27  C   -0.329752
    28  C   -0.289323
    29  C   -0.138861
    30  C    0.177911
    31  C    0.089850
    32  C   -0.306285
    33  C   -0.360994
    34  C   -0.103686
    35  C    0.123606
    36  C   -0.385402
    37  C   -0.097045
    38  C   -0.108686
    39  C   -0.108740
    40  C   -0.097028
    41  C   -0.096036
    42  C   -0.115190
    43  C    0.074336
    44  C   -0.344840
    45  H    0.114794
    46  H    0.129631
    47  H    0.104957
    48  H    0.111240
    49  H    0.090498
    50  H    0.103206
    51  H    0.113778
    52  H    0.128955
    53  H    0.103385
    54  H    0.118141
    55  H    0.101975
    56  H    0.114505
    57  H    0.119707
    58  H    0.109167
    59  H    0.091853
    60  H    0.298337
    61  H    0.067110
    62  H    0.126579
    63  H    0.134487
    64  H    0.105590
    65  H    0.075626
    66  H    0.081841
    67  H    0.081906
    68  H    0.109249
    69  H    0.051586
    70  H    0.106109
    71  H    0.124851
    72  H    0.107880
    73  H    0.091602
    74  H    0.111149
    75  H    0.125904
    76  H    0.104473
    77  H    0.084128
    78  H    0.121946
    79  H    0.068335
    80  H    0.128128
    81  H    0.085188
    82  H    0.294280
    83  H    0.305683
    84  H    0.093762
    85  H    0.106387
    86  H    0.130546
    87  H    0.108177
    88  H    0.080474
    89  H    0.113500
    90  H    0.146010
    91  H    0.109900
    92  H    0.068584
    93  H    0.097672
    94  H    0.093298
    95  H    0.097303
    96  H    0.085325
    97  H    0.081899
    98  H    0.099431
    99  H    0.124561
   100  H    0.096143
 Sum of Mulliken charges =  -0.00000

 Dipole moment (field-independent basis, Debye):
    X=              1.6082    Y=              0.7237    Z=              1.5089  Tot=              2.3209
 Quadrupole moment (field-independent basis, Debye-Ang):
   XX=           -285.6732   YY=           -261.0009   ZZ=           -274.3092
   XY=              2.0329   XZ=             27.3358   YZ=             -1.3878

 Normal termination of Gaussian 16 at Tue Jul 30 13:53:02 2019.
