 Gaussian 16, Revision A.03,
 Gaussian 16:  ES64L-G16RevA.03 25-Dec-2016

 -------------------------------------
 # td=(NStates=1) CAM-B3LYP/6-31G(d,p)
 -------------------------------------

 --
 TD
 --
 Symbolic Z-matrix:
 Charge =  0 Multiplicity = 1

                         Standard orientation:
 ---------------------------------------------------------------------
 Center     Atomic      Atomic             Coordinates (Angstroms)
 Number     Number       Type             X           Y           Z
 ---------------------------------------------------------------------
      1          8           0      -11.589771    0.096016   -1.593534
      2          8           0      -12.800744   -2.432014    1.493581
      3          8           0       10.550018   -1.044968   -2.127160
      4          8           0       14.475463   -0.985721   -0.242775
      5          6           0      -11.022934   -0.133004   -0.291416
      6          6           0      -11.503902   -1.268676   -1.235477
      7          6           0      -11.806421    0.455663    0.831526
      8          6           0      -12.930384   -1.906083   -0.947253
      9          6           0      -13.322314   -0.133763    0.805101
     10          6           0      -13.460290   -1.618804    0.455796
     11          6           0      -10.555747   -2.081511   -2.004140
     12          6           0       -9.540783    0.145828   -0.296141
     13          6           0      -11.301810    0.061031    2.252218
     14          6           0      -11.912211    2.001598    0.713552
     15          6           0       -8.658772   -0.765397    0.128671
     16          6           0       -7.196938   -0.553556    0.108364
     17          6           0       -6.471785   -1.785480    0.524105
     18          6           0       -6.565474    0.650430   -0.017746
     19          6           0       -5.198435    0.800349   -0.059198
     20          6           0       11.955556   -0.021355    1.333507
     21          6           0       11.578955   -0.653309   -1.244698
     22          6           0       12.639524   -1.267497    1.459084
     23          6           0       13.368850   -1.784269    0.225793
     24          6           0       12.425993   -1.932444   -0.958926
     25          6           0       11.114342   -0.090045    0.035948
     26          6           0       11.123597    0.206030    2.652782
     27          6           0       12.862537    1.268187    1.276467
     28          6           0       12.385578    0.328306   -2.117070
     29          6           0       -4.761517    2.082218   -0.429894
     30          6           0        9.875160    0.404194    0.077176
     31          6           0       -3.451302    2.494720   -0.528861
     32          6           0        8.667639    0.887560   -0.124082
     33          6           0       -3.067603    4.075729   -0.616389
     34          6           0       -2.313005    1.714086   -0.330561
     35          6           0        7.432572    0.134337    0.079192
     36          6           0        7.596233   -1.329244    0.385976
     37          6           0        6.237531    0.719142    0.026477
     38          6           0       -0.973946    2.016228   -0.450337
     39          6           0        4.967635    0.201684    0.163287
     40          6           0        0.017385    1.048358   -0.347057
     41          6           0        3.797444    0.842553    0.012326
     42          6           0        1.479326    1.333350   -0.152450
     43          6           0        2.456349    0.380480   -0.025866
     44          6           0        2.254605   -0.980182    0.395320
     45          1           0      -13.043117   -2.914029   -1.037072
     46          1           0      -13.654028   -1.557696   -1.730177
     47          1           0      -14.003956    0.222692    1.682102
     48          1           0      -13.952977    0.413252    0.146243
     49          1           0      -14.606173   -1.901057    0.365149
     50          1           0      -10.404280   -3.125231   -1.536942
     51          1           0      -11.004128   -2.544373   -3.044225
     52          1           0       -9.659787   -1.410814   -2.313984
     53          1           0       -9.399107    1.207245   -0.712837
     54          1           0      -10.335760    0.456041    2.439986
     55          1           0      -11.934902    0.398127    3.136288
     56          1           0      -11.298155   -1.087735    2.407193
     57          1           0      -12.279742    2.324512   -0.374197
     58          1           0      -12.626534    2.455197    1.537884
     59          1           0      -11.030574    2.371134    0.827831
     60          1           0      -11.821245   -2.532724    1.235038
     61          1           0       -8.983757   -1.702855    0.715001
     62          1           0       -5.859061   -2.074754   -0.369396
     63          1           0       -5.922453   -1.646656    1.380258
     64          1           0       -7.244283   -2.499833    0.744160
     65          1           0       -7.211598    1.438101   -0.179081
     66          1           0       -4.636500   -0.048080    0.171074
     67          1           0       13.443177   -1.078516    2.182092
     68          1           0       11.949106   -2.030267    1.898350
     69          1           0       13.692151   -2.832976    0.487828
     70          1           0       13.064462   -2.068607   -1.785244
     71          1           0       11.849441   -2.759337   -0.915398
     72          1           0       11.851118    0.040363    3.530944
     73          1           0       10.533661    1.107422    2.732733
     74          1           0       10.517966   -0.641438    2.513008
     75          1           0       13.425190    1.390742    0.420695
     76          1           0       12.304959    2.243357    1.445221
     77          1           0       13.625148    0.965983    2.167196
     78          1           0       12.683815   -0.085960   -3.125684
     79          1           0       11.866154    1.185872   -2.440384
     80          1           0       13.429643    0.655568   -1.594793
     81          1           0       -5.433301    2.972998   -0.529044
     82          1           0        9.918747   -0.345195   -2.114104
     83          1           0       15.069951   -0.536803    0.405734
     84          1           0        8.548111    2.017674   -0.350019
     85          1           0       -2.425616    4.415633    0.275694
     86          1           0       -2.379214    4.118169   -1.616873
     87          1           0       -3.968870    4.917704   -0.786464
     88          1           0       -2.280716    0.443111   -0.190318
     89          1           0        6.597504   -1.779069    0.338038
     90          1           0        8.296127   -1.706311   -0.520950
     91          1           0        8.375922   -1.413441    1.174571
     92          1           0        6.317213    1.824576   -0.187956
     93          1           0       -0.808845    2.863470   -0.669147
     94          1           0        4.835647   -0.827095    0.341813
     95          1           0       -0.301454    0.047971   -0.466929
     96          1           0        3.890016    1.912952   -0.259324
     97          1           0        1.631939    2.296654   -0.512790
     98          1           0        1.202075   -1.364808    0.192556
     99          1           0        3.056579   -1.832495   -0.044504
    100          1           0        2.127153   -1.109537    1.681638
 ---------------------------------------------------------------------

 SCF Done:  E(RCAM-B3LYP) =  -1857.31405976     A.U. after   15 cycles

 Excitation energies and oscillator strengths:

 Excited State   1:      Singlet-A      2.1966 eV  564.45 nm  f=2.8384  <S**2>=0.000
     163 ->166        -0.12593
     164 ->165         0.69856
 This state for optimization and/or second-order correction.
 Total Energy, E(TD-HF/TD-DFT) =  -1857.23333742
 Copying the excited state density for this state as the 1-particle RhoCI density.

 The electronic state is 1-A.
 Alpha  occ. eigenvalues --  -19.22478 -19.22243 -19.21579 -19.20519 -10.32976
 Alpha  occ. eigenvalues --  -10.32029 -10.31768 -10.31749 -10.31729 -10.29359
 Alpha  occ. eigenvalues --  -10.29032 -10.28192 -10.28187 -10.28031 -10.27950
 Alpha  occ. eigenvalues --  -10.27679 -10.27642 -10.27585 -10.27579 -10.27238
 Alpha  occ. eigenvalues --  -10.27169 -10.27087 -10.27085 -10.26987 -10.26924
 Alpha  occ. eigenvalues --  -10.26675 -10.26590 -10.26413 -10.26114 -10.26071
 Alpha  occ. eigenvalues --  -10.25849 -10.25707 -10.25663 -10.25500 -10.25347
 Alpha  occ. eigenvalues --  -10.25337 -10.25139 -10.24963 -10.24710 -10.24674
 Alpha  occ. eigenvalues --  -10.24613 -10.24372 -10.24289 -10.23565  -1.15602
 Alpha  occ. eigenvalues --   -1.10749  -1.08964  -1.07173  -0.94419  -0.92932
 Alpha  occ. eigenvalues --   -0.92623  -0.91489  -0.90677  -0.89718  -0.87838
 Alpha  occ. eigenvalues --   -0.86721  -0.86466  -0.86181  -0.84776  -0.83718
 Alpha  occ. eigenvalues --   -0.82211  -0.80816  -0.80400  -0.78068  -0.77063
 Alpha  occ. eigenvalues --   -0.76496  -0.76115  -0.76097  -0.75884  -0.75758
 Alpha  occ. eigenvalues --   -0.75378  -0.74070  -0.72748  -0.70511  -0.69981
 Alpha  occ. eigenvalues --   -0.68583  -0.67350  -0.65577  -0.65496  -0.64656
 Alpha  occ. eigenvalues --   -0.64457  -0.63411  -0.61653  -0.60387  -0.60309
 Alpha  occ. eigenvalues --   -0.59418  -0.58910  -0.57924  -0.57415  -0.56222
 Alpha  occ. eigenvalues --   -0.56107  -0.55827  -0.55122  -0.54540  -0.54458
 Alpha  occ. eigenvalues --   -0.53486  -0.53427  -0.53249  -0.52597  -0.51815
 Alpha  occ. eigenvalues --   -0.51634  -0.51033  -0.50385  -0.50184  -0.49653
 Alpha  occ. eigenvalues --   -0.49418  -0.49010  -0.48799  -0.48483  -0.48010
 Alpha  occ. eigenvalues --   -0.47859  -0.47611  -0.47470  -0.46918  -0.46753
 Alpha  occ. eigenvalues --   -0.46403  -0.46222  -0.45971  -0.45278  -0.44913
 Alpha  occ. eigenvalues --   -0.44787  -0.44589  -0.44276  -0.44131  -0.43826
 Alpha  occ. eigenvalues --   -0.43601  -0.43269  -0.43186  -0.42956  -0.42585
 Alpha  occ. eigenvalues --   -0.42439  -0.42090  -0.41762  -0.41579  -0.41367
 Alpha  occ. eigenvalues --   -0.41113  -0.40933  -0.40599  -0.40418  -0.40207
 Alpha  occ. eigenvalues --   -0.39999  -0.39632  -0.39294  -0.39099  -0.38792
 Alpha  occ. eigenvalues --   -0.38472  -0.37831  -0.37741  -0.37404  -0.36386
 Alpha  occ. eigenvalues --   -0.36242  -0.35929  -0.34970  -0.34103  -0.33469
 Alpha  occ. eigenvalues --   -0.32923  -0.32670  -0.32251  -0.31911  -0.31064
 Alpha  occ. eigenvalues --   -0.29594  -0.28531  -0.24560  -0.19876
 Alpha virt. eigenvalues --   -0.06066  -0.00704   0.03246   0.05371   0.06396
 Alpha virt. eigenvalues --    0.08918   0.09641   0.09923   0.11065   0.11426
 Alpha virt. eigenvalues --    0.12095   0.12367   0.13106   0.13402   0.13551

 Mulliken charges:
               1
     1  O   -0.500447
     2  O   -0.552206
     3  O   -0.560659
     4  O   -0.567243
     5  C    0.173994
     6  C    0.265325
     7  C    0.024667
     8  C   -0.211397
     9  C   -0.171880
    10  C    0.141313
    11  C   -0.339497
    12  C   -0.108336
    13  C   -0.303073
    14  C   -0.304113
    15  C   -0.089083
    16  C    0.042183
    17  C   -0.374760
    18  C   -0.057330
    19  C   -0.056686
    20  C   -0.002415
    21  C    0.257906
    22  C   -0.190783
    23  C    0.169118
    24  C   -0.185396
    25  C   -0.027264
    26  C   -0.290991
    27  C   -0.280145
    28  C   -0.301390
    29  C   -0.122560
    30  C    0.090098
    31  C    0.057326
    32  C   -0.289404
    33  C   -0.361848
    34  C   -0.099733
    35  C    0.134047
    36  C   -0.369373
    37  C   -0.107457
    38  C    0.007444
    39  C   -0.076302
    40  C   -0.125129
    41  C   -0.112420
    42  C   -0.129840
    43  C    0.160424
    44  C   -0.368926
    45  H    0.113007
    46  H    0.116766
    47  H    0.080996
    48  H    0.097053
    49  H    0.085695
    50  H    0.102224
    51  H    0.089963
    52  H    0.130899
    53  H    0.115532
    54  H    0.100846
    55  H    0.103126
    56  H    0.089638
    57  H    0.107504
    58  H    0.094569
    59  H    0.111422
    60  H    0.305164
    61  H    0.088853
    62  H    0.121607
    63  H    0.134830
    64  H    0.101541
    65  H    0.068417
    66  H    0.101233
    67  H    0.079833
    68  H    0.105549
    69  H    0.078880
    70  H    0.125254
    71  H    0.115817
    72  H    0.094561
    73  H    0.116863
    74  H    0.107508
    75  H    0.116362
    76  H    0.105663
    77  H    0.058089
    78  H    0.107489
    79  H    0.093369
    80  H    0.098169
    81  H    0.090076
    82  H    0.300177
    83  H    0.312633
    84  H    0.107249
    85  H    0.130005
    86  H    0.106438
    87  H    0.090123
    88  H    0.041241
    89  H    0.112011
    90  H    0.110598
    91  H    0.127271
    92  H    0.065843
    93  H    0.032906
    94  H    0.067704
    95  H    0.085021
    96  H    0.066030
    97  H    0.094458
    98  H    0.110460
    99  H    0.101774
   100  H    0.097932
 Sum of Mulliken charges =  -0.00000

 Dipole moment (field-independent basis, Debye):
    X=              2.3231    Y=              0.4552    Z=              1.6619  Tot=              2.8924
 Quadrupole moment (field-independent basis, Debye-Ang):
   XX=           -270.1688   YY=           -259.0543   ZZ=           -281.6740
   XY=              7.1380   XZ=             35.5971   YZ=             -1.0273

 Normal termination of Gaussian 16 at Fri Aug  2 11:05:41 2019.
