 Gaussian 16, Revision A.03,
 Gaussian 16:  ES64L-G16RevA.03 25-Dec-2016

 -------------------------------------
 # td=(NStates=1) CAM-B3LYP/6-31G(d,p)
 -------------------------------------

 --
 TD
 --
 Symbolic Z-matrix:
 Charge =  0 Multiplicity = 1

                         Standard orientation:
 ---------------------------------------------------------------------
 Center     Atomic      Atomic             Coordinates (Angstroms)
 Number     Number       Type             X           Y           Z
 ---------------------------------------------------------------------
      1          8           0      -11.655415    0.360900   -1.455589
      2          8           0      -12.982495   -2.461196    1.353787
      3          8           0       10.616756   -0.816431   -2.236731
      4          8           0       14.442319   -1.102118   -0.146121
      5          6           0      -10.940400   -0.076081   -0.315105
      6          6           0      -11.634464   -0.986606   -1.411717
      7          6           0      -11.654336    0.287136    0.935461
      8          6           0      -13.091087   -1.648843   -0.978202
      9          6           0      -13.142286   -0.041241    0.871133
     10          6           0      -13.407261   -1.417692    0.551591
     11          6           0      -10.745146   -1.710924   -2.320262
     12          6           0       -9.431262    0.026171   -0.452629
     13          6           0      -10.923876   -0.410297    2.271939
     14          6           0      -11.559913    1.838640    1.140370
     15          6           0       -8.552940   -0.931355    0.011199
     16          6           0       -7.207812   -0.697013    0.102048
     17          6           0       -6.261507   -1.863386    0.304643
     18          6           0       -6.583872    0.578279   -0.186717
     19          6           0       -5.293461    0.878682   -0.083569
     20          6           0       11.850437    0.052619    1.314440
     21          6           0       11.658401   -0.447422   -1.185337
     22          6           0       12.607565   -1.380189    1.358077
     23          6           0       13.213349   -1.844387    0.148183
     24          6           0       12.383733   -1.871544   -1.030322
     25          6           0       10.998954    0.031669    0.050833
     26          6           0       10.951441    0.051721    2.516357
     27          6           0       12.808329    1.159446    1.566924
     28          6           0       12.538866    0.552835   -1.973369
     29          6           0       -4.743723    2.119587   -0.321708
     30          6           0        9.835391    0.550236    0.020910
     31          6           0       -3.383346    2.564465   -0.409427
     32          6           0        8.591296    0.939832   -0.153535
     33          6           0       -3.043272    4.059819   -0.555922
     34          6           0       -2.376318    1.649210   -0.169512
     35          6           0        7.456326    0.095426    0.001135
     36          6           0        7.675515   -1.328482    0.238815
     37          6           0        6.195914    0.675033   -0.039349
     38          6           0       -0.970604    1.965352   -0.207427
     39          6           0        4.922672    0.058946   -0.098052
     40          6           0       -0.037714    1.011239    0.089164
     41          6           0        3.720914    0.772537   -0.133864
     42          6           0        1.327982    1.273563   -0.068382
     43          6           0        2.392792    0.290710    0.028499
     44          6           0        2.171765   -1.171766    0.342584
     45          1           0      -13.219546   -2.738587   -1.136419
     46          1           0      -13.809045   -1.227483   -1.650670
     47          1           0      -13.616624    0.196990    1.803783
     48          1           0      -13.766614    0.720928    0.368429
     49          1           0      -14.455396   -1.536876    0.485062
     50          1           0      -10.605209   -2.778158   -2.014679
     51          1           0      -11.252486   -1.768790   -3.390553
     52          1           0       -9.587306   -1.419575   -2.524544
     53          1           0       -9.189803    1.154773   -0.702853
     54          1           0       -9.810157   -0.090126    2.365047
     55          1           0      -11.514138    0.007726    3.083428
     56          1           0      -11.121114   -1.484529    2.299887
     57          1           0      -12.067693    2.232816    0.336946
     58          1           0      -12.073097    2.019443    2.038085
     59          1           0      -10.522743    2.058570    1.223402
     60          1           0      -11.994265   -2.765702    1.006359
     61          1           0       -9.087723   -2.034057    0.314574
     62          1           0       -5.531180   -1.938794   -0.634165
     63          1           0       -5.781381   -1.721455    1.165937
     64          1           0       -6.715577   -2.833505    0.378770
     65          1           0       -7.400015    1.507461   -0.286146
     66          1           0       -4.621977    0.042877    0.075048
     67          1           0       13.401427   -1.346371    2.180713
     68          1           0       11.880601   -2.019953    1.954008
     69          1           0       13.688116   -2.683938    0.417182
     70          1           0       12.951484   -1.950785   -1.877798
     71          1           0       11.524911   -2.551942   -0.971238
     72          1           0       11.369266   -0.068034    3.582790
     73          1           0       10.145052    0.754123    2.442229
     74          1           0       10.349610   -0.808094    2.345043
     75          1           0       13.561813    1.140616    0.705380
     76          1           0       12.260266    2.191902    1.326248
     77          1           0       13.409260    1.277335    2.508113
     78          1           0       12.736718    0.169912   -3.039712
     79          1           0       11.907488    1.295099   -2.281941
     80          1           0       13.649127    0.714127   -1.550618
     81          1           0       -5.265105    3.017557   -0.309336
     82          1           0        9.922702    0.059364   -1.929585
     83          1           0       15.070141   -0.819264    0.524821
     84          1           0        8.263125    1.939371   -0.295931
     85          1           0       -2.674709    4.532422    0.241779
     86          1           0       -2.477569    4.210626   -1.378993
     87          1           0       -4.163789    4.536865   -0.914571
     88          1           0       -2.560801    0.581568   -0.094883
     89          1           0        6.715609   -1.868859    0.226944
     90          1           0        8.277491   -1.753083   -0.445860
     91          1           0        8.045300   -1.293134    1.059947
     92          1           0        6.222279    1.780475   -0.318612
     93          1           0       -0.635936    2.943467   -0.388279
     94          1           0        4.898753   -1.040518   -0.184534
     95          1           0       -0.296793    0.046711    0.326377
     96          1           0        3.686368    1.945946   -0.121639
     97          1           0        1.834173    2.256095   -0.470180
     98          1           0        1.279566   -1.522397    0.535802
     99          1           0        2.660596   -1.568684   -0.395400
    100          1           0        2.834975   -1.487268    1.244854
 ---------------------------------------------------------------------

 SCF Done:  E(RCAM-B3LYP) =  -1857.23450033     A.U. after   16 cycles

 Excitation energies and oscillator strengths:

 Excited State   1:      Singlet-A      1.9772 eV  627.07 nm  f=3.0868  <S**2>=0.000
     163 ->166        -0.14563
     164 ->165         0.69555
     164 <-165        -0.10341
 This state for optimization and/or second-order correction.
 Total Energy, E(TD-HF/TD-DFT) =  -1857.16183937
 Copying the excited state density for this state as the 1-particle RhoCI density.

 The electronic state is 1-A.
 Alpha  occ. eigenvalues --  -19.22998 -19.22355 -19.20458 -19.19874 -10.32453
 Alpha  occ. eigenvalues --  -10.31525 -10.30923 -10.29525 -10.29180 -10.28454
 Alpha  occ. eigenvalues --  -10.28366 -10.28112 -10.27935 -10.27832 -10.27810
 Alpha  occ. eigenvalues --  -10.27802 -10.27785 -10.27632 -10.27592 -10.27481
 Alpha  occ. eigenvalues --  -10.27478 -10.27417 -10.27297 -10.27195 -10.27019
 Alpha  occ. eigenvalues --  -10.26668 -10.26507 -10.26399 -10.26358 -10.26252
 Alpha  occ. eigenvalues --  -10.26147 -10.26080 -10.26080 -10.25994 -10.25897
 Alpha  occ. eigenvalues --  -10.25522 -10.25088 -10.24483 -10.24206 -10.24203
 Alpha  occ. eigenvalues --  -10.24096 -10.24094 -10.22814 -10.22437  -1.17670
 Alpha  occ. eigenvalues --   -1.09603  -1.07973  -1.04027  -0.94359  -0.92843
 Alpha  occ. eigenvalues --   -0.92651  -0.91786  -0.90795  -0.90226  -0.88201
 Alpha  occ. eigenvalues --   -0.87387  -0.86105  -0.85562  -0.84772  -0.83718
 Alpha  occ. eigenvalues --   -0.82481  -0.81728  -0.80550  -0.79514  -0.79034
 Alpha  occ. eigenvalues --   -0.77558  -0.76907  -0.76638  -0.75996  -0.75921
 Alpha  occ. eigenvalues --   -0.75575  -0.74773  -0.73689  -0.70581  -0.69927
 Alpha  occ. eigenvalues --   -0.68774  -0.67205  -0.65315  -0.64773  -0.64276
 Alpha  occ. eigenvalues --   -0.63634  -0.63306  -0.61227  -0.60314  -0.59989
 Alpha  occ. eigenvalues --   -0.58660  -0.58234  -0.58166  -0.57129  -0.56811
 Alpha  occ. eigenvalues --   -0.56232  -0.55985  -0.55451  -0.55070  -0.54678
 Alpha  occ. eigenvalues --   -0.54316  -0.53704  -0.52927  -0.52829  -0.52301
 Alpha  occ. eigenvalues --   -0.51864  -0.51359  -0.51136  -0.50930  -0.50734
 Alpha  occ. eigenvalues --   -0.50380  -0.50093  -0.49607  -0.49480  -0.49128
 Alpha  occ. eigenvalues --   -0.48429  -0.47943  -0.47724  -0.47607  -0.47351
 Alpha  occ. eigenvalues --   -0.46960  -0.46437  -0.46391  -0.45859  -0.45417
 Alpha  occ. eigenvalues --   -0.45117  -0.44881  -0.44276  -0.44201  -0.43912
 Alpha  occ. eigenvalues --   -0.43842  -0.43389  -0.43212  -0.43055  -0.42958
 Alpha  occ. eigenvalues --   -0.42494  -0.41985  -0.41752  -0.41397  -0.41083
 Alpha  occ. eigenvalues --   -0.41054  -0.40935  -0.40429  -0.40305  -0.39996
 Alpha  occ. eigenvalues --   -0.39889  -0.39529  -0.39265  -0.39073  -0.38484
 Alpha  occ. eigenvalues --   -0.38196  -0.38075  -0.37297  -0.36760  -0.36688
 Alpha  occ. eigenvalues --   -0.36380  -0.36037  -0.35276  -0.34530  -0.33442
 Alpha  occ. eigenvalues --   -0.32504  -0.32194  -0.31682  -0.31198  -0.30318
 Alpha  occ. eigenvalues --   -0.29290  -0.28310  -0.23717  -0.19401
 Alpha virt. eigenvalues --   -0.06883  -0.02232   0.02587   0.05385   0.06498
 Alpha virt. eigenvalues --    0.07338   0.10218   0.10531   0.11502   0.12363
 Alpha virt. eigenvalues --    0.12628   0.12692   0.12783   0.13434   0.14147

 Mulliken charges:
               1
     1  O   -0.481906
     2  O   -0.541111
     3  O   -0.582065
     4  O   -0.606311
     5  C    0.168567
     6  C    0.268977
     7  C   -0.001040
     8  C   -0.242265
     9  C   -0.180235
    10  C    0.177554
    11  C   -0.344031
    12  C   -0.097933
    13  C   -0.314404
    14  C   -0.305064
    15  C   -0.089916
    16  C    0.065724
    17  C   -0.370267
    18  C   -0.081451
    19  C   -0.063822
    20  C    0.031467
    21  C    0.169694
    22  C   -0.208610
    23  C    0.206232
    24  C   -0.161475
    25  C   -0.030230
    26  C   -0.322561
    27  C   -0.295497
    28  C   -0.281219
    29  C   -0.096390
    30  C    0.112179
    31  C    0.047696
    32  C   -0.278613
    33  C   -0.356834
    34  C   -0.106947
    35  C    0.109116
    36  C   -0.337571
    37  C   -0.120266
    38  C   -0.072533
    39  C   -0.113685
    40  C   -0.073319
    41  C   -0.119315
    42  C   -0.136001
    43  C    0.091098
    44  C   -0.351380
    45  H    0.095841
    46  H    0.116115
    47  H    0.095163
    48  H    0.109659
    49  H    0.094622
    50  H    0.098561
    51  H    0.091822
    52  H    0.118857
    53  H    0.102912
    54  H    0.102120
    55  H    0.103129
    56  H    0.094237
    57  H    0.123484
    58  H    0.103253
    59  H    0.098020
    60  H    0.307830
    61  H    0.076738
    62  H    0.110077
    63  H    0.138916
    64  H    0.107223
    65  H    0.064456
    66  H    0.086119
    67  H    0.075231
    68  H    0.098468
    69  H    0.093696
    70  H    0.127439
    71  H    0.125268
    72  H    0.096313
    73  H    0.110941
    74  H    0.100271
    75  H    0.097778
    76  H    0.083297
    77  H    0.107674
    78  H    0.108127
    79  H    0.094828
    80  H    0.121476
    81  H    0.068612
    82  H    0.287018
    83  H    0.306219
    84  H    0.112020
    85  H    0.144591
    86  H    0.140913
    87  H    0.071645
    88  H    0.081919
    89  H    0.094238
    90  H    0.139021
    91  H    0.134776
    92  H    0.075829
    93  H    0.085260
    94  H    0.090981
    95  H    0.083332
    96  H    0.080877
    97  H    0.078307
    98  H    0.114452
    99  H    0.140195
   100  H    0.105797
 Sum of Mulliken charges =  -0.00000

 Dipole moment (field-independent basis, Debye):
    X=              1.3579    Y=             -0.2432    Z=              2.7384  Tot=              3.0662
 Quadrupole moment (field-independent basis, Debye-Ang):
   XX=           -293.4984   YY=           -258.0011   ZZ=           -282.1344
   XY=              4.0534   XZ=             39.8059   YZ=             -2.5441

 Normal termination of Gaussian 16 at Fri Aug  2 08:47:31 2019.
