 Gaussian 16, Revision A.03,
 Gaussian 16:  ES64L-G16RevA.03 25-Dec-2016

 -------------------------------------
 # td=(NStates=1) CAM-B3LYP/6-31G(d,p)
 -------------------------------------

 --
 TD
 --
 Symbolic Z-matrix:
 Charge =  0 Multiplicity = 1

                         Standard orientation:
 ---------------------------------------------------------------------
 Center     Atomic      Atomic             Coordinates (Angstroms)
 Number     Number       Type             X           Y           Z
 ---------------------------------------------------------------------
      1          8           0      -11.728902    0.415070   -1.278454
      2          8           0      -12.938786   -2.667747    1.126095
      3          8           0       10.659492   -0.951204   -2.076504
      4          8           0       14.545540   -0.886574   -0.064566
      5          6           0      -11.039340   -0.103941   -0.143684
      6          6           0      -11.696345   -1.021512   -1.260758
      7          6           0      -11.757933    0.207332    1.144042
      8          6           0      -12.998097   -1.743038   -1.035488
      9          6           0      -13.138427   -0.235634    1.006298
     10          6           0      -13.465549   -1.590694    0.316605
     11          6           0      -10.786262   -1.578288   -2.332786
     12          6           0       -9.536816    0.126454   -0.263038
     13          6           0      -11.150022   -0.464911    2.338656
     14          6           0      -11.667372    1.690650    1.255932
     15          6           0       -8.628466   -0.792751    0.017523
     16          6           0       -7.196101   -0.646610    0.088237
     17          6           0       -6.273723   -1.807372    0.207242
     18          6           0       -6.529737    0.627820   -0.230666
     19          6           0       -5.216220    0.957849   -0.074844
     20          6           0       11.832958   -0.151826    1.437480
     21          6           0       11.695689   -0.541436   -1.217672
     22          6           0       12.741525   -1.408733    1.441978
     23          6           0       13.479034   -1.893592    0.166616
     24          6           0       12.538618   -1.781237   -1.034476
     25          6           0       11.090967   -0.053858    0.143834
     26          6           0       10.823435   -0.231597    2.669639
     27          6           0       12.703323    1.099464    1.613333
     28          6           0       12.545163    0.486371   -1.744786
     29          6           0       -4.793164    2.214493   -0.348485
     30          6           0        9.921533    0.469927    0.158746
     31          6           0       -3.465928    2.611569   -0.356084
     32          6           0        8.714531    0.952665   -0.064836
     33          6           0       -3.099325    4.140160   -0.278044
     34          6           0       -2.356246    1.713833   -0.288413
     35          6           0        7.471502    0.208049   -0.107985
     36          6           0        7.566901   -1.319357    0.052966
     37          6           0        6.239428    0.863706   -0.189918
     38          6           0       -1.086325    1.986119   -0.315486
     39          6           0        4.899628    0.175373   -0.195513
     40          6           0        0.007833    1.024241   -0.255096
     41          6           0        3.816804    0.887735   -0.348000
     42          6           0        1.397363    1.307787   -0.313926
     43          6           0        2.454144    0.395261   -0.251473
     44          6           0        2.169963   -1.032655   -0.065814
     45          1           0      -12.884506   -2.750539   -1.326110
     46          1           0      -13.887456   -1.170564   -1.568859
     47          1           0      -13.807099   -0.096633    1.942615
     48          1           0      -13.744556    0.238262    0.223920
     49          1           0      -14.473589   -1.667538    0.616777
     50          1           0      -10.271129   -2.522189   -1.836844
     51          1           0      -11.245298   -1.676317   -3.182020
     52          1           0      -10.030214   -0.854481   -2.512814
     53          1           0       -9.296937    1.106679   -0.723795
     54          1           0      -10.006747   -0.199082    2.675560
     55          1           0      -11.915576   -0.356169    3.108406
     56          1           0      -11.146565   -1.458736    2.348620
     57          1           0      -11.877500    2.223498    0.454747
     58          1           0      -12.514099    1.968247    1.869369
     59          1           0      -10.708524    2.053596    1.699851
     60          1           0      -12.056106   -2.794773    1.060656
     61          1           0       -8.796757   -1.872502    0.071583
     62          1           0       -5.801252   -1.933304   -0.785810
     63          1           0       -5.357547   -1.510093    0.994354
     64          1           0       -6.710511   -2.673654    0.612263
     65          1           0       -7.263265    1.494699   -0.432988
     66          1           0       -4.428017    0.150505    0.297748
     67          1           0       13.346890   -1.380760    2.242915
     68          1           0       12.181556   -2.158334    1.551105
     69          1           0       13.831469   -2.827558    0.181298
     70          1           0       13.189966   -2.053987   -1.857025
     71          1           0       11.824832   -2.538560   -1.082130
     72          1           0       11.346806   -0.316081    3.688791
     73          1           0       10.263244    0.613231    2.621212
     74          1           0        9.990146   -1.082129    2.371635
     75          1           0       13.407546    1.073078    0.694230
     76          1           0       12.181483    2.124870    1.678815
     77          1           0       13.158532    0.867823    2.593546
     78          1           0       13.034161    0.369825   -2.809133
     79          1           0       11.950408    1.366106   -1.957290
     80          1           0       13.485033    0.852750   -1.242545
     81          1           0       -5.607624    3.044713   -0.615653
     82          1           0       10.095741   -0.116967   -2.314688
     83          1           0       15.042158   -0.621942    0.926424
     84          1           0        8.516236    2.029328   -0.062968
     85          1           0       -2.458035    4.257382    0.526163
     86          1           0       -2.559712    4.317769   -1.225560
     87          1           0       -4.053545    4.838925   -0.283055
     88          1           0       -2.445221    0.497562   -0.344243
     89          1           0        6.669834   -1.921317    0.018699
     90          1           0        8.198740   -1.663174   -0.550081
     91          1           0        7.921686   -1.393420    1.021780
     92          1           0        6.260326    1.832212   -0.198620
     93          1           0       -0.752698    3.013525   -0.312854
     94          1           0        4.850422   -0.887266    0.202673
     95          1           0       -0.327550    0.018249   -0.189127
     96          1           0        3.886010    1.932921   -0.252692
     97          1           0        1.773960    2.444061   -0.414214
     98          1           0        1.185786   -1.253187    0.249772
     99          1           0        2.499449   -1.504961   -0.993143
    100          1           0        2.662796   -1.236860    0.825026
 ---------------------------------------------------------------------

 SCF Done:  E(RCAM-B3LYP) =  -1857.27061916     A.U. after   17 cycles

 Excitation energies and oscillator strengths:

 Excited State   1:      Singlet-A      1.8915 eV  655.49 nm  f=2.6923  <S**2>=0.000
     163 ->166         0.11276
     164 ->165         0.70826
     164 <-165        -0.13960
 This state for optimization and/or second-order correction.
 Total Energy, E(TD-HF/TD-DFT) =  -1857.20110910
 Copying the excited state density for this state as the 1-particle RhoCI density.

 The electronic state is 1-A.
 Alpha  occ. eigenvalues --  -19.22218 -19.22204 -19.21700 -19.18455 -10.32002
 Alpha  occ. eigenvalues --  -10.31974 -10.31553 -10.30678 -10.29673 -10.28184
 Alpha  occ. eigenvalues --  -10.27818 -10.27762 -10.27584 -10.27254 -10.27137
 Alpha  occ. eigenvalues --  -10.27130 -10.26975 -10.26828 -10.26634 -10.26627
 Alpha  occ. eigenvalues --  -10.26541 -10.26519 -10.26502 -10.26467 -10.26415
 Alpha  occ. eigenvalues --  -10.26403 -10.26383 -10.26303 -10.26250 -10.26202
 Alpha  occ. eigenvalues --  -10.26087 -10.25756 -10.25671 -10.25351 -10.25192
 Alpha  occ. eigenvalues --  -10.24801 -10.24455 -10.24350 -10.24184 -10.24133
 Alpha  occ. eigenvalues --  -10.24003 -10.23287 -10.22701 -10.22533  -1.14580
 Alpha  occ. eigenvalues --   -1.10040  -1.08969  -1.05664  -0.93459  -0.92519
 Alpha  occ. eigenvalues --   -0.92310  -0.91846  -0.90521  -0.90112  -0.88335
 Alpha  occ. eigenvalues --   -0.87615  -0.86829  -0.86052  -0.84770  -0.83790
 Alpha  occ. eigenvalues --   -0.82539  -0.81624  -0.81261  -0.78964  -0.78204
 Alpha  occ. eigenvalues --   -0.77718  -0.77470  -0.77028  -0.76591  -0.75752
 Alpha  occ. eigenvalues --   -0.75399  -0.74074  -0.72774  -0.71079  -0.70685
 Alpha  occ. eigenvalues --   -0.68275  -0.66576  -0.65413  -0.64713  -0.64396
 Alpha  occ. eigenvalues --   -0.63491  -0.61978  -0.61298  -0.60407  -0.60165
 Alpha  occ. eigenvalues --   -0.58527  -0.58223  -0.57886  -0.57210  -0.56811
 Alpha  occ. eigenvalues --   -0.55885  -0.55814  -0.55438  -0.55096  -0.54571
 Alpha  occ. eigenvalues --   -0.54458  -0.53642  -0.53073  -0.52419  -0.52355
 Alpha  occ. eigenvalues --   -0.51778  -0.51307  -0.51133  -0.50325  -0.50092
 Alpha  occ. eigenvalues --   -0.49762  -0.49713  -0.49301  -0.49146  -0.49028
 Alpha  occ. eigenvalues --   -0.48772  -0.48396  -0.48053  -0.47871  -0.47063
 Alpha  occ. eigenvalues --   -0.46676  -0.46549  -0.46003  -0.45693  -0.45178
 Alpha  occ. eigenvalues --   -0.44931  -0.44571  -0.44377  -0.43903  -0.43711
 Alpha  occ. eigenvalues --   -0.43634  -0.43350  -0.43232  -0.43109  -0.42484
 Alpha  occ. eigenvalues --   -0.42304  -0.42067  -0.41686  -0.41605  -0.41347
 Alpha  occ. eigenvalues --   -0.41122  -0.41022  -0.40653  -0.40232  -0.40132
 Alpha  occ. eigenvalues --   -0.39935  -0.39484  -0.39398  -0.38989  -0.38933
 Alpha  occ. eigenvalues --   -0.38570  -0.37908  -0.37525  -0.37221  -0.36472
 Alpha  occ. eigenvalues --   -0.36013  -0.35809  -0.35632  -0.35056  -0.33768
 Alpha  occ. eigenvalues --   -0.32746  -0.32403  -0.32044  -0.31314  -0.30016
 Alpha  occ. eigenvalues --   -0.29590  -0.27117  -0.24445  -0.18449
 Alpha virt. eigenvalues --   -0.06821  -0.00364   0.02734   0.06910   0.07451
 Alpha virt. eigenvalues --    0.08266   0.10192   0.10627   0.11432   0.11869
 Alpha virt. eigenvalues --    0.11907   0.13113   0.13460   0.13553   0.14420

 Mulliken charges:
               1
     1  O   -0.511570
     2  O   -0.568050
     3  O   -0.576975
     4  O   -0.572404
     5  C    0.173700
     6  C    0.223461
     7  C    0.064960
     8  C   -0.197687
     9  C   -0.231793
    10  C    0.165135
    11  C   -0.313699
    12  C   -0.125805
    13  C   -0.293775
    14  C   -0.305706
    15  C   -0.045364
    16  C    0.049711
    17  C   -0.367316
    18  C   -0.121106
    19  C   -0.036652
    20  C   -0.018102
    21  C    0.291895
    22  C   -0.171353
    23  C    0.165815
    24  C   -0.214258
    25  C   -0.042060
    26  C   -0.301644
    27  C   -0.288446
    28  C   -0.315166
    29  C   -0.124962
    30  C    0.146572
    31  C    0.050024
    32  C   -0.306931
    33  C   -0.364352
    34  C   -0.090852
    35  C    0.099212
    36  C   -0.353815
    37  C   -0.118750
    38  C   -0.068430
    39  C   -0.097178
    40  C   -0.113035
    41  C   -0.085367
    42  C   -0.123253
    43  C    0.079989
    44  C   -0.362078
    45  H    0.122314
    46  H    0.105334
    47  H    0.093913
    48  H    0.105829
    49  H    0.105160
    50  H    0.086091
    51  H    0.120497
    52  H    0.128844
    53  H    0.113616
    54  H    0.089545
    55  H    0.101929
    56  H    0.097757
    57  H    0.128759
    58  H    0.093209
    59  H    0.100948
    60  H    0.283979
    61  H    0.072383
    62  H    0.140047
    63  H    0.092532
    64  H    0.110179
    65  H    0.073059
    66  H    0.091144
    67  H    0.078129
    68  H    0.103182
    69  H    0.096924
    70  H    0.117524
    71  H    0.119811
    72  H    0.093455
    73  H    0.127242
    74  H    0.085473
    75  H    0.112440
    76  H    0.096143
    77  H    0.085244
    78  H    0.091740
    79  H    0.079658
    80  H    0.149270
    81  H    0.082098
    82  H    0.314281
    83  H    0.301036
    84  H    0.103990
    85  H    0.140581
    86  H    0.127741
    87  H    0.099049
    88  H    0.063274
    89  H    0.102030
    90  H    0.135458
    91  H    0.125585
    92  H    0.060878
    93  H    0.073056
    94  H    0.093250
    95  H    0.077220
    96  H    0.084329
    97  H    0.067037
    98  H    0.113044
    99  H    0.132097
   100  H    0.128116
 Sum of Mulliken charges =  -0.00000

 Dipole moment (field-independent basis, Debye):
    X=              3.3199    Y=             -0.3830    Z=              1.6600  Tot=              3.7315
 Quadrupole moment (field-independent basis, Debye-Ang):
   XX=           -272.6682   YY=           -259.8218   ZZ=           -275.0751
   XY=             -1.9022   XZ=             35.9869   YZ=             -0.5818

 Normal termination of Gaussian 16 at Wed Jul 31 09:25:50 2019.
