 Gaussian 16, Revision A.03,
 Gaussian 16:  ES64L-G16RevA.03 25-Dec-2016

 -------------------------------------
 # td=(NStates=1) CAM-B3LYP/6-31G(d,p)
 -------------------------------------

 --
 TD
 --
 Symbolic Z-matrix:
 Charge =  0 Multiplicity = 1

                         Standard orientation:
 ---------------------------------------------------------------------
 Center     Atomic      Atomic             Coordinates (Angstroms)
 Number     Number       Type             X           Y           Z
 ---------------------------------------------------------------------
      1          8           0       11.820280    0.408481    1.567605
      2          8           0       13.039058   -2.496352   -1.432214
      3          8           0      -10.587126   -1.186048    2.144095
      4          8           0      -14.513928   -1.043801    0.170179
      5          6           0       11.147181   -0.163287    0.390615
      6          6           0       11.724189   -1.053834    1.313484
      7          6           0       11.674522    0.326222   -0.905706
      8          6           0       13.115150   -1.634045    0.970317
      9          6           0       13.256064   -0.054725   -0.928269
     10          6           0       13.523916   -1.537712   -0.493469
     11          6           0       10.897899   -1.778010    2.373372
     12          6           0        9.609551    0.114323    0.485950
     13          6           0       11.060226   -0.325164   -2.153471
     14          6           0       11.697865    1.892235   -1.124964
     15          6           0        8.656360   -0.709825   -0.065762
     16          6           0        7.253668   -0.611969   -0.162171
     17          6           0        6.473292   -1.786715   -0.617084
     18          6           0        6.540926    0.576754    0.223999
     19          6           0        5.194522    0.740230    0.238823
     20          6           0      -12.020485    0.189592   -1.229994
     21          6           0      -11.581208   -0.700244    1.331834
     22          6           0      -12.734833   -1.232762   -1.431938
     23          6           0      -13.436814   -1.684349   -0.259169
     24          6           0      -12.375787   -1.958170    0.892667
     25          6           0      -11.128262    0.056378    0.032814
     26          6           0      -11.132444    0.385852   -2.472739
     27          6           0      -12.958465    1.305893   -1.100473
     28          6           0      -12.396251    0.206439    2.168837
     29          6           0        4.667113    2.001587    0.470980
     30          6           0       -9.884546    0.439120    0.068796
     31          6           0        3.300418    2.485603    0.430076
     32          6           0       -8.637922    0.852998    0.149574
     33          6           0        3.004900    3.960097    0.735918
     34          6           0        2.203870    1.601095    0.198994
     35          6           0       -7.441757    0.109190   -0.082521
     36          6           0       -7.585532   -1.320541   -0.517714
     37          6           0       -6.216715    0.660652    0.098285
     38          6           0        0.870564    1.993037    0.136470
     39          6           0       -5.024371    0.119533   -0.056184
     40          6           0       -0.031312    0.975442   -0.033337
     41          6           0       -3.852167    0.823561    0.009842
     42          6           0       -1.436405    1.254751    0.019575
     43          6           0       -2.468141    0.397327   -0.183409
     44          6           0       -2.292072   -1.019805   -0.550767
     45          1           0       13.243105   -2.814555    1.231183
     46          1           0       13.946573   -1.151797    1.634310
     47          1           0       13.842496   -0.056411   -1.831769
     48          1           0       13.864973    0.568407    0.027267
     49          1           0       14.709215   -1.474740   -0.596172
     50          1           0       10.456379   -2.794782    1.913122
     51          1           0       11.584734   -2.005656    3.098370
     52          1           0        9.903145   -1.288496    2.723156
     53          1           0        9.507650    0.993609    1.276746
     54          1           0        9.952540    0.267527   -2.347367
     55          1           0       11.908011   -0.174479   -3.123331
     56          1           0       10.759895   -1.404122   -2.026967
     57          1           0       12.008099    2.520370   -0.275315
     58          1           0       12.329756    2.347854   -1.825307
     59          1           0       10.851847    2.387684   -1.345535
     60          1           0       11.953987   -2.743312   -1.178098
     61          1           0        9.086060   -1.623003   -0.453288
     62          1           0        5.924900   -2.389094    0.149227
     63          1           0        5.924298   -1.524829   -1.489640
     64          1           0        7.324163   -2.468766   -1.254812
     65          1           0        7.216942    1.535054    0.391599
     66          1           0        4.452491   -0.187384   -0.176114
     67          1           0      -13.361714   -1.078722   -2.249368
     68          1           0      -12.158855   -1.983426   -1.872153
     69          1           0      -13.846708   -2.810666   -0.566021
     70          1           0      -12.794232   -2.399694    1.929802
     71          1           0      -11.611716   -2.795453    0.554755
     72          1           0      -11.792284    0.678945   -3.302489
     73          1           0      -10.510617    1.333134   -2.467540
     74          1           0      -10.547451   -0.468469   -2.710622
     75          1           0      -13.590487    1.273146   -0.253943
     76          1           0      -12.476641    2.372746   -0.953298
     77          1           0      -13.372201    1.518472   -2.081822
     78          1           0      -12.592910   -0.204006    3.161590
     79          1           0      -11.923954    1.094341    2.382245
     80          1           0      -13.275213    0.537751    1.636143
     81          1           0        5.540504    2.736049    0.890555
     82          1           0       -9.815260   -0.461126    2.390539
     83          1           0      -15.198887   -0.956709   -0.585037
     84          1           0       -8.658568    1.802042    0.406791
     85          1           0        2.423735    4.409741    0.016874
     86          1           0        2.560767    4.216412    1.765731
     87          1           0        3.912008    4.590061    0.762897
     88          1           0        2.432166    0.500621    0.208727
     89          1           0       -6.758842   -2.143719   -0.113336
     90          1           0       -8.678335   -1.745456   -0.179172
     91          1           0       -7.578272   -1.295902   -1.521211
     92          1           0       -6.259402    1.848794    0.265266
     93          1           0        0.485645    2.993820    0.493819
     94          1           0       -4.953508   -0.901901   -0.326778
     95          1           0        0.475765    0.050902   -0.372049
     96          1           0       -3.997059    1.846701    0.215579
     97          1           0       -1.598646    2.289875    0.062900
     98          1           0       -1.254781   -1.323819   -0.661292
     99          1           0       -2.678650   -1.585450    0.301809
    100          1           0       -2.783187   -1.296893   -1.580924
 ---------------------------------------------------------------------

 SCF Done:  E(RCAM-B3LYP) =  -1857.28212679     A.U. after   15 cycles

 Excitation energies and oscillator strengths:

 Excited State   1:      Singlet-A      2.1350 eV  580.72 nm  f=3.1407  <S**2>=0.000
     163 ->166         0.14229
     164 ->165         0.69392
 This state for optimization and/or second-order correction.
 Total Energy, E(TD-HF/TD-DFT) =  -1857.20366669
 Copying the excited state density for this state as the 1-particle RhoCI density.

 The electronic state is 1-A.
 Alpha  occ. eigenvalues --  -19.23198 -19.23132 -19.21561 -19.21377 -10.32666
 Alpha  occ. eigenvalues --  -10.32006 -10.31645 -10.31267 -10.31188 -10.28604
 Alpha  occ. eigenvalues --  -10.28511 -10.28311 -10.28248 -10.28168 -10.27875
 Alpha  occ. eigenvalues --  -10.27611 -10.27473 -10.27448 -10.27227 -10.27185
 Alpha  occ. eigenvalues --  -10.27045 -10.26978 -10.26963 -10.26903 -10.26795
 Alpha  occ. eigenvalues --  -10.26745 -10.26656 -10.26540 -10.26528 -10.26484
 Alpha  occ. eigenvalues --  -10.26426 -10.26018 -10.25894 -10.25802 -10.25702
 Alpha  occ. eigenvalues --  -10.25699 -10.25680 -10.25664 -10.25156 -10.25036
 Alpha  occ. eigenvalues --  -10.25031 -10.24775 -10.22824 -10.22084  -1.13282
 Alpha  occ. eigenvalues --   -1.13222  -1.09334  -1.07134  -0.93439  -0.92760
 Alpha  occ. eigenvalues --   -0.91936  -0.91324  -0.90108  -0.89340  -0.87843
 Alpha  occ. eigenvalues --   -0.86537  -0.85601  -0.85447  -0.84559  -0.83749
 Alpha  occ. eigenvalues --   -0.82198  -0.81387  -0.80148  -0.78590  -0.77596
 Alpha  occ. eigenvalues --   -0.76748  -0.76495  -0.76080  -0.76038  -0.75640
 Alpha  occ. eigenvalues --   -0.74811  -0.73743  -0.72836  -0.70055  -0.69256
 Alpha  occ. eigenvalues --   -0.68288  -0.66443  -0.65825  -0.65112  -0.63558
 Alpha  occ. eigenvalues --   -0.62824  -0.62587  -0.61515  -0.60744  -0.59190
 Alpha  occ. eigenvalues --   -0.58389  -0.57920  -0.57701  -0.57571  -0.56321
 Alpha  occ. eigenvalues --   -0.55675  -0.55084  -0.54989  -0.54503  -0.54120
 Alpha  occ. eigenvalues --   -0.53190  -0.52852  -0.52244  -0.51771  -0.51270
 Alpha  occ. eigenvalues --   -0.50840  -0.50780  -0.50382  -0.49948  -0.49693
 Alpha  occ. eigenvalues --   -0.49430  -0.49332  -0.48884  -0.48790  -0.48527
 Alpha  occ. eigenvalues --   -0.48442  -0.48100  -0.47956  -0.47709  -0.47365
 Alpha  occ. eigenvalues --   -0.46634  -0.45675  -0.45309  -0.45178  -0.44838
 Alpha  occ. eigenvalues --   -0.44258  -0.43828  -0.43681  -0.43288  -0.43062
 Alpha  occ. eigenvalues --   -0.42942  -0.42652  -0.42471  -0.42385  -0.42202
 Alpha  occ. eigenvalues --   -0.42087  -0.41755  -0.41411  -0.41349  -0.40806
 Alpha  occ. eigenvalues --   -0.40528  -0.40502  -0.40253  -0.40061  -0.39984
 Alpha  occ. eigenvalues --   -0.39805  -0.39378  -0.39177  -0.38956  -0.38467
 Alpha  occ. eigenvalues --   -0.38342  -0.38239  -0.37937  -0.37663  -0.37262
 Alpha  occ. eigenvalues --   -0.36575  -0.36497  -0.35417  -0.34546  -0.34218
 Alpha  occ. eigenvalues --   -0.32530  -0.31990  -0.31713  -0.31053  -0.30102
 Alpha  occ. eigenvalues --   -0.29493  -0.27799  -0.23542  -0.19561
 Alpha virt. eigenvalues --   -0.06112  -0.01318   0.03190   0.06118   0.07431
 Alpha virt. eigenvalues --    0.08168   0.09136   0.10603   0.10652   0.11340
 Alpha virt. eigenvalues --    0.11612   0.12223   0.12790   0.12976   0.13621

 Mulliken charges:
               1
     1  O   -0.514091
     2  O   -0.538316
     3  O   -0.584500
     4  O   -0.519185
     5  C    0.175210
     6  C    0.256018
     7  C    0.056663
     8  C   -0.218581
     9  C   -0.179911
    10  C    0.146870
    11  C   -0.317342
    12  C   -0.130159
    13  C   -0.260047
    14  C   -0.322362
    15  C   -0.072396
    16  C    0.077511
    17  C   -0.375429
    18  C   -0.107219
    19  C   -0.047770
    20  C    0.023794
    21  C    0.292695
    22  C   -0.179152
    23  C    0.181745
    24  C   -0.184361
    25  C   -0.124236
    26  C   -0.313990
    27  C   -0.312627
    28  C   -0.303344
    29  C   -0.132748
    30  C    0.164623
    31  C    0.069611
    32  C   -0.263263
    33  C   -0.379647
    34  C   -0.123409
    35  C    0.120125
    36  C   -0.378498
    37  C   -0.095564
    38  C   -0.069552
    39  C   -0.061936
    40  C   -0.076271
    41  C   -0.124225
    42  C   -0.145936
    43  C    0.122210
    44  C   -0.375500
    45  H    0.080873
    46  H    0.125669
    47  H    0.101381
    48  H    0.073807
    49  H    0.087315
    50  H    0.081724
    51  H    0.128877
    52  H    0.130069
    53  H    0.112748
    54  H    0.081925
    55  H    0.090770
    56  H    0.070821
    57  H    0.110465
    58  H    0.112003
    59  H    0.104596
    60  H    0.299177
    61  H    0.064425
    62  H    0.131226
    63  H    0.138583
    64  H    0.065157
    65  H    0.086766
    66  H    0.078290
    67  H    0.084839
    68  H    0.114698
    69  H    0.019294
    70  H    0.096089
    71  H    0.099839
    72  H    0.090784
    73  H    0.102978
    74  H    0.112792
    75  H    0.130169
    76  H    0.086735
    77  H    0.098908
    78  H    0.107209
    79  H    0.093391
    80  H    0.112935
    81  H    0.078823
    82  H    0.311095
    83  H    0.318712
    84  H    0.103018
    85  H    0.132200
    86  H    0.114389
    87  H    0.108497
    88  H    0.089218
    89  H    0.096875
    90  H    0.108333
    91  H    0.143766
    92  H    0.062121
    93  H    0.098739
    94  H    0.079836
    95  H    0.089944
    96  H    0.067485
    97  H    0.085613
    98  H    0.107827
    99  H    0.127238
   100  H    0.113439
 Sum of Mulliken charges =  -0.00000

 Dipole moment (field-independent basis, Debye):
    X=             -5.0761    Y=              0.3712    Z=             -2.0576  Tot=              5.4898
 Quadrupole moment (field-independent basis, Debye-Ang):
   XX=           -281.7162   YY=           -261.7835   ZZ=           -276.3579
   XY=            -12.4120   XZ=             38.6433   YZ=              2.7075

 Normal termination of Gaussian 16 at Tue Jul 30 15:25:23 2019.
