 Gaussian 16, Revision A.03,
 Gaussian 16:  ES64L-G16RevA.03 25-Dec-2016

 -------------------------------------
 # td=(NStates=1) CAM-B3LYP/6-31G(d,p)
 -------------------------------------

 --
 TD
 --
 Symbolic Z-matrix:
 Charge =  0 Multiplicity = 1

                         Standard orientation:
 ---------------------------------------------------------------------
 Center     Atomic      Atomic             Coordinates (Angstroms)
 Number     Number       Type             X           Y           Z
 ---------------------------------------------------------------------
      1          8           0      -11.791253    0.279402   -1.598765
      2          8           0      -12.791838   -2.387405    1.602043
      3          8           0       10.695698   -1.094873   -2.104353
      4          8           0       14.596877   -0.776185   -0.150036
      5          6           0      -11.120551   -0.129095   -0.344829
      6          6           0      -11.864557   -1.148701   -1.212167
      7          6           0      -11.831743    0.535930    0.902961
      8          6           0      -13.165764   -1.729667   -0.768489
      9          6           0      -13.197519    0.076485    0.926730
     10          6           0      -13.476831   -1.423366    0.700616
     11          6           0      -11.030314   -2.054727   -2.163637
     12          6           0       -9.677597    0.128370   -0.401466
     13          6           0      -11.100292    0.011352    2.296442
     14          6           0      -11.705398    2.049039    0.801721
     15          6           0       -8.639631   -0.695879    0.075555
     16          6           0       -7.250071   -0.602618    0.005206
     17          6           0       -6.485955   -1.787627    0.390996
     18          6           0       -6.593901    0.669083   -0.268434
     19          6           0       -5.291388    0.821465   -0.300628
     20          6           0       11.963632    0.018489    1.423604
     21          6           0       11.808774   -0.639377   -1.297459
     22          6           0       12.731899   -1.193162    1.481114
     23          6           0       13.507027   -1.601287    0.247545
     24          6           0       12.665538   -1.811258   -0.932566
     25          6           0       11.135670    0.015314    0.106305
     26          6           0       10.969791    0.110288    2.613010
     27          6           0       12.817166    1.336469    1.468714
     28          6           0       12.486888    0.380612   -2.028651
     29          6           0       -4.703024    2.038860   -0.527746
     30          6           0        9.910089    0.535336   -0.070357
     31          6           0       -3.358286    2.484216   -0.481485
     32          6           0        8.665159    0.933758   -0.147170
     33          6           0       -3.031956    3.853110   -0.609514
     34          6           0       -2.367061    1.449737   -0.381196
     35          6           0        7.480031    0.075347   -0.088926
     36          6           0        7.695692   -1.360801    0.133454
     37          6           0        6.263097    0.694925   -0.084162
     38          6           0       -0.993919    1.683547   -0.247992
     39          6           0        5.000681    0.189414    0.120276
     40          6           0       -0.029200    0.768422   -0.080429
     41          6           0        3.780270    0.812075   -0.081515
     42          6           0        1.377048    1.020544   -0.138860
     43          6           0        2.469409    0.231518   -0.005736
     44          6           0        2.362118   -1.261760    0.410968
     45          1           0      -13.129230   -2.784332   -0.761935
     46          1           0      -13.916148   -1.481120   -1.581157
     47          1           0      -13.818260    0.277633    1.870736
     48          1           0      -13.693676    0.696639    0.133553
     49          1           0      -14.669629   -1.855832    0.893984
     50          1           0      -10.963675   -3.058493   -1.802472
     51          1           0      -11.777307   -2.310670   -2.985672
     52          1           0      -10.295537   -1.544600   -2.463842
     53          1           0       -9.182260    0.915201   -1.079760
     54          1           0      -10.135418    0.645360    2.343128
     55          1           0      -11.729885    0.111611    3.111843
     56          1           0      -10.823848   -1.132597    2.435012
     57          1           0      -12.078237    2.430542   -0.273379
     58          1           0      -12.462761    2.556882    1.654753
     59          1           0      -10.633729    2.341112    0.971967
     60          1           0      -11.944915   -2.542153    1.096273
     61          1           0       -9.055696   -1.600685    0.741243
     62          1           0       -5.957433   -2.337908   -0.522275
     63          1           0       -5.558200   -1.404156    0.842241
     64          1           0       -7.112306   -2.733482    1.037299
     65          1           0       -7.233666    1.546635   -0.284895
     66          1           0       -4.565954   -0.037125   -0.023107
     67          1           0       13.319921   -1.281254    2.469132
     68          1           0       11.876460   -2.210280    1.554091
     69          1           0       13.946345   -2.664825    0.592587
     70          1           0       13.224127   -2.063117   -1.723930
     71          1           0       12.049147   -2.735257   -0.826227
     72          1           0       11.410808    0.207652    3.538961
     73          1           0       10.326815    0.912311    2.485393
     74          1           0       10.282778   -0.876005    2.546514
     75          1           0       13.406237    1.471719    0.596644
     76          1           0       12.076049    2.176446    1.516700
     77          1           0       13.318297    1.425970    2.518149
     78          1           0       12.445710    0.197662   -3.099095
     79          1           0       12.047967    1.471431   -1.991662
     80          1           0       13.480241    0.624041   -1.731801
     81          1           0       -5.379428    3.078279   -0.368678
     82          1           0       10.305709   -0.225546   -2.652989
     83          1           0       15.082925   -0.194638    0.751201
     84          1           0        8.415671    2.030054   -0.284873
     85          1           0       -2.852677    4.454707    0.296637
     86          1           0       -1.995437    3.713370   -1.323248
     87          1           0       -3.856246    4.530036   -1.174154
     88          1           0       -2.741520    0.281765   -0.195536
     89          1           0        6.836646   -1.982605   -0.323595
     90          1           0        8.580480   -1.400492   -0.647121
     91          1           0        8.156339   -1.526669    1.134405
     92          1           0        6.248088    1.775281   -0.427448
     93          1           0       -0.524561    2.820226   -0.616974
     94          1           0        4.898746   -0.872646    0.717735
     95          1           0       -0.379031   -0.257579    0.171041
     96          1           0        3.735099    1.917813   -0.359018
     97          1           0        1.347381    2.197386   -0.414937
     98          1           0        1.447611   -1.351977    0.687977
     99          1           0        2.376653   -1.842610   -0.670732
    100          1           0        3.098415   -1.572904    1.259386
 ---------------------------------------------------------------------

 SCF Done:  E(RCAM-B3LYP) =  -1857.19530273     A.U. after   15 cycles

 Excitation energies and oscillator strengths:

 Excited State   1:      Singlet-A      1.9507 eV  635.58 nm  f=2.8319  <S**2>=0.000
     163 ->166         0.13153
     164 ->165         0.69814
     164 <-165        -0.10607
 This state for optimization and/or second-order correction.
 Total Energy, E(TD-HF/TD-DFT) =  -1857.12361494
 Copying the excited state density for this state as the 1-particle RhoCI density.

 The electronic state is 1-A.
 Alpha  occ. eigenvalues --  -19.23745 -19.22287 -19.22271 -19.22250 -10.33051
 Alpha  occ. eigenvalues --  -10.32885 -10.32371 -10.32353 -10.31938 -10.28381
 Alpha  occ. eigenvalues --  -10.28356 -10.28240 -10.28100 -10.28006 -10.27983
 Alpha  occ. eigenvalues --  -10.27959 -10.27907 -10.27842 -10.27801 -10.27713
 Alpha  occ. eigenvalues --  -10.27643 -10.27607 -10.27155 -10.27151 -10.27129
 Alpha  occ. eigenvalues --  -10.27115 -10.27048 -10.26971 -10.26732 -10.26709
 Alpha  occ. eigenvalues --  -10.26682 -10.26625 -10.26542 -10.26409 -10.26366
 Alpha  occ. eigenvalues --  -10.26311 -10.25573 -10.25424 -10.25244 -10.25132
 Alpha  occ. eigenvalues --  -10.24650 -10.24601 -10.24433 -10.24297  -1.12533
 Alpha  occ. eigenvalues --   -1.08239  -1.08089  -1.07430  -0.93160  -0.93101
 Alpha  occ. eigenvalues --   -0.91849  -0.91329  -0.90729  -0.90326  -0.87693
 Alpha  occ. eigenvalues --   -0.87504  -0.87236  -0.85926  -0.84786  -0.82943
 Alpha  occ. eigenvalues --   -0.82640  -0.80750  -0.80577  -0.78171  -0.77414
 Alpha  occ. eigenvalues --   -0.76419  -0.76406  -0.76279  -0.76033  -0.75925
 Alpha  occ. eigenvalues --   -0.74309  -0.74265  -0.72750  -0.70016  -0.69574
 Alpha  occ. eigenvalues --   -0.67853  -0.66379  -0.64862  -0.64698  -0.63972
 Alpha  occ. eigenvalues --   -0.62573  -0.61098  -0.60141  -0.59127  -0.58215
 Alpha  occ. eigenvalues --   -0.58093  -0.57736  -0.57309  -0.56602  -0.56115
 Alpha  occ. eigenvalues --   -0.55452  -0.55075  -0.54472  -0.54254  -0.53705
 Alpha  occ. eigenvalues --   -0.53638  -0.52985  -0.52876  -0.52439  -0.51702
 Alpha  occ. eigenvalues --   -0.51147  -0.50689  -0.50598  -0.50078  -0.49789
 Alpha  occ. eigenvalues --   -0.49627  -0.49455  -0.49197  -0.48582  -0.48375
 Alpha  occ. eigenvalues --   -0.47558  -0.47460  -0.47097  -0.47012  -0.46479
 Alpha  occ. eigenvalues --   -0.46355  -0.46058  -0.45756  -0.45096  -0.45012
 Alpha  occ. eigenvalues --   -0.44771  -0.44489  -0.44244  -0.43946  -0.43879
 Alpha  occ. eigenvalues --   -0.43309  -0.43192  -0.42683  -0.42543  -0.42301
 Alpha  occ. eigenvalues --   -0.42136  -0.42024  -0.41349  -0.40882  -0.40715
 Alpha  occ. eigenvalues --   -0.40623  -0.40500  -0.40207  -0.39924  -0.39900
 Alpha  occ. eigenvalues --   -0.39817  -0.39401  -0.39016  -0.38717  -0.38506
 Alpha  occ. eigenvalues --   -0.38040  -0.37827  -0.37672  -0.36977  -0.36194
 Alpha  occ. eigenvalues --   -0.36160  -0.35710  -0.35107  -0.34464  -0.33944
 Alpha  occ. eigenvalues --   -0.33126  -0.32709  -0.32111  -0.31458  -0.30838
 Alpha  occ. eigenvalues --   -0.29188  -0.27871  -0.23518  -0.19320
 Alpha virt. eigenvalues --   -0.06817  -0.01561   0.02862   0.05575   0.06310
 Alpha virt. eigenvalues --    0.07036   0.08876   0.09248   0.09690   0.10532
 Alpha virt. eigenvalues --    0.10708   0.11020   0.11751   0.12212   0.12466

 Mulliken charges:
               1
     1  O   -0.520801
     2  O   -0.547299
     3  O   -0.580041
     4  O   -0.559226
     5  C    0.186378
     6  C    0.231257
     7  C    0.052869
     8  C   -0.237475
     9  C   -0.188216
    10  C    0.148840
    11  C   -0.290680
    12  C   -0.132619
    13  C   -0.306269
    14  C   -0.300163
    15  C   -0.098717
    16  C    0.109081
    17  C   -0.369933
    18  C   -0.100140
    19  C   -0.041825
    20  C    0.036329
    21  C    0.308567
    22  C   -0.177460
    23  C    0.186387
    24  C   -0.181893
    25  C   -0.115571
    26  C   -0.295692
    27  C   -0.316919
    28  C   -0.354458
    29  C   -0.138544
    30  C    0.165007
    31  C    0.131544
    32  C   -0.291380
    33  C   -0.374180
    34  C   -0.114905
    35  C    0.124285
    36  C   -0.381139
    37  C   -0.108687
    38  C   -0.086950
    39  C   -0.096868
    40  C   -0.070991
    41  C   -0.107979
    42  C   -0.121981
    43  C    0.082356
    44  C   -0.337220
    45  H    0.114052
    46  H    0.129647
    47  H    0.094708
    48  H    0.112128
    49  H    0.072514
    50  H    0.110606
    51  H    0.098884
    52  H    0.123551
    53  H    0.102705
    54  H    0.092203
    55  H    0.117855
    56  H    0.086730
    57  H    0.117104
    58  H    0.081930
    59  H    0.109223
    60  H    0.304373
    61  H    0.057347
    62  H    0.110076
    63  H    0.122370
    64  H    0.095429
    65  H    0.097251
    66  H    0.081479
    67  H    0.086042
    68  H    0.059249
    69  H    0.060549
    70  H    0.122922
    71  H    0.121255
    72  H    0.102230
    73  H    0.119973
    74  H    0.082752
    75  H    0.118244
    76  H    0.111479
    77  H    0.085953
    78  H    0.111935
    79  H    0.085711
    80  H    0.143549
    81  H    0.054936
    82  H    0.314281
    83  H    0.308145
    84  H    0.100159
    85  H    0.137900
    86  H    0.101026
    87  H    0.102384
    88  H    0.075634
    89  H    0.112901
    90  H    0.138081
    91  H    0.128222
    92  H    0.069136
    93  H    0.060858
    94  H    0.068823
    95  H    0.077200
    96  H    0.077739
    97  H    0.064848
    98  H    0.122126
    99  H    0.107365
   100  H    0.117552
 Sum of Mulliken charges =  -0.00000

 Dipole moment (field-independent basis, Debye):
    X=              3.9266    Y=              0.4718    Z=              1.0644  Tot=              4.0956
 Quadrupole moment (field-independent basis, Debye-Ang):
   XX=           -259.3833   YY=           -261.8473   ZZ=           -277.3517
   XY=             20.8685   XZ=             28.3718   YZ=              1.2497

 Normal termination of Gaussian 16 at Wed Jul 31 17:56:13 2019.
