 Gaussian 16, Revision A.03,
 Gaussian 16:  ES64L-G16RevA.03 25-Dec-2016

 -------------------------------------
 # td=(NStates=1) CAM-B3LYP/6-31G(d,p)
 -------------------------------------

 --
 TD
 --
 Symbolic Z-matrix:
 Charge =  0 Multiplicity = 1

                         Standard orientation:
 ---------------------------------------------------------------------
 Center     Atomic      Atomic             Coordinates (Angstroms)
 Number     Number       Type             X           Y           Z
 ---------------------------------------------------------------------
      1          8           0      -11.658415    0.333106   -1.468060
      2          8           0      -13.095731   -2.711198    1.128578
      3          8           0       10.662148   -0.976915   -2.061465
      4          8           0       14.518300   -0.974132   -0.147072
      5          6           0      -11.004143   -0.084664   -0.202852
      6          6           0      -11.623255   -1.052830   -1.265298
      7          6           0      -11.830874    0.219903    1.028106
      8          6           0      -13.012642   -1.613036   -1.130062
      9          6           0      -13.322789   -0.218877    0.878184
     10          6           0      -13.608901   -1.610609    0.311210
     11          6           0      -10.752844   -1.733059   -2.280984
     12          6           0       -9.540298    0.149590   -0.107447
     13          6           0      -11.261621   -0.409848    2.355538
     14          6           0      -11.957475    1.784694    1.274885
     15          6           0       -8.640760   -0.759899    0.203926
     16          6           0       -7.146683   -0.549792    0.264545
     17          6           0       -6.327394   -1.644647    0.498562
     18          6           0       -6.641179    0.778637    0.019607
     19          6           0       -5.283251    0.984333   -0.138881
     20          6           0       11.887783   -0.111502    1.443061
     21          6           0       11.719098   -0.554442   -1.223451
     22          6           0       12.668137   -1.411373    1.469005
     23          6           0       13.331098   -1.900096    0.203157
     24          6           0       12.529273   -1.868297   -1.027286
     25          6           0       11.084418   -0.004888    0.132237
     26          6           0       10.877388   -0.133128    2.645834
     27          6           0       12.862437    1.029450    1.723864
     28          6           0       12.492953    0.608604   -1.815482
     29          6           0       -4.692694    2.133614   -0.274168
     30          6           0        9.880369    0.567797    0.093118
     31          6           0       -3.344395    2.563620   -0.328752
     32          6           0        8.719801    1.038685   -0.084318
     33          6           0       -3.057157    4.049189   -0.532128
     34          6           0       -2.301376    1.565546   -0.199282
     35          6           0        7.404090    0.232720   -0.047583
     36          6           0        7.676986   -1.220645    0.036472
     37          6           0        6.305554    0.882601   -0.147195
     38          6           0       -0.960919    1.893352   -0.419387
     39          6           0        5.038534    0.231731   -0.047149
     40          6           0       -0.001653    0.892930   -0.360442
     41          6           0        3.830015    0.850095   -0.301746
     42          6           0        1.381921    1.193911   -0.326603
     43          6           0        2.509322    0.326571   -0.312145
     44          6           0        2.395868   -1.137991   -0.086995
     45          1           0      -13.134679   -2.628649   -1.566335
     46          1           0      -13.618747   -1.147682   -1.982855
     47          1           0      -13.806003   -0.141014    1.911804
     48          1           0      -13.814275    0.440593    0.111494
     49          1           0      -14.766536   -1.740318    0.280524
     50          1           0      -10.818880   -3.019876   -2.235322
     51          1           0      -11.085841   -1.539513   -3.360294
     52          1           0       -9.754195   -1.257360   -2.421550
     53          1           0       -9.151690    1.095577   -0.165808
     54          1           0      -10.217041    0.096433    2.305973
     55          1           0      -11.748198   -0.057258    3.222593
     56          1           0      -11.018834   -1.469267    2.404276
     57          1           0      -12.375374    2.365932    0.426305
     58          1           0      -12.697320    1.954257    2.105847
     59          1           0      -10.883301    2.139680    1.510331
     60          1           0      -12.131782   -2.766843    1.212870
     61          1           0       -8.856294   -1.800040    0.483067
     62          1           0       -6.111865   -2.002062   -0.473268
     63          1           0       -5.628185   -1.393169    1.382636
     64          1           0       -7.016000   -2.571085    0.765531
     65          1           0       -7.133860    1.674925   -0.154213
     66          1           0       -4.554384    0.318260   -0.157812
     67          1           0       13.448898   -1.561933    2.119386
     68          1           0       12.056258   -2.147555    1.826596
     69          1           0       13.825138   -2.804167    0.260350
     70          1           0       13.238416   -2.206736   -1.904305
     71          1           0       11.676276   -2.580249   -0.978788
     72          1           0       11.407284   -0.259751    3.600233
     73          1           0       10.519565    1.050145    2.691567
     74          1           0       10.162372   -1.024138    2.618942
     75          1           0       13.780084    1.264491    1.111148
     76          1           0       12.234392    1.938828    1.503159
     77          1           0       13.160054    1.125834    2.825024
     78          1           0       13.131194    0.229285   -2.660774
     79          1           0       11.880596    1.466603   -2.034914
     80          1           0       13.234517    0.872459   -1.015229
     81          1           0       -5.423084    3.065990   -0.292640
     82          1           0       10.289692   -0.056408   -2.238975
     83          1           0       15.170285   -1.096476    0.538078
     84          1           0        8.390112    2.013704   -0.572909
     85          1           0       -2.355182    4.590153    0.312016
     86          1           0       -2.271443    4.432677   -1.322240
     87          1           0       -3.953439    4.644424   -0.715223
     88          1           0       -2.563311    0.603251   -0.008366
     89          1           0        6.790773   -1.720554   -0.290934
     90          1           0        8.511177   -1.632279   -0.498838
     91          1           0        8.146621   -1.400777    0.990026
     92          1           0        6.256007    1.935424   -0.365192
     93          1           0       -0.497808    2.915484   -0.674077
     94          1           0        4.984873   -1.012343   -0.192061
     95          1           0       -0.414907   -0.085209   -0.307849
     96          1           0        3.753039    1.974919   -0.227612
     97          1           0        1.339716    2.322163   -0.712367
     98          1           0        1.463994   -1.564017   -0.301238
     99          1           0        3.074467   -1.643458   -0.777315
    100          1           0        2.769766   -1.315916    0.943614
 ---------------------------------------------------------------------

 SCF Done:  E(RCAM-B3LYP) =  -1857.34371259     A.U. after   15 cycles

 Excitation energies and oscillator strengths:

 Excited State   1:      Singlet-A      2.1932 eV  565.32 nm  f=2.7875  <S**2>=0.000
     163 ->166        -0.12507
     164 ->165         0.69854
 This state for optimization and/or second-order correction.
 Total Energy, E(TD-HF/TD-DFT) =  -1857.26311514
 Copying the excited state density for this state as the 1-particle RhoCI density.

 The electronic state is 1-A.
 Alpha  occ. eigenvalues --  -19.22123 -19.21428 -19.20641 -19.20346 -10.32750
 Alpha  occ. eigenvalues --  -10.32308 -10.32105 -10.31732 -10.30309 -10.28668
 Alpha  occ. eigenvalues --  -10.28529 -10.28233 -10.28121 -10.27894 -10.27842
 Alpha  occ. eigenvalues --  -10.27637 -10.27617 -10.27535 -10.27180 -10.27149
 Alpha  occ. eigenvalues --  -10.27018 -10.26927 -10.26922 -10.26870 -10.26751
 Alpha  occ. eigenvalues --  -10.26414 -10.26335 -10.26218 -10.26098 -10.26064
 Alpha  occ. eigenvalues --  -10.25944 -10.25902 -10.25870 -10.25854 -10.25733
 Alpha  occ. eigenvalues --  -10.25483 -10.25320 -10.25277 -10.25150 -10.24981
 Alpha  occ. eigenvalues --  -10.24303 -10.24286 -10.24018 -10.23873  -1.14474
 Alpha  occ. eigenvalues --   -1.10130  -1.07264  -1.06723  -0.93310  -0.93084
 Alpha  occ. eigenvalues --   -0.92190  -0.91549  -0.90620  -0.89987  -0.88225
 Alpha  occ. eigenvalues --   -0.86589  -0.86286  -0.85715  -0.84957  -0.83992
 Alpha  occ. eigenvalues --   -0.82895  -0.80667  -0.80360  -0.78708  -0.77369
 Alpha  occ. eigenvalues --   -0.77270  -0.76736  -0.76186  -0.75677  -0.74838
 Alpha  occ. eigenvalues --   -0.74804  -0.74572  -0.73129  -0.70149  -0.69670
 Alpha  occ. eigenvalues --   -0.68770  -0.66654  -0.65699  -0.64821  -0.63787
 Alpha  occ. eigenvalues --   -0.63247  -0.62268  -0.61673  -0.60244  -0.59667
 Alpha  occ. eigenvalues --   -0.59368  -0.58325  -0.57245  -0.56743  -0.56549
 Alpha  occ. eigenvalues --   -0.55564  -0.55290  -0.54983  -0.54786  -0.54581
 Alpha  occ. eigenvalues --   -0.53392  -0.53118  -0.52727  -0.52290  -0.52085
 Alpha  occ. eigenvalues --   -0.51986  -0.51587  -0.51105  -0.49777  -0.49679
 Alpha  occ. eigenvalues --   -0.49507  -0.49376  -0.49346  -0.49019  -0.48862
 Alpha  occ. eigenvalues --   -0.48341  -0.47873  -0.47794  -0.46519  -0.46481
 Alpha  occ. eigenvalues --   -0.45936  -0.45694  -0.45493  -0.45365  -0.45110
 Alpha  occ. eigenvalues --   -0.44361  -0.43977  -0.43882  -0.43790  -0.43686
 Alpha  occ. eigenvalues --   -0.43496  -0.43255  -0.43078  -0.43068  -0.42373
 Alpha  occ. eigenvalues --   -0.42231  -0.41766  -0.41689  -0.41644  -0.41564
 Alpha  occ. eigenvalues --   -0.41232  -0.40948  -0.40688  -0.40633  -0.40071
 Alpha  occ. eigenvalues --   -0.39481  -0.39275  -0.38993  -0.38352  -0.38017
 Alpha  occ. eigenvalues --   -0.37889  -0.37708  -0.37640  -0.37188  -0.37104
 Alpha  occ. eigenvalues --   -0.36866  -0.35568  -0.35018  -0.34454  -0.33469
 Alpha  occ. eigenvalues --   -0.32979  -0.32543  -0.32217  -0.31306  -0.30973
 Alpha  occ. eigenvalues --   -0.29188  -0.28382  -0.24924  -0.19637
 Alpha virt. eigenvalues --   -0.05960  -0.00328   0.03500   0.04997   0.06978
 Alpha virt. eigenvalues --    0.10221   0.10516   0.10549   0.11355   0.11741
 Alpha virt. eigenvalues --    0.11931   0.12199   0.12705   0.13358   0.13957

 Mulliken charges:
               1
     1  O   -0.501709
     2  O   -0.568189
     3  O   -0.543948
     4  O   -0.578803
     5  C    0.215293
     6  C    0.261629
     7  C    0.002064
     8  C   -0.224919
     9  C   -0.178829
    10  C    0.163487
    11  C   -0.331698
    12  C   -0.115586
    13  C   -0.299102
    14  C   -0.304501
    15  C   -0.048382
    16  C    0.062143
    17  C   -0.387058
    18  C   -0.106737
    19  C   -0.000116
    20  C    0.027714
    21  C    0.232132
    22  C   -0.158539
    23  C    0.118696
    24  C   -0.185923
    25  C   -0.089334
    26  C   -0.304883
    27  C   -0.309636
    28  C   -0.302582
    29  C   -0.159453
    30  C    0.214169
    31  C    0.125001
    32  C   -0.346586
    33  C   -0.380541
    34  C   -0.133192
    35  C    0.142982
    36  C   -0.377127
    37  C   -0.106742
    38  C   -0.070590
    39  C   -0.112364
    40  C   -0.069775
    41  C   -0.110047
    42  C   -0.137680
    43  C    0.090129
    44  C   -0.371550
    45  H    0.102646
    46  H    0.113263
    47  H    0.088227
    48  H    0.105276
    49  H    0.097383
    50  H    0.072441
    51  H    0.110385
    52  H    0.121712
    53  H    0.101008
    54  H    0.092729
    55  H    0.118341
    56  H    0.090396
    57  H    0.123403
    58  H    0.103268
    59  H    0.087157
    60  H    0.306707
    61  H    0.068305
    62  H    0.155252
    63  H    0.139005
    64  H    0.092511
    65  H    0.087168
    66  H    0.053494
    67  H    0.090127
    68  H    0.097781
    69  H    0.094961
    70  H    0.107941
    71  H    0.118051
    72  H    0.100173
    73  H    0.096469
    74  H    0.106361
    75  H    0.122042
    76  H    0.092266
    77  H    0.093748
    78  H    0.109854
    79  H    0.092525
    80  H    0.135850
    81  H    0.043736
    82  H    0.305261
    83  H    0.296298
    84  H    0.100250
    85  H    0.103969
    86  H    0.111637
    87  H    0.121340
    88  H    0.088753
    89  H    0.102883
    90  H    0.146187
    91  H    0.122817
    92  H    0.087945
    93  H    0.084414
    94  H    0.068964
    95  H    0.077015
    96  H    0.076666
    97  H    0.070980
    98  H    0.111604
    99  H    0.120030
   100  H    0.131703
 Sum of Mulliken charges =  -0.00000

 Dipole moment (field-independent basis, Debye):
    X=              3.3322    Y=             -0.7301    Z=              1.7264  Tot=              3.8232
 Quadrupole moment (field-independent basis, Debye-Ang):
   XX=           -275.9119   YY=           -260.1012   ZZ=           -275.8749
   XY=            -12.5749   XZ=             26.9454   YZ=             -3.2670

 Normal termination of Gaussian 16 at Wed Jul 31 05:03:32 2019.
