 Gaussian 16, Revision A.03,
 Gaussian 16:  ES64L-G16RevA.03 25-Dec-2016

 -------------------------------------
 # td=(NStates=1) CAM-B3LYP/6-31G(d,p)
 -------------------------------------

 --
 TD
 --
 Symbolic Z-matrix:
 Charge =  0 Multiplicity = 1

                         Standard orientation:
 ---------------------------------------------------------------------
 Center     Atomic      Atomic             Coordinates (Angstroms)
 Number     Number       Type             X           Y           Z
 ---------------------------------------------------------------------
      1          8           0      -11.686878    0.229505   -1.416997
      2          8           0      -12.774425   -2.608336    1.383999
      3          8           0       10.586507   -1.212807   -2.051144
      4          8           0       14.413516   -1.030954   -0.160732
      5          6           0      -11.065020   -0.083256   -0.313370
      6          6           0      -11.661687   -1.143033   -1.266053
      7          6           0      -11.801566    0.283748    1.036824
      8          6           0      -12.990965   -1.766211   -0.934034
      9          6           0      -13.247824   -0.121475    0.996016
     10          6           0      -13.479843   -1.619424    0.540242
     11          6           0      -10.853870   -1.943222   -2.319792
     12          6           0       -9.619009    0.099340   -0.334579
     13          6           0      -11.007598   -0.252068    2.194787
     14          6           0      -11.826878    1.851363    1.192229
     15          6           0       -8.711366   -0.836228   -0.004600
     16          6           0       -7.282237   -0.565231    0.005536
     17          6           0       -6.267365   -1.721436    0.274653
     18          6           0       -6.583100    0.769661   -0.121334
     19          6           0       -5.214316    0.916775   -0.164927
     20          6           0       11.961048    0.060880    1.328143
     21          6           0       11.570897   -0.777684   -1.228899
     22          6           0       12.646977   -1.221738    1.487189
     23          6           0       13.318078   -1.801500    0.346839
     24          6           0       12.248280   -2.018891   -0.799850
     25          6           0       11.118644    0.011298    0.076479
     26          6           0       11.026016    0.338155    2.525720
     27          6           0       12.946278    1.175371    1.057777
     28          6           0       12.528662    0.121310   -2.024572
     29          6           0       -4.697351    2.304209   -0.287142
     30          6           0        9.943195    0.544451   -0.087162
     31          6           0       -3.371180    2.524895   -0.489339
     32          6           0        8.689848    0.926628   -0.298980
     33          6           0       -3.039136    3.983678   -0.791463
     34          6           0       -2.386268    1.660607   -0.325805
     35          6           0        7.432603    0.201697   -0.139711
     36          6           0        7.623936   -1.138286    0.469659
     37          6           0        6.232542    0.785997   -0.226359
     38          6           0       -0.987310    1.944836   -0.439690
     39          6           0        4.990970    0.265882    0.024962
     40          6           0       -0.025387    1.004541   -0.025690
     41          6           0        3.794568    0.969429   -0.092597
     42          6           0        1.376161    1.259457   -0.168009
     43          6           0        2.473093    0.404986    0.061626
     44          6           0        2.398205   -0.969522    0.506622
     45          1           0      -12.973356   -2.762805   -1.152768
     46          1           0      -13.755969   -1.216178   -1.660255
     47          1           0      -13.615500    0.128473    1.983806
     48          1           0      -13.774127    0.620870    0.193382
     49          1           0      -14.548285   -1.801195    0.528942
     50          1           0      -10.518265   -2.818017   -1.804896
     51          1           0      -11.359304   -2.165627   -3.293468
     52          1           0       -9.829209   -1.484586   -2.640101
     53          1           0       -9.148502    1.057495   -0.820481
     54          1           0      -10.097067    0.111257    2.103128
     55          1           0      -11.424570    0.215007    3.104681
     56          1           0      -10.840329   -1.330967    2.227615
     57          1           0      -12.320345    2.316505    0.158960
     58          1           0      -12.591922    2.108145    2.107015
     59          1           0      -10.933053    2.390436    1.377572
     60          1           0      -11.868348   -2.742017    1.088193
     61          1           0       -8.987922   -1.956760    0.173082
     62          1           0       -5.659443   -2.000470   -0.606671
     63          1           0       -5.715795   -1.304277    1.217136
     64          1           0       -6.985447   -2.627601    0.556075
     65          1           0       -7.354222    1.578241   -0.487150
     66          1           0       -4.629289   -0.182523   -0.304674
     67          1           0       13.205688   -1.076151    2.373571
     68          1           0       11.912802   -1.982778    1.888152
     69          1           0       13.577205   -2.901644    0.452463
     70          1           0       12.590517   -2.583016   -1.581336
     71          1           0       11.399640   -2.692503   -0.199541
     72          1           0       11.667938    0.194472    3.360852
     73          1           0       10.500168    1.248441    2.707816
     74          1           0       10.313026   -0.486488    2.669792
     75          1           0       13.818404    0.933283    0.202358
     76          1           0       12.358385    1.970700    1.123915
     77          1           0       13.594582    1.467625    2.059196
     78          1           0       12.756379   -0.465761   -2.928409
     79          1           0       12.058590    1.170629   -2.093877
     80          1           0       13.325823    0.418470   -1.377981
     81          1           0       -5.538180    3.151725   -0.141546
     82          1           0        9.796419   -0.574403   -2.056451
     83          1           0       15.108761   -1.091212    0.595985
     84          1           0        8.732967    1.940900   -1.064489
     85          1           0       -2.345525    4.407709   -0.090684
     86          1           0       -2.500318    4.206851   -1.590803
     87          1           0       -4.071686    4.415575   -0.958132
     88          1           0       -2.822399    0.642317    0.139374
     89          1           0        6.711820   -1.575205    0.456693
     90          1           0        8.439811   -1.667220   -0.021518
     91          1           0        7.702577   -0.834944    1.589582
     92          1           0        6.343860    1.834762   -0.655666
     93          1           0       -0.485165    2.956237   -0.750794
     94          1           0        4.867268   -0.690466    0.469812
     95          1           0       -0.325854    0.007197    0.650835
     96          1           0        3.947351    1.974477   -0.398673
     97          1           0        1.661605    2.227287   -0.291555
     98          1           0        1.314313   -1.242073    0.888087
     99          1           0        2.630315   -1.612788   -0.415904
    100          1           0        3.169069   -1.424621    1.450674
 ---------------------------------------------------------------------

 SCF Done:  E(RCAM-B3LYP) =  -1857.25554019     A.U. after   16 cycles

 Excitation energies and oscillator strengths:

 Excited State   1:      Singlet-A      1.9269 eV  643.44 nm  f=2.6737  <S**2>=0.000
     163 ->166         0.13243
     164 ->165         0.69924
     164 <-165        -0.11328
 This state for optimization and/or second-order correction.
 Total Energy, E(TD-HF/TD-DFT) =  -1857.18472825
 Copying the excited state density for this state as the 1-particle RhoCI density.

 The electronic state is 1-A.
 Alpha  occ. eigenvalues --  -19.23412 -19.22966 -19.21383 -19.20729 -10.32589
 Alpha  occ. eigenvalues --  -10.32128 -10.31735 -10.31507 -10.30627 -10.28882
 Alpha  occ. eigenvalues --  -10.28839 -10.28540 -10.28478 -10.28418 -10.28399
 Alpha  occ. eigenvalues --  -10.28342 -10.28054 -10.27922 -10.27883 -10.27805
 Alpha  occ. eigenvalues --  -10.27543 -10.27187 -10.27060 -10.27046 -10.26797
 Alpha  occ. eigenvalues --  -10.26585 -10.26563 -10.26517 -10.26428 -10.26176
 Alpha  occ. eigenvalues --  -10.26081 -10.26062 -10.26035 -10.25928 -10.25656
 Alpha  occ. eigenvalues --  -10.25452 -10.25303 -10.25124 -10.25103 -10.24676
 Alpha  occ. eigenvalues --  -10.24591 -10.24157 -10.22814 -10.22756  -1.21292
 Alpha  occ. eigenvalues --   -1.10809  -1.10012  -1.07962  -0.94586  -0.92657
 Alpha  occ. eigenvalues --   -0.92375  -0.91235  -0.90782  -0.89670  -0.87180
 Alpha  occ. eigenvalues --   -0.86828  -0.86226  -0.85894  -0.84964  -0.83234
 Alpha  occ. eigenvalues --   -0.81531  -0.80859  -0.80435  -0.78476  -0.77285
 Alpha  occ. eigenvalues --   -0.76682  -0.76590  -0.76189  -0.75791  -0.75668
 Alpha  occ. eigenvalues --   -0.74739  -0.74114  -0.72896  -0.70467  -0.70066
 Alpha  occ. eigenvalues --   -0.68528  -0.66923  -0.65186  -0.65114  -0.64484
 Alpha  occ. eigenvalues --   -0.63032  -0.61621  -0.60244  -0.59814  -0.59753
 Alpha  occ. eigenvalues --   -0.59556  -0.58111  -0.57948  -0.57478  -0.57058
 Alpha  occ. eigenvalues --   -0.55759  -0.55412  -0.55219  -0.55019  -0.54423
 Alpha  occ. eigenvalues --   -0.53222  -0.52932  -0.52698  -0.52579  -0.51391
 Alpha  occ. eigenvalues --   -0.51242  -0.50837  -0.50403  -0.49815  -0.49582
 Alpha  occ. eigenvalues --   -0.49491  -0.49427  -0.49113  -0.48794  -0.48670
 Alpha  occ. eigenvalues --   -0.48227  -0.48069  -0.47909  -0.47739  -0.47104
 Alpha  occ. eigenvalues --   -0.47015  -0.46684  -0.46063  -0.45757  -0.45437
 Alpha  occ. eigenvalues --   -0.45253  -0.44532  -0.44344  -0.44041  -0.43557
 Alpha  occ. eigenvalues --   -0.43427  -0.43352  -0.42873  -0.42846  -0.42534
 Alpha  occ. eigenvalues --   -0.42073  -0.42018  -0.42003  -0.41703  -0.41589
 Alpha  occ. eigenvalues --   -0.41205  -0.40676  -0.39938  -0.39807  -0.39647
 Alpha  occ. eigenvalues --   -0.39244  -0.39114  -0.38821  -0.38718  -0.38610
 Alpha  occ. eigenvalues --   -0.38346  -0.37812  -0.37749  -0.36992  -0.36734
 Alpha  occ. eigenvalues --   -0.36237  -0.35781  -0.35652  -0.34382  -0.33586
 Alpha  occ. eigenvalues --   -0.33225  -0.32494  -0.32166  -0.31297  -0.30533
 Alpha  occ. eigenvalues --   -0.29139  -0.28057  -0.23557  -0.19159
 Alpha virt. eigenvalues --   -0.06768  -0.01674   0.03109   0.05944   0.06613
 Alpha virt. eigenvalues --    0.09025   0.09303   0.09437   0.10493   0.11118
 Alpha virt. eigenvalues --    0.11470   0.12022   0.12771   0.12968   0.13605

 Mulliken charges:
               1
     1  O   -0.460515
     2  O   -0.561093
     3  O   -0.569624
     4  O   -0.541404
     5  C    0.237500
     6  C    0.202902
     7  C    0.015934
     8  C   -0.216519
     9  C   -0.176782
    10  C    0.160789
    11  C   -0.346622
    12  C   -0.121217
    13  C   -0.282189
    14  C   -0.307752
    15  C   -0.062134
    16  C    0.030819
    17  C   -0.375715
    18  C   -0.101378
    19  C   -0.091768
    20  C    0.018806
    21  C    0.278199
    22  C   -0.176311
    23  C    0.128220
    24  C   -0.167525
    25  C   -0.096345
    26  C   -0.327664
    27  C   -0.290431
    28  C   -0.277848
    29  C   -0.166683
    30  C    0.158318
    31  C    0.145729
    32  C   -0.301717
    33  C   -0.371162
    34  C   -0.117381
    35  C    0.089244
    36  C   -0.354848
    37  C   -0.088350
    38  C   -0.108744
    39  C   -0.085652
    40  C   -0.077878
    41  C   -0.120740
    42  C   -0.123798
    43  C    0.132552
    44  C   -0.373506
    45  H    0.111999
    46  H    0.100942
    47  H    0.100229
    48  H    0.087777
    49  H    0.108826
    50  H    0.109631
    51  H    0.119912
    52  H    0.114346
    53  H    0.100117
    54  H    0.121618
    55  H    0.091736
    56  H    0.084793
    57  H    0.091195
    58  H    0.081946
    59  H    0.113257
    60  H    0.307130
    61  H    0.075140
    62  H    0.133986
    63  H    0.132793
    64  H    0.084410
    65  H    0.073006
    66  H    0.108354
    67  H    0.091343
    68  H    0.095369
    69  H    0.088021
    70  H    0.109733
    71  H    0.073968
    72  H    0.098491
    73  H    0.123007
    74  H    0.111612
    75  H    0.140159
    76  H    0.116165
    77  H    0.043191
    78  H    0.106909
    79  H    0.076670
    80  H    0.118007
    81  H    0.108955
    82  H    0.307469
    83  H    0.314055
    84  H    0.077662
    85  H    0.121104
    86  H    0.128423
    87  H    0.095772
    88  H    0.076347
    89  H    0.114879
    90  H    0.126516
    91  H    0.118721
    92  H    0.073494
    93  H    0.096447
    94  H    0.077327
    95  H    0.080242
    96  H    0.076918
    97  H    0.081912
    98  H    0.097643
    99  H    0.130198
   100  H    0.092411
 Sum of Mulliken charges =  -0.00000

 Dipole moment (field-independent basis, Debye):
    X=              1.7575    Y=             -0.6126    Z=              1.8377  Tot=              2.6156
 Quadrupole moment (field-independent basis, Debye-Ang):
   XX=           -267.0203   YY=           -262.9519   ZZ=           -278.7926
   XY=             -7.3194   XZ=             45.7180   YZ=             -0.5996

 Normal termination of Gaussian 16 at Thu Aug  1 21:00:13 2019.
