 Gaussian 16, Revision A.03,
 Gaussian 16:  ES64L-G16RevA.03 25-Dec-2016

 -------------------------------------
 # td=(NStates=1) CAM-B3LYP/6-31G(d,p)
 -------------------------------------

 --
 TD
 --
 Symbolic Z-matrix:
 Charge =  0 Multiplicity = 1

                         Standard orientation:
 ---------------------------------------------------------------------
 Center     Atomic      Atomic             Coordinates (Angstroms)
 Number     Number       Type             X           Y           Z
 ---------------------------------------------------------------------
      1          8           0      -11.771679    0.240448   -1.526968
      2          8           0      -12.923316   -2.394636    1.522621
      3          8           0       10.689510   -1.092377   -2.043081
      4          8           0       14.524294   -0.920507    0.051779
      5          6           0      -11.074427   -0.115142   -0.286595
      6          6           0      -11.779942   -1.196134   -1.158243
      7          6           0      -11.857789    0.352508    0.979397
      8          6           0      -13.136269   -1.682817   -0.792147
      9          6           0      -13.300403   -0.006023    1.000707
     10          6           0      -13.594881   -1.362877    0.653445
     11          6           0      -11.045182   -2.174510   -2.115317
     12          6           0       -9.617872    0.014021   -0.323754
     13          6           0      -11.010772    0.004409    2.194805
     14          6           0      -11.747778    1.945725    0.930774
     15          6           0       -8.601389   -0.759639    0.011211
     16          6           0       -7.191185   -0.524483   -0.001085
     17          6           0       -6.340192   -1.774218    0.276365
     18          6           0       -6.623360    0.633035   -0.100089
     19          6           0       -5.223243    0.866498   -0.409170
     20          6           0       11.853235    0.174839    1.369535
     21          6           0       11.749862   -0.662548   -1.240431
     22          6           0       12.532785   -1.237782    1.522551
     23          6           0       13.400262   -1.807660    0.378388
     24          6           0       12.508687   -2.009332   -0.895192
     25          6           0       11.048726    0.031534    0.082737
     26          6           0       10.915145    0.353210    2.449692
     27          6           0       12.960784    1.219952    1.297994
     28          6           0       12.638889    0.364155   -1.949053
     29          6           0       -4.645240    2.115125   -0.464376
     30          6           0        9.869944    0.520683   -0.041294
     31          6           0       -3.285192    2.493453   -0.586108
     32          6           0        8.621279    0.919161   -0.128766
     33          6           0       -3.030448    3.940138   -0.715424
     34          6           0       -2.292992    1.519522   -0.417122
     35          6           0        7.386577    0.115149    0.028949
     36          6           0        7.686119   -1.350189    0.286350
     37          6           0        6.223527    0.824680   -0.038034
     38          6           0       -0.926828    1.814228   -0.386062
     39          6           0        5.045080    0.211528    0.075795
     40          6           0        0.025302    0.813863   -0.211782
     41          6           0        3.797135    0.837202   -0.012419
     42          6           0        1.457598    1.133566   -0.314160
     43          6           0        2.514918    0.314927   -0.012430
     44          6           0        2.235998   -1.207015    0.281463
     45          1           0      -13.171690   -2.744391   -1.071751
     46          1           0      -13.928891   -1.253011   -1.277600
     47          1           0      -13.507780    0.342091    2.016660
     48          1           0      -13.819341    0.804793    0.401061
     49          1           0      -14.657262   -1.693083    0.789249
     50          1           0      -10.779087   -3.234783   -1.782900
     51          1           0      -11.355502   -2.114085   -3.229066
     52          1           0      -10.098946   -1.642931   -2.276712
     53          1           0       -9.369527    1.004504   -0.725455
     54          1           0      -10.031887    0.266469    2.256211
     55          1           0      -11.576516    0.159848    2.975545
     56          1           0      -10.934927   -0.952008    2.494901
     57          1           0      -12.293820    2.251842    0.067941
     58          1           0      -12.254747    2.255470    1.866720
     59          1           0      -10.808854    2.134015    1.096699
     60          1           0      -12.082542   -2.007522    1.450412
     61          1           0       -9.047763   -1.521322    0.512792
     62          1           0       -5.620606   -1.982656   -0.562093
     63          1           0       -5.696121   -1.721677    1.058183
     64          1           0       -7.064270   -2.598228    0.354850
     65          1           0       -7.379851    1.678942   -0.327697
     66          1           0       -4.545443   -0.062350   -0.344317
     67          1           0       13.170967   -1.225538    2.338225
     68          1           0       11.774290   -1.809550    1.632847
     69          1           0       13.869754   -2.780915    0.488430
     70          1           0       13.310578   -2.340818   -1.740173
     71          1           0       11.720372   -2.756802   -0.694998
     72          1           0       11.693607    0.310571    3.311229
     73          1           0       10.491875    1.418526    2.172087
     74          1           0       10.304727   -0.409513    2.621788
     75          1           0       13.791841    0.808734    0.544470
     76          1           0       12.412244    2.175917    0.910136
     77          1           0       13.422542    1.495684    2.280875
     78          1           0       12.986103   -0.185689   -2.991614
     79          1           0       12.140707    1.298634   -2.189659
     80          1           0       13.536042    0.596538   -1.494255
     81          1           0       -5.513467    2.787893   -0.247734
     82          1           0       10.271534   -0.217431   -2.448822
     83          1           0       15.149382   -0.718700    0.899938
     84          1           0        8.519642    2.117601   -0.547794
     85          1           0       -2.096826    4.224954   -0.044682
     86          1           0       -2.939843    3.970826   -1.963149
     87          1           0       -3.950441    4.544466   -0.490977
     88          1           0       -2.714355    0.615753    0.013758
     89          1           0        6.753075   -2.133419    0.554601
     90          1           0        8.401343   -1.682467   -0.613508
     91          1           0        8.381329   -1.403352    1.166557
     92          1           0        6.223292    1.853889   -0.276343
     93          1           0       -0.674231    2.778574   -0.492908
     94          1           0        4.733098   -0.926029    0.256851
     95          1           0       -0.254539   -0.172848   -0.143348
     96          1           0        3.776424    1.961626   -0.120986
     97          1           0        1.766585    2.219756   -0.873447
     98          1           0        1.068416   -1.256940    0.330737
     99          1           0        2.851018   -1.748598   -0.522794
    100          1           0        2.619020   -1.421140    1.269562
 ---------------------------------------------------------------------

 SCF Done:  E(RCAM-B3LYP) =  -1857.24678900     A.U. after   15 cycles

 Excitation energies and oscillator strengths:

 Excited State   1:      Singlet-A      2.3219 eV  533.98 nm  f=3.1883  <S**2>=0.000
     163 ->166        -0.14588
     164 ->165         0.68946
 This state for optimization and/or second-order correction.
 Total Energy, E(TD-HF/TD-DFT) =  -1857.16146147
 Copying the excited state density for this state as the 1-particle RhoCI density.

 The electronic state is 1-A.
 Alpha  occ. eigenvalues --  -19.23113 -19.22160 -19.21995 -19.19763 -10.32842
 Alpha  occ. eigenvalues --  -10.32377 -10.32345 -10.31672 -10.30565 -10.28398
 Alpha  occ. eigenvalues --  -10.28309 -10.28260 -10.28098 -10.27933 -10.27577
 Alpha  occ. eigenvalues --  -10.27502 -10.27479 -10.27232 -10.27172 -10.27103
 Alpha  occ. eigenvalues --  -10.27014 -10.26927 -10.26926 -10.26681 -10.26654
 Alpha  occ. eigenvalues --  -10.26532 -10.26312 -10.26193 -10.26096 -10.25942
 Alpha  occ. eigenvalues --  -10.25859 -10.25837 -10.25743 -10.25732 -10.25674
 Alpha  occ. eigenvalues --  -10.25498 -10.25367 -10.25322 -10.24841 -10.24405
 Alpha  occ. eigenvalues --  -10.24156 -10.23868 -10.23663 -10.22454  -1.12428
 Alpha  occ. eigenvalues --   -1.09636  -1.08176  -1.07785  -0.93720  -0.93122
 Alpha  occ. eigenvalues --   -0.92545  -0.92165  -0.91616  -0.90140  -0.87689
 Alpha  occ. eigenvalues --   -0.87065  -0.86112  -0.85487  -0.85106  -0.82901
 Alpha  occ. eigenvalues --   -0.82319  -0.81739  -0.80181  -0.79043  -0.77783
 Alpha  occ. eigenvalues --   -0.76935  -0.76714  -0.76603  -0.76269  -0.75662
 Alpha  occ. eigenvalues --   -0.75520  -0.75215  -0.73298  -0.70990  -0.69881
 Alpha  occ. eigenvalues --   -0.69127  -0.66974  -0.65333  -0.64437  -0.64161
 Alpha  occ. eigenvalues --   -0.63341  -0.61945  -0.60646  -0.59871  -0.59353
 Alpha  occ. eigenvalues --   -0.58573  -0.57960  -0.57773  -0.57167  -0.56188
 Alpha  occ. eigenvalues --   -0.55720  -0.55470  -0.54888  -0.54848  -0.54415
 Alpha  occ. eigenvalues --   -0.54255  -0.53550  -0.53499  -0.52845  -0.52041
 Alpha  occ. eigenvalues --   -0.51590  -0.51219  -0.51072  -0.50047  -0.49827
 Alpha  occ. eigenvalues --   -0.49585  -0.48878  -0.48638  -0.48495  -0.48315
 Alpha  occ. eigenvalues --   -0.48259  -0.47847  -0.47740  -0.47035  -0.46686
 Alpha  occ. eigenvalues --   -0.46592  -0.46498  -0.46044  -0.45633  -0.45341
 Alpha  occ. eigenvalues --   -0.45049  -0.44922  -0.44528  -0.43898  -0.43788
 Alpha  occ. eigenvalues --   -0.43703  -0.43346  -0.43299  -0.43130  -0.42624
 Alpha  occ. eigenvalues --   -0.42321  -0.42196  -0.42107  -0.41889  -0.41298
 Alpha  occ. eigenvalues --   -0.41201  -0.40517  -0.40298  -0.40030  -0.39963
 Alpha  occ. eigenvalues --   -0.39870  -0.39545  -0.39403  -0.39153  -0.38514
 Alpha  occ. eigenvalues --   -0.38199  -0.37942  -0.37797  -0.37326  -0.37031
 Alpha  occ. eigenvalues --   -0.36799  -0.35996  -0.35243  -0.34356  -0.33430
 Alpha  occ. eigenvalues --   -0.32853  -0.32415  -0.31970  -0.31151  -0.30606
 Alpha  occ. eigenvalues --   -0.30021  -0.28504  -0.24460  -0.19880
 Alpha virt. eigenvalues --   -0.05421  -0.00843   0.03325   0.06528   0.07278
 Alpha virt. eigenvalues --    0.08571   0.10139   0.10916   0.11377   0.12035
 Alpha virt. eigenvalues --    0.12092   0.12178   0.12354   0.12703   0.13614

 Mulliken charges:
               1
     1  O   -0.523914
     2  O   -0.562856
     3  O   -0.558980
     4  O   -0.567151
     5  C    0.229896
     6  C    0.221510
     7  C   -0.052878
     8  C   -0.176055
     9  C   -0.170603
    10  C    0.092388
    11  C   -0.361958
    12  C   -0.124921
    13  C   -0.332896
    14  C   -0.289324
    15  C   -0.063266
    16  C    0.113254
    17  C   -0.378145
    18  C   -0.124899
    19  C   -0.076537
    20  C    0.002008
    21  C    0.273884
    22  C   -0.173908
    23  C    0.150545
    24  C   -0.197554
    25  C   -0.113284
    26  C   -0.264632
    27  C   -0.314423
    28  C   -0.312598
    29  C   -0.125424
    30  C    0.192958
    31  C    0.088618
    32  C   -0.311896
    33  C   -0.354971
    34  C   -0.107754
    35  C    0.140483
    36  C   -0.374459
    37  C   -0.094900
    38  C   -0.064973
    39  C   -0.078515
    40  C   -0.095474
    41  C   -0.124220
    42  C   -0.142777
    43  C    0.107895
    44  C   -0.361762
    45  H    0.112358
    46  H    0.119911
    47  H    0.110369
    48  H    0.118415
    49  H    0.099083
    50  H    0.117293
    51  H    0.117522
    52  H    0.122639
    53  H    0.090368
    54  H    0.129346
    55  H    0.111572
    56  H    0.103489
    57  H    0.128687
    58  H    0.089883
    59  H    0.110098
    60  H    0.302257
    61  H    0.072578
    62  H    0.116791
    63  H    0.137151
    64  H    0.109908
    65  H    0.054225
    66  H    0.072858
    67  H    0.080621
    68  H    0.099874
    69  H    0.093998
    70  H    0.100798
    71  H    0.122986
    72  H    0.071964
    73  H    0.104802
    74  H    0.111903
    75  H    0.126974
    76  H    0.080207
    77  H    0.090082
    78  H    0.081020
    79  H    0.095145
    80  H    0.149873
    81  H    0.082850
    82  H    0.310643
    83  H    0.315237
    84  H    0.079992
    85  H    0.116040
    86  H    0.111172
    87  H    0.123218
    88  H    0.086361
    89  H    0.094394
    90  H    0.140094
    91  H    0.124803
    92  H    0.093940
    93  H    0.077805
    94  H    0.071160
    95  H    0.089969
    96  H    0.062746
    97  H    0.070257
    98  H    0.100729
    99  H    0.126819
   100  H    0.129188
 Sum of Mulliken charges =  -0.00000

 Dipole moment (field-independent basis, Debye):
    X=              4.1427    Y=              0.5243    Z=              2.0611  Tot=              4.6567
 Quadrupole moment (field-independent basis, Debye-Ang):
   XX=           -258.5997   YY=           -265.1025   ZZ=           -277.0079
   XY=            -15.2441   XZ=             17.1052   YZ=             -1.5871

 Normal termination of Gaussian 16 at Tue Jul 30 01:49:48 2019.
