 Gaussian 16, Revision A.03,
 Gaussian 16:  ES64L-G16RevA.03 25-Dec-2016

 -------------------------------------
 # td=(NStates=1) CAM-B3LYP/6-31G(d,p)
 -------------------------------------

 --
 TD
 --
 Symbolic Z-matrix:
 Charge =  0 Multiplicity = 1

                         Standard orientation:
 ---------------------------------------------------------------------
 Center     Atomic      Atomic             Coordinates (Angstroms)
 Number     Number       Type             X           Y           Z
 ---------------------------------------------------------------------
      1          8           0      -11.736578    0.277937   -1.493087
      2          8           0      -12.839734   -2.506981    1.407051
      3          8           0       10.600186   -0.792979   -2.169198
      4          8           0       14.448378   -1.149188   -0.197141
      5          6           0      -11.079074   -0.227644   -0.301440
      6          6           0      -11.738451   -1.146438   -1.275902
      7          6           0      -11.680769    0.291539    1.007940
      8          6           0      -13.121774   -1.731805   -0.887240
      9          6           0      -13.228827   -0.094848    0.917944
     10          6           0      -13.537071   -1.501437    0.469182
     11          6           0      -10.928379   -1.830060   -2.256392
     12          6           0       -9.620892    0.072139   -0.444304
     13          6           0      -11.079443   -0.338782    2.151181
     14          6           0      -11.654261    1.872729    1.102665
     15          6           0       -8.674490   -0.772343    0.099464
     16          6           0       -7.243327   -0.602583    0.121223
     17          6           0       -6.392529   -1.757491    0.349794
     18          6           0       -6.638505    0.656517   -0.129786
     19          6           0       -5.281157    0.910640   -0.166436
     20          6           0       11.894189   -0.175662    1.414075
     21          6           0       11.742138   -0.587688   -1.304512
     22          6           0       12.655544   -1.446282    1.419135
     23          6           0       13.372343   -1.870248    0.138533
     24          6           0       12.408545   -1.861456   -1.066983
     25          6           0       11.101319   -0.025401    0.058766
     26          6           0       11.004131   -0.003963    2.635912
     27          6           0       12.981587    1.009863    1.515804
     28          6           0       12.514986    0.485785   -1.931763
     29          6           0       -4.766618    2.199012   -0.290742
     30          6           0        9.919071    0.587870    0.035877
     31          6           0       -3.393541    2.484776   -0.281321
     32          6           0        8.691356    1.020523   -0.029864
     33          6           0       -3.091404    4.013133   -0.504381
     34          6           0       -2.319920    1.633444   -0.182417
     35          6           0        7.404338    0.277693    0.058560
     36          6           0        7.602394   -1.185297    0.324021
     37          6           0        6.221743    0.796950   -0.141584
     38          6           0       -0.979020    1.894143   -0.222421
     39          6           0        4.944936    0.268332   -0.093945
     40          6           0        0.000336    0.928977   -0.154543
     41          6           0        3.805958    1.005727   -0.362081
     42          6           0        1.384199    1.231063   -0.166810
     43          6           0        2.543153    0.438104   -0.086709
     44          6           0        2.354326   -1.042249    0.097793
     45          1           0      -13.185858   -2.754346   -1.301313
     46          1           0      -13.883128   -1.081906   -1.537025
     47          1           0      -13.598198    0.022302    1.894902
     48          1           0      -13.761735    0.415464    0.197165
     49          1           0      -14.598368   -1.711134    0.700400
     50          1           0      -10.738073   -2.960731   -2.061109
     51          1           0      -11.567536   -1.960035   -3.174611
     52          1           0       -9.983607   -1.307109   -2.517550
     53          1           0       -9.338986    1.097407   -0.752261
     54          1           0       -9.956358    0.106328    2.343053
     55          1           0      -11.756423    0.004099    3.118967
     56          1           0      -10.889865   -1.409872    2.170067
     57          1           0      -12.031460    2.288299    0.254780
     58          1           0      -12.293772    1.986217    1.954186
     59          1           0      -10.567545    1.998978    1.107790
     60          1           0      -12.010034   -2.401570    0.975486
     61          1           0       -8.747712   -1.783007    0.434871
     62          1           0       -6.014148   -2.131509   -0.551321
     63          1           0       -5.525344   -1.384981    0.963198
     64          1           0       -6.743999   -2.701282    0.671024
     65          1           0       -7.263183    1.624541   -0.366488
     66          1           0       -4.698273   -0.141535   -0.235808
     67          1           0       13.411830   -1.275914    2.246585
     68          1           0       11.989856   -2.140162    1.796217
     69          1           0       13.766048   -3.007574    0.446169
     70          1           0       12.911182   -2.253734   -1.913496
     71          1           0       11.488939   -2.696200   -0.804615
     72          1           0       11.599233   -0.119368    3.466884
     73          1           0       10.620800    0.860379    2.638453
     74          1           0       10.145942   -0.713430    2.702914
     75          1           0       13.664084    1.082489    0.535828
     76          1           0       12.565389    2.064072    1.645417
     77          1           0       13.617977    0.730662    2.304275
     78          1           0       13.138202    0.119288   -2.728833
     79          1           0       11.847420    1.337123   -2.395090
     80          1           0       13.191992    0.955030   -1.280325
     81          1           0       -5.537696    3.083108   -0.241385
     82          1           0       10.101527   -0.188795   -2.054926
     83          1           0       15.096565   -0.805028    0.508655
     84          1           0        8.263150    2.086104   -0.243250
     85          1           0       -2.540430    4.427046    0.341202
     86          1           0       -2.495609    4.207133   -1.454225
     87          1           0       -4.018880    4.625027   -0.623470
     88          1           0       -2.584809    0.607296   -0.018952
     89          1           0        6.665056   -1.684771    0.489358
     90          1           0        8.162279   -1.798601   -0.582336
     91          1           0        8.317775   -1.313622    1.203843
     92          1           0        6.397442    1.778478   -0.572404
     93          1           0       -0.735821    2.830138   -0.361054
     94          1           0        4.833050   -0.696989    0.145690
     95          1           0       -0.221852   -0.035396    0.135479
     96          1           0        3.974350    2.248314   -0.262094
     97          1           0        1.632104    2.276686   -0.319085
     98          1           0        1.366739   -1.464015   -0.101714
     99          1           0        3.234642   -1.540817   -0.470086
    100          1           0        2.924269   -1.292582    1.333200
 ---------------------------------------------------------------------

 SCF Done:  E(RCAM-B3LYP) =  -1857.29065126     A.U. after   15 cycles

 Excitation energies and oscillator strengths:

 Excited State   1:      Singlet-A      2.0678 eV  599.59 nm  f=3.0770  <S**2>=0.000
     163 ->166        -0.13346
     164 ->165         0.69763
     164 <-165        -0.10138
 This state for optimization and/or second-order correction.
 Total Energy, E(TD-HF/TD-DFT) =  -1857.21466039
 Copying the excited state density for this state as the 1-particle RhoCI density.

 The electronic state is 1-A.
 Alpha  occ. eigenvalues --  -19.22880 -19.21995 -19.19956 -19.18238 -10.32854
 Alpha  occ. eigenvalues --  -10.32845 -10.32112 -10.31642 -10.30599 -10.28801
 Alpha  occ. eigenvalues --  -10.28373 -10.28038 -10.27908 -10.27814 -10.27793
 Alpha  occ. eigenvalues --  -10.27757 -10.27635 -10.27559 -10.27531 -10.27495
 Alpha  occ. eigenvalues --  -10.27455 -10.27186 -10.27088 -10.26872 -10.26801
 Alpha  occ. eigenvalues --  -10.26785 -10.26500 -10.26472 -10.26219 -10.26170
 Alpha  occ. eigenvalues --  -10.26080 -10.26012 -10.25981 -10.25694 -10.25650
 Alpha  occ. eigenvalues --  -10.25457 -10.25283 -10.25215 -10.25114 -10.24902
 Alpha  occ. eigenvalues --  -10.24148 -10.24067 -10.23774 -10.22988  -1.15008
 Alpha  occ. eigenvalues --   -1.12832  -1.12326  -1.07399  -0.93338  -0.92787
 Alpha  occ. eigenvalues --   -0.92554  -0.91856  -0.91355  -0.90312  -0.88352
 Alpha  occ. eigenvalues --   -0.87964  -0.87810  -0.85925  -0.84896  -0.83607
 Alpha  occ. eigenvalues --   -0.82672  -0.82118  -0.80909  -0.78310  -0.77990
 Alpha  occ. eigenvalues --   -0.77018  -0.76887  -0.76365  -0.76180  -0.75802
 Alpha  occ. eigenvalues --   -0.75542  -0.74907  -0.73473  -0.71177  -0.70535
 Alpha  occ. eigenvalues --   -0.69485  -0.66871  -0.65662  -0.65159  -0.64867
 Alpha  occ. eigenvalues --   -0.64432  -0.63326  -0.61328  -0.60612  -0.60052
 Alpha  occ. eigenvalues --   -0.59462  -0.58726  -0.58212  -0.57697  -0.57397
 Alpha  occ. eigenvalues --   -0.55989  -0.55833  -0.55465  -0.55311  -0.54008
 Alpha  occ. eigenvalues --   -0.53804  -0.53571  -0.53271  -0.52621  -0.52138
 Alpha  occ. eigenvalues --   -0.52047  -0.51438  -0.50349  -0.50162  -0.49968
 Alpha  occ. eigenvalues --   -0.49731  -0.49516  -0.49201  -0.49094  -0.48766
 Alpha  occ. eigenvalues --   -0.48306  -0.47927  -0.47544  -0.47296  -0.47013
 Alpha  occ. eigenvalues --   -0.46549  -0.46443  -0.46374  -0.46092  -0.45676
 Alpha  occ. eigenvalues --   -0.45615  -0.45094  -0.45043  -0.44962  -0.43917
 Alpha  occ. eigenvalues --   -0.43498  -0.43419  -0.43405  -0.43137  -0.42671
 Alpha  occ. eigenvalues --   -0.42534  -0.42518  -0.42037  -0.41913  -0.41484
 Alpha  occ. eigenvalues --   -0.41467  -0.40912  -0.40660  -0.40298  -0.39965
 Alpha  occ. eigenvalues --   -0.39531  -0.39480  -0.39302  -0.39085  -0.38713
 Alpha  occ. eigenvalues --   -0.38639  -0.38323  -0.38171  -0.37884  -0.37759
 Alpha  occ. eigenvalues --   -0.36758  -0.36214  -0.35177  -0.34350  -0.34154
 Alpha  occ. eigenvalues --   -0.32618  -0.32233  -0.31992  -0.31626  -0.31038
 Alpha  occ. eigenvalues --   -0.29576  -0.28331  -0.24498  -0.19526
 Alpha virt. eigenvalues --   -0.06612  -0.01354   0.03110   0.05261   0.06862
 Alpha virt. eigenvalues --    0.09148   0.09869   0.10494   0.10668   0.11328
 Alpha virt. eigenvalues --    0.11759   0.12833   0.12900   0.13395   0.13739

 Mulliken charges:
               1
     1  O   -0.518833
     2  O   -0.557245
     3  O   -0.513817
     4  O   -0.534902
     5  C    0.180989
     6  C    0.273451
     7  C   -0.007330
     8  C   -0.210280
     9  C   -0.166254
    10  C    0.095101
    11  C   -0.347524
    12  C   -0.133917
    13  C   -0.271863
    14  C   -0.285724
    15  C   -0.048131
    16  C    0.063800
    17  C   -0.408164
    18  C   -0.103610
    19  C   -0.063343
    20  C    0.008077
    21  C    0.266601
    22  C   -0.189326
    23  C    0.195548
    24  C   -0.181013
    25  C   -0.076915
    26  C   -0.290708
    27  C   -0.313789
    28  C   -0.276958
    29  C   -0.151342
    30  C    0.136231
    31  C    0.098776
    32  C   -0.308963
    33  C   -0.385027
    34  C   -0.109532
    35  C    0.168688
    36  C   -0.375394
    37  C   -0.132504
    38  C   -0.036767
    39  C   -0.058694
    40  C   -0.075218
    41  C   -0.124872
    42  C   -0.136214
    43  C    0.136388
    44  C   -0.354792
    45  H    0.115172
    46  H    0.115323
    47  H    0.100419
    48  H    0.112442
    49  H    0.107774
    50  H    0.095859
    51  H    0.111393
    52  H    0.135381
    53  H    0.113922
    54  H    0.079652
    55  H    0.078885
    56  H    0.113694
    57  H    0.130356
    58  H    0.109880
    59  H    0.101943
    60  H    0.295457
    61  H    0.072211
    62  H    0.141658
    63  H    0.127302
    64  H    0.117220
    65  H    0.073340
    66  H    0.092243
    67  H    0.069334
    68  H    0.110715
    69  H    0.036139
    70  H    0.122181
    71  H    0.089934
    72  H    0.099195
    73  H    0.121785
    74  H    0.099708
    75  H    0.092122
    76  H    0.103271
    77  H    0.096612
    78  H    0.111844
    79  H    0.087975
    80  H    0.110133
    81  H    0.095957
    82  H    0.253607
    83  H    0.321099
    84  H    0.089238
    85  H    0.124075
    86  H    0.116987
    87  H    0.102743
    88  H    0.065453
    89  H    0.101978
    90  H    0.113115
    91  H    0.106333
    92  H    0.067049
    93  H    0.069740
    94  H    0.073888
    95  H    0.075526
    96  H    0.082722
    97  H    0.068891
    98  H    0.123954
    99  H    0.120180
   100  H    0.060308
 Sum of Mulliken charges =  -0.00000

 Dipole moment (field-independent basis, Debye):
    X=              2.0543    Y=              0.1729    Z=              1.5146  Tot=              2.5582
 Quadrupole moment (field-independent basis, Debye-Ang):
   XX=           -242.6000   YY=           -263.2344   ZZ=           -282.0239
   XY=              4.2141   XZ=             45.1035   YZ=              2.0950

 Normal termination of Gaussian 16 at Wed Jul 31 00:13:45 2019.
