 Gaussian 16, Revision A.03,
 Gaussian 16:  ES64L-G16RevA.03 25-Dec-2016

 -------------------------------------
 # td=(NStates=1) CAM-B3LYP/6-31G(d,p)
 -------------------------------------

 --
 TD
 --
 Symbolic Z-matrix:
 Charge =  0 Multiplicity = 1

                         Standard orientation:
 ---------------------------------------------------------------------
 Center     Atomic      Atomic             Coordinates (Angstroms)
 Number     Number       Type             X           Y           Z
 ---------------------------------------------------------------------
      1          8           0      -11.693386    0.372417   -1.517594
      2          8           0      -13.183019   -2.542716    1.205793
      3          8           0       10.628327   -0.562346   -2.281409
      4          8           0       14.419734   -0.975378   -0.024003
      5          6           0      -11.001532   -0.086102   -0.273848
      6          6           0      -11.622894   -0.984100   -1.312966
      7          6           0      -11.906009    0.239161    0.934484
      8          6           0      -12.957496   -1.681566   -1.212742
      9          6           0      -13.440913   -0.118416    0.845107
     10          6           0      -13.630468   -1.583292    0.246901
     11          6           0      -10.697121   -1.796100   -2.218176
     12          6           0       -9.507430    0.125522   -0.291682
     13          6           0      -11.325863   -0.447538    2.123505
     14          6           0      -11.872229    1.760515    1.160382
     15          6           0       -8.611804   -0.703795    0.267639
     16          6           0       -7.166097   -0.537205    0.236191
     17          6           0       -6.352050   -1.733353    0.801401
     18          6           0       -6.586039    0.724005   -0.025602
     19          6           0       -5.217098    0.922070   -0.126345
     20          6           0       11.838376   -0.250355    1.443915
     21          6           0       11.710135   -0.378676   -1.244057
     22          6           0       12.539690   -1.520935    1.428255
     23          6           0       13.344160   -1.873710    0.138623
     24          6           0       12.443705   -1.672207   -1.094419
     25          6           0       11.207277    0.066645    0.038935
     26          6           0       10.887566   -0.292997    2.655098
     27          6           0       12.838496    0.899594    1.701724
     28          6           0       12.645106    0.725269   -1.903298
     29          6           0       -4.661375    2.189615   -0.208438
     30          6           0        9.946873    0.535458    0.076764
     31          6           0       -3.295260    2.598310   -0.259820
     32          6           0        8.722496    1.066169    0.109110
     33          6           0       -2.982940    4.033201   -0.278745
     34          6           0       -2.267905    1.642000   -0.233517
     35          6           0        7.524293    0.223619   -0.059027
     36          6           0        7.807464   -1.329842   -0.067391
     37          6           0        6.264006    0.658447   -0.050551
     38          6           0       -0.934417    1.945949   -0.174658
     39          6           0        4.991278    0.012660   -0.166397
     40          6           0        0.037882    0.994570   -0.414343
     41          6           0        3.825479    0.763027   -0.073156
     42          6           0        1.407181    1.291360   -0.202870
     43          6           0        2.490002    0.329878   -0.139133
     44          6           0        2.351694   -1.244116   -0.402983
     45          1           0      -12.957476   -2.800256   -1.586257
     46          1           0      -13.683457   -0.998527   -1.749440
     47          1           0      -13.819117    0.405960    1.907201
     48          1           0      -13.910298    0.572065    0.131013
     49          1           0      -14.821175   -1.715208    0.216743
     50          1           0      -10.564083   -2.717418   -1.739331
     51          1           0      -11.187714   -2.051200   -3.130786
     52          1           0       -9.695323   -1.267849   -2.379357
     53          1           0       -9.189034    0.974797   -0.850638
     54          1           0      -10.277011   -0.074631    2.457324
     55          1           0      -11.946313   -0.386190    3.065427
     56          1           0      -11.294737   -1.450395    1.951599
     57          1           0      -12.118870    2.384962    0.195583
     58          1           0      -12.821906    2.217853    1.658417
     59          1           0      -10.783301    2.052698    1.507385
     60          1           0      -12.283928   -2.863759    1.169633
     61          1           0       -9.073905   -1.708122    0.923574
     62          1           0       -5.502645   -1.991713    0.246551
     63          1           0       -5.927260   -1.460302    1.907525
     64          1           0       -6.938369   -2.551622    0.734766
     65          1           0       -7.217010    1.538675   -0.264392
     66          1           0       -4.543745    0.040513    0.242646
     67          1           0       13.107966   -1.544769    2.276986
     68          1           0       11.709841   -2.455619    1.506563
     69          1           0       13.479476   -2.936155    0.165237
     70          1           0       13.218919   -1.811901   -2.015271
     71          1           0       11.664666   -2.579622   -1.228012
     72          1           0       11.516505   -0.481809    3.408788
     73          1           0       10.211380    0.662458    2.949721
     74          1           0       10.158185   -1.055430    2.384785
     75          1           0       13.641796    1.051184    0.870507
     76          1           0       12.505734    1.926921    1.955528
     77          1           0       13.550836    0.666006    2.642880
     78          1           0       13.029136    0.416256   -2.778637
     79          1           0       12.123492    1.535832   -2.004262
     80          1           0       13.370335    1.150263   -1.183660
     81          1           0       -5.421509    2.919170   -0.659032
     82          1           0        9.842423    0.060948   -2.017309
     83          1           0       14.913071   -1.053861    0.853281
     84          1           0        8.651921    2.173123    0.123574
     85          1           0       -2.457274    4.221017    0.530081
     86          1           0       -2.412995    4.122283   -1.182191
     87          1           0       -3.972967    4.590342   -0.322213
     88          1           0       -2.682537    0.607778   -0.496897
     89          1           0        6.852379   -1.859251   -0.100285
     90          1           0        8.438110   -1.546569   -0.818535
     91          1           0        8.363164   -1.475519    0.828088
     92          1           0        6.216156    1.870421    0.072457
     93          1           0       -0.802624    2.984524   -0.099793
     94          1           0        5.025499   -1.065014   -0.271684
     95          1           0       -0.373553   -0.078783   -0.610350
     96          1           0        4.091495    1.874923   -0.025215
     97          1           0        1.694162    2.357263    0.156417
     98          1           0        1.402682   -1.678900   -0.387684
     99          1           0        2.985800   -1.550865   -1.418484
    100          1           0        2.824461   -1.579233    0.573919
 ---------------------------------------------------------------------

 SCF Done:  E(RCAM-B3LYP) =  -1857.33295875     A.U. after   15 cycles

 Excitation energies and oscillator strengths:

 Excited State   1:      Singlet-A      2.0660 eV  600.12 nm  f=3.0151  <S**2>=0.000
     163 ->166        -0.12949
     164 ->165         0.69775
     164 <-165        -0.10176
 This state for optimization and/or second-order correction.
 Total Energy, E(TD-HF/TD-DFT) =  -1857.25703460
 Copying the excited state density for this state as the 1-particle RhoCI density.

 The electronic state is 1-A.
 Alpha  occ. eigenvalues --  -19.23377 -19.21911 -19.20862 -19.20469 -10.33175
 Alpha  occ. eigenvalues --  -10.32174 -10.31856 -10.31767 -10.31604 -10.28900
 Alpha  occ. eigenvalues --  -10.28770 -10.28693 -10.28575 -10.28185 -10.28124
 Alpha  occ. eigenvalues --  -10.27846 -10.27838 -10.27814 -10.27697 -10.27490
 Alpha  occ. eigenvalues --  -10.27440 -10.27303 -10.27268 -10.27201 -10.27184
 Alpha  occ. eigenvalues --  -10.26978 -10.26889 -10.26792 -10.26712 -10.26702
 Alpha  occ. eigenvalues --  -10.26567 -10.26523 -10.26493 -10.26442 -10.26195
 Alpha  occ. eigenvalues --  -10.26150 -10.25975 -10.25955 -10.25319 -10.24828
 Alpha  occ. eigenvalues --  -10.24523 -10.23971 -10.23846 -10.21597  -1.15173
 Alpha  occ. eigenvalues --   -1.11033  -1.08837  -1.05609  -0.94039  -0.92922
 Alpha  occ. eigenvalues --   -0.91507  -0.91204  -0.90188  -0.89635  -0.87698
 Alpha  occ. eigenvalues --   -0.86902  -0.86123  -0.85705  -0.84901  -0.82959
 Alpha  occ. eigenvalues --   -0.82459  -0.80438  -0.80385  -0.78597  -0.77502
 Alpha  occ. eigenvalues --   -0.77403  -0.76455  -0.75912  -0.75853  -0.75369
 Alpha  occ. eigenvalues --   -0.74660  -0.74234  -0.73016  -0.70568  -0.69798
 Alpha  occ. eigenvalues --   -0.68716  -0.67227  -0.65303  -0.65106  -0.63574
 Alpha  occ. eigenvalues --   -0.63253  -0.61947  -0.60501  -0.60321  -0.59606
 Alpha  occ. eigenvalues --   -0.59053  -0.58532  -0.57559  -0.57085  -0.55711
 Alpha  occ. eigenvalues --   -0.55651  -0.55368  -0.54704  -0.54272  -0.54002
 Alpha  occ. eigenvalues --   -0.53872  -0.52735  -0.52565  -0.52089  -0.51922
 Alpha  occ. eigenvalues --   -0.51667  -0.50723  -0.50487  -0.50096  -0.49531
 Alpha  occ. eigenvalues --   -0.49250  -0.48637  -0.48472  -0.48220  -0.48096
 Alpha  occ. eigenvalues --   -0.47996  -0.47637  -0.47593  -0.47436  -0.47196
 Alpha  occ. eigenvalues --   -0.46938  -0.46430  -0.46036  -0.45705  -0.45691
 Alpha  occ. eigenvalues --   -0.45453  -0.45064  -0.45026  -0.44652  -0.44317
 Alpha  occ. eigenvalues --   -0.43619  -0.43077  -0.42967  -0.42650  -0.42595
 Alpha  occ. eigenvalues --   -0.42272  -0.41847  -0.41566  -0.41312  -0.40892
 Alpha  occ. eigenvalues --   -0.40785  -0.40359  -0.40207  -0.39862  -0.39717
 Alpha  occ. eigenvalues --   -0.39468  -0.39297  -0.38993  -0.38701  -0.38627
 Alpha  occ. eigenvalues --   -0.38434  -0.38308  -0.37771  -0.37600  -0.37253
 Alpha  occ. eigenvalues --   -0.37044  -0.36268  -0.35552  -0.35108  -0.33714
 Alpha  occ. eigenvalues --   -0.33124  -0.32175  -0.31941  -0.31563  -0.30418
 Alpha  occ. eigenvalues --   -0.29513  -0.28218  -0.24607  -0.19592
 Alpha virt. eigenvalues --   -0.06647  -0.01072   0.03166   0.05261   0.06691
 Alpha virt. eigenvalues --    0.09398   0.09769   0.09905   0.11555   0.11839
 Alpha virt. eigenvalues --    0.12144   0.12459   0.12864   0.13253   0.13360

 Mulliken charges:
               1
     1  O   -0.505901
     2  O   -0.550339
     3  O   -0.596712
     4  O   -0.525863
     5  C    0.180618
     6  C    0.290433
     7  C    0.034069
     8  C   -0.237291
     9  C   -0.189562
    10  C    0.158164
    11  C   -0.337289
    12  C   -0.120993
    13  C   -0.271261
    14  C   -0.314486
    15  C   -0.066475
    16  C    0.045075
    17  C   -0.356919
    18  C   -0.086492
    19  C   -0.069965
    20  C    0.024198
    21  C    0.258134
    22  C   -0.187238
    23  C    0.158786
    24  C   -0.197232
    25  C   -0.045445
    26  C   -0.280130
    27  C   -0.315366
    28  C   -0.272479
    29  C   -0.134011
    30  C    0.094959
    31  C    0.058512
    32  C   -0.255085
    33  C   -0.367225
    34  C   -0.101966
    35  C    0.063217
    36  C   -0.354012
    37  C   -0.110092
    38  C   -0.066701
    39  C   -0.078109
    40  C   -0.091986
    41  C   -0.105157
    42  C   -0.130575
    43  C    0.061391
    44  C   -0.348197
    45  H    0.104704
    46  H    0.130606
    47  H    0.093216
    48  H    0.102285
    49  H    0.087233
    50  H    0.103721
    51  H    0.114153
    52  H    0.111329
    53  H    0.115764
    54  H    0.091693
    55  H    0.099697
    56  H    0.066905
    57  H    0.101633
    58  H    0.092824
    59  H    0.091974
    60  H    0.307725
    61  H    0.066826
    62  H    0.124828
    63  H    0.112839
    64  H    0.116854
    65  H    0.085377
    66  H    0.083170
    67  H    0.091116
    68  H    0.066520
    69  H    0.095993
    70  H    0.097709
    71  H    0.098812
    72  H    0.109999
    73  H    0.092526
    74  H    0.109899
    75  H    0.121889
    76  H    0.111680
    77  H    0.054688
    78  H    0.115984
    79  H    0.101729
    80  H    0.098178
    81  H    0.075318
    82  H    0.312706
    83  H    0.310914
    84  H    0.116615
    85  H    0.143515
    86  H    0.135171
    87  H    0.105597
    88  H    0.077512
    89  H    0.099517
    90  H    0.132407
    91  H    0.122503
    92  H    0.051268
    93  H    0.084836
    94  H    0.090584
    95  H    0.092326
    96  H    0.083380
    97  H    0.090381
    98  H    0.114172
    99  H    0.109323
   100  H    0.122873
 Sum of Mulliken charges =  -0.00000

 Dipole moment (field-independent basis, Debye):
    X=              2.3147    Y=             -0.8586    Z=              2.6797  Tot=              3.6436
 Quadrupole moment (field-independent basis, Debye-Ang):
   XX=           -285.0958   YY=           -255.7569   ZZ=           -282.4926
   XY=             -1.1609   XZ=             44.5761   YZ=              0.6201

 Normal termination of Gaussian 16 at Fri Aug  2 02:11:19 2019.
