 Gaussian 16, Revision A.03,
 Gaussian 16:  ES64L-G16RevA.03 25-Dec-2016

 -------------------------------------
 # td=(NStates=1) CAM-B3LYP/6-31G(d,p)
 -------------------------------------

 --
 TD
 --
 Symbolic Z-matrix:
 Charge =  0 Multiplicity = 1

                         Standard orientation:
 ---------------------------------------------------------------------
 Center     Atomic      Atomic             Coordinates (Angstroms)
 Number     Number       Type             X           Y           Z
 ---------------------------------------------------------------------
      1          8           0      -11.667532    0.273400   -1.440534
      2          8           0      -12.906346   -2.555106    1.145560
      3          8           0       10.580029   -1.109877   -2.053386
      4          8           0       14.456929   -1.162166   -0.057785
      5          6           0      -10.959383   -0.156109   -0.326921
      6          6           0      -11.600262   -1.135793   -1.325209
      7          6           0      -11.863500    0.226170    0.980824
      8          6           0      -12.984881   -1.759675   -1.134025
      9          6           0      -13.354536   -0.206292    0.932397
     10          6           0      -13.501577   -1.614965    0.290489
     11          6           0      -10.672556   -1.857628   -2.211047
     12          6           0       -9.538607    0.114560   -0.241249
     13          6           0      -11.157436   -0.176284    2.264039
     14          6           0      -11.838367    1.792200    0.962519
     15          6           0       -8.599410   -0.797092    0.105102
     16          6           0       -7.151796   -0.593639    0.248609
     17          6           0       -6.345903   -1.852585    0.586204
     18          6           0       -6.604633    0.681035   -0.012661
     19          6           0       -5.129391    1.011985   -0.071284
     20          6           0       11.932259    0.068950    1.250392
     21          6           0       11.592970   -0.716157   -1.263672
     22          6           0       12.567830   -1.316947    1.453497
     23          6           0       13.271891   -1.904194    0.354124
     24          6           0       12.330732   -2.080925   -0.795503
     25          6           0       11.144661    0.069150   -0.043573
     26          6           0       11.002280    0.427160    2.484590
     27          6           0       12.865350    1.269834    1.335946
     28          6           0       12.598445    0.114538   -2.157691
     29          6           0       -4.705431    2.286030   -0.315351
     30          6           0        9.914420    0.507692   -0.165951
     31          6           0       -3.414874    2.679043   -0.397887
     32          6           0        8.683917    0.960239   -0.225189
     33          6           0       -3.085304    4.060657   -0.804013
     34          6           0       -2.405529    1.751098   -0.103222
     35          6           0        7.447056    0.176770   -0.083332
     36          6           0        7.652666   -1.313801    0.362062
     37          6           0        6.253039    0.825566   -0.219595
     38          6           0       -1.021782    2.042336   -0.237165
     39          6           0        4.945393    0.141513    0.086771
     40          6           0       -0.040847    1.055070   -0.091188
     41          6           0        3.811152    0.891957   -0.117155
     42          6           0        1.455476    1.255215   -0.268095
     43          6           0        2.497113    0.378419    0.015772
     44          6           0        2.348614   -1.030866    0.473569
     45          1           0      -13.199777   -2.782363   -1.261441
     46          1           0      -13.587889   -1.404750   -1.777962
     47          1           0      -13.846302   -0.661839    1.945522
     48          1           0      -13.934428    0.750132    0.557218
     49          1           0      -14.567002   -1.736260    0.452194
     50          1           0      -10.658280   -3.054752   -1.811498
     51          1           0      -11.206421   -1.800059   -3.315852
     52          1           0       -9.694322   -1.409761   -2.355078
     53          1           0       -9.199395    1.037518   -0.639371
     54          1           0      -10.102093    0.213526    2.058209
     55          1           0      -11.685920    0.118263    3.013693
     56          1           0      -11.075165   -1.286079    2.359652
     57          1           0      -12.117776    2.237070   -0.069259
     58          1           0      -12.740423    2.052723    1.772530
     59          1           0      -10.799159    2.173442    1.329702
     60          1           0      -11.950909   -2.981461    0.675877
     61          1           0       -9.028684   -1.681826    0.663043
     62          1           0       -5.579563   -2.188957   -0.136673
     63          1           0       -5.840242   -1.655717    1.425657
     64          1           0       -6.850845   -2.732928    0.902251
     65          1           0       -7.306113    1.486753   -0.013524
     66          1           0       -4.435638    0.323037   -0.172826
     67          1           0       13.225379   -1.266603    2.267964
     68          1           0       11.677024   -1.887662    1.838217
     69          1           0       13.760773   -2.769473    0.651837
     70          1           0       12.918195   -2.379097   -1.759336
     71          1           0       11.701289   -2.733485   -0.537498
     72          1           0       11.434478    0.600485    3.432053
     73          1           0       10.556221    1.444668    2.437451
     74          1           0       10.319876   -0.277039    2.561194
     75          1           0       13.530693    1.376267    0.265917
     76          1           0       12.109064    2.203833    1.233623
     77          1           0       13.492686    1.271330    2.238457
     78          1           0       12.801780   -0.262992   -3.133351
     79          1           0       12.143664    1.208720   -2.625475
     80          1           0       13.471518    0.430052   -1.530224
     81          1           0       -5.398802    2.977289   -0.808991
     82          1           0       10.038019   -0.291935   -2.333521
     83          1           0       14.958037   -1.187024    0.651748
     84          1           0        8.537969    2.033155   -0.517209
     85          1           0       -2.456709    4.670268    0.062859
     86          1           0       -2.339575    4.072432   -1.669262
     87          1           0       -3.859987    4.724709   -1.170798
     88          1           0       -2.705372    0.971582    0.171897
     89          1           0        6.532550   -1.926729    0.506556
     90          1           0        8.224826   -1.815833   -0.349859
     91          1           0        8.277926   -1.515113    1.442616
     92          1           0        6.133457    1.811454   -0.556527
     93          1           0       -0.708643    3.106906   -0.386860
     94          1           0        4.801730   -0.909335    0.645544
     95          1           0       -0.211089   -0.056475    0.403180
     96          1           0        3.963124    1.941740   -0.308566
     97          1           0        1.635761    2.321897   -0.627217
     98          1           0        1.394007   -1.501823    0.376226
     99          1           0        3.086473   -1.736165   -0.231354
    100          1           0        2.619828   -0.881151    1.550260
 ---------------------------------------------------------------------

 SCF Done:  E(RCAM-B3LYP) =  -1857.19165691     A.U. after   15 cycles

 Excitation energies and oscillator strengths:

 Excited State   1:      Singlet-A      2.2592 eV  548.79 nm  f=2.5883  <S**2>=0.000
     163 ->166        -0.13729
     164 ->165         0.69224
 This state for optimization and/or second-order correction.
 Total Energy, E(TD-HF/TD-DFT) =  -1857.10863153
 Copying the excited state density for this state as the 1-particle RhoCI density.

 The electronic state is 1-A.
 Alpha  occ. eigenvalues --  -19.22538 -19.22446 -19.21428 -19.20463 -10.32371
 Alpha  occ. eigenvalues --  -10.32213 -10.31613 -10.30139 -10.29906 -10.28954
 Alpha  occ. eigenvalues --  -10.28508 -10.28440 -10.28390 -10.28355 -10.27864
 Alpha  occ. eigenvalues --  -10.27805 -10.27663 -10.27582 -10.27572 -10.27472
 Alpha  occ. eigenvalues --  -10.27393 -10.27336 -10.27295 -10.27073 -10.26815
 Alpha  occ. eigenvalues --  -10.26806 -10.26714 -10.26632 -10.26607 -10.26344
 Alpha  occ. eigenvalues --  -10.26142 -10.26027 -10.26000 -10.25966 -10.25826
 Alpha  occ. eigenvalues --  -10.25760 -10.25489 -10.24850 -10.24829 -10.24494
 Alpha  occ. eigenvalues --  -10.24335 -10.24246 -10.23445 -10.22117  -1.16948
 Alpha  occ. eigenvalues --   -1.11852  -1.11496  -1.08065  -0.93643  -0.93323
 Alpha  occ. eigenvalues --   -0.91798  -0.90716  -0.89986  -0.88494  -0.87143
 Alpha  occ. eigenvalues --   -0.86891  -0.86585  -0.85247  -0.84481  -0.82998
 Alpha  occ. eigenvalues --   -0.82078  -0.80546  -0.79943  -0.78511  -0.77346
 Alpha  occ. eigenvalues --   -0.77260  -0.76525  -0.75694  -0.75524  -0.75023
 Alpha  occ. eigenvalues --   -0.74450  -0.73854  -0.72881  -0.70193  -0.69246
 Alpha  occ. eigenvalues --   -0.68261  -0.67345  -0.65773  -0.65067  -0.63947
 Alpha  occ. eigenvalues --   -0.63561  -0.62162  -0.61058  -0.60783  -0.59932
 Alpha  occ. eigenvalues --   -0.59464  -0.58597  -0.58270  -0.57797  -0.56587
 Alpha  occ. eigenvalues --   -0.55719  -0.55312  -0.55031  -0.54886  -0.54181
 Alpha  occ. eigenvalues --   -0.53693  -0.53239  -0.52842  -0.52667  -0.51979
 Alpha  occ. eigenvalues --   -0.51814  -0.51304  -0.50806  -0.50357  -0.50328
 Alpha  occ. eigenvalues --   -0.49682  -0.49263  -0.48868  -0.48573  -0.48171
 Alpha  occ. eigenvalues --   -0.48089  -0.47876  -0.47347  -0.47126  -0.46573
 Alpha  occ. eigenvalues --   -0.46537  -0.46327  -0.46295  -0.45916  -0.45378
 Alpha  occ. eigenvalues --   -0.44976  -0.44713  -0.44609  -0.44567  -0.43912
 Alpha  occ. eigenvalues --   -0.43513  -0.43249  -0.43114  -0.42802  -0.42462
 Alpha  occ. eigenvalues --   -0.42411  -0.41962  -0.41471  -0.41044  -0.40821
 Alpha  occ. eigenvalues --   -0.40553  -0.40435  -0.39881  -0.39746  -0.39575
 Alpha  occ. eigenvalues --   -0.39151  -0.39129  -0.39011  -0.38428  -0.38197
 Alpha  occ. eigenvalues --   -0.38125  -0.37775  -0.37199  -0.36635  -0.36510
 Alpha  occ. eigenvalues --   -0.36166  -0.35982  -0.35155  -0.34301  -0.32725
 Alpha  occ. eigenvalues --   -0.32512  -0.32140  -0.32073  -0.31295  -0.29983
 Alpha  occ. eigenvalues --   -0.29485  -0.27885  -0.24572  -0.20333
 Alpha virt. eigenvalues --   -0.05797  -0.00820   0.02522   0.05836   0.06552
 Alpha virt. eigenvalues --    0.06576   0.09717   0.09902   0.11151   0.11953
 Alpha virt. eigenvalues --    0.12290   0.13106   0.13129   0.13523   0.13597

 Mulliken charges:
               1
     1  O   -0.494222
     2  O   -0.552215
     3  O   -0.563231
     4  O   -0.534220
     5  C    0.219781
     6  C    0.223142
     7  C    0.040379
     8  C   -0.203294
     9  C   -0.186927
    10  C    0.152992
    11  C   -0.301190
    12  C   -0.133075
    13  C   -0.273285
    14  C   -0.309873
    15  C   -0.081009
    16  C    0.068491
    17  C   -0.381726
    18  C   -0.129343
    19  C   -0.080953
    20  C    0.011934
    21  C    0.275146
    22  C   -0.189709
    23  C    0.142789
    24  C   -0.168556
    25  C   -0.071669
    26  C   -0.307413
    27  C   -0.272446
    28  C   -0.312360
    29  C   -0.120819
    30  C    0.180115
    31  C    0.115467
    32  C   -0.311974
    33  C   -0.389708
    34  C   -0.016455
    35  C    0.123620
    36  C   -0.343283
    37  C   -0.119775
    38  C   -0.103888
    39  C   -0.105159
    40  C   -0.094094
    41  C   -0.098417
    42  C   -0.142825
    43  C    0.111117
    44  C   -0.369508
    45  H    0.108166
    46  H    0.123669
    47  H    0.090096
    48  H    0.091470
    49  H    0.092124
    50  H    0.070828
    51  H    0.085007
    52  H    0.133332
    53  H    0.103584
    54  H    0.089043
    55  H    0.104343
    56  H    0.087831
    57  H    0.117004
    58  H    0.073118
    59  H    0.087618
    60  H    0.306371
    61  H    0.078337
    62  H    0.120610
    63  H    0.138970
    64  H    0.113457
    65  H    0.093255
    66  H    0.093915
    67  H    0.084632
    68  H    0.102408
    69  H    0.089606
    70  H    0.105435
    71  H    0.109883
    72  H    0.101628
    73  H    0.106457
    74  H    0.104245
    75  H    0.078831
    76  H    0.087087
    77  H    0.100450
    78  H    0.118685
    79  H    0.034972
    80  H    0.134764
    81  H    0.086027
    82  H    0.311293
    83  H    0.285807
    84  H    0.104785
    85  H    0.101228
    86  H    0.118460
    87  H    0.115624
    88  H    0.022450
    89  H    0.072854
    90  H    0.150514
    91  H    0.089934
    92  H    0.090106
    93  H    0.095929
    94  H    0.099482
    95  H    0.069894
    96  H    0.086322
    97  H    0.076051
    98  H    0.118470
    99  H    0.105426
   100  H    0.135761
 Sum of Mulliken charges =  -0.00000

 Dipole moment (field-independent basis, Debye):
    X=              2.8904    Y=             -1.0518    Z=              1.4263  Tot=              3.3905
 Quadrupole moment (field-independent basis, Debye-Ang):
   XX=           -296.7378   YY=           -257.7718   ZZ=           -275.8683
   XY=              5.4783   XZ=             43.9121   YZ=             -6.2201

 Normal termination of Gaussian 16 at Wed Jul 31 14:31:17 2019.
