 Gaussian 16, Revision A.03,
 Gaussian 16:  ES64L-G16RevA.03 25-Dec-2016

 -------------------------------------
 # td=(NStates=1) CAM-B3LYP/6-31G(d,p)
 -------------------------------------

 --
 TD
 --
 Symbolic Z-matrix:
 Charge =  0 Multiplicity = 1

                         Standard orientation:
 ---------------------------------------------------------------------
 Center     Atomic      Atomic             Coordinates (Angstroms)
 Number     Number       Type             X           Y           Z
 ---------------------------------------------------------------------
      1          8           0      -11.711911    0.166704   -1.472049
      2          8           0      -12.918376   -2.464903    1.500884
      3          8           0       10.649118   -0.957642   -2.090235
      4          8           0       14.551661   -1.104153   -0.046303
      5          6           0      -11.064686   -0.234004   -0.278985
      6          6           0      -11.725196   -1.215690   -1.164855
      7          6           0      -11.780398    0.378931    0.955506
      8          6           0      -13.112115   -1.770427   -0.918759
      9          6           0      -13.232731    0.000009    0.863080
     10          6           0      -13.592438   -1.540362    0.586146
     11          6           0      -10.921968   -2.008750   -2.126064
     12          6           0       -9.589314    0.144202   -0.380981
     13          6           0      -11.178565   -0.028646    2.237873
     14          6           0      -11.661827    1.918903    0.784705
     15          6           0       -8.633825   -0.724482    0.070056
     16          6           0       -7.182381   -0.614292    0.166249
     17          6           0       -6.492444   -1.933345    0.385747
     18          6           0       -6.640529    0.568580   -0.130831
     19          6           0       -5.221422    0.897740   -0.188909
     20          6           0       11.848919   -0.054276    1.377452
     21          6           0       11.662409   -0.662669   -1.165159
     22          6           0       12.702673   -1.347812    1.556841
     23          6           0       13.353094   -1.829987    0.341598
     24          6           0       12.508792   -1.930396   -0.943832
     25          6           0       11.080333   -0.048537    0.076080
     26          6           0       10.975599    0.111276    2.595305
     27          6           0       12.843246    1.201214    1.428405
     28          6           0       12.572519    0.388741   -1.901165
     29          6           0       -4.737057    2.140486   -0.313051
     30          6           0        9.839961    0.589798   -0.029813
     31          6           0       -3.372593    2.544784   -0.372598
     32          6           0        8.721269    1.061593   -0.195529
     33          6           0       -3.202425    3.899586   -0.655093
     34          6           0       -2.292551    1.629339   -0.327187
     35          6           0        7.490183    0.193418   -0.051372
     36          6           0        7.626989   -1.297875    0.027680
     37          6           0        6.312531    0.794338   -0.181927
     38          6           0       -0.944548    1.881690   -0.329197
     39          6           0        4.922733    0.353020   -0.140432
     40          6           0        0.087566    0.995932   -0.051023
     41          6           0        3.732533    0.943653   -0.190234
     42          6           0        1.402541    1.242602   -0.073847
     43          6           0        2.473358    0.352044   -0.036718
     44          6           0        2.399325   -1.097043    0.172037
     45          1           0      -13.100306   -2.826370   -1.018698
     46          1           0      -13.676754   -1.350702   -1.623418
     47          1           0      -13.641512    0.424876    1.804949
     48          1           0      -13.603504    0.432464   -0.012865
     49          1           0      -14.640215   -1.549489    0.719594
     50          1           0      -10.440337   -2.778275   -1.599872
     51          1           0      -11.751241   -2.517348   -2.899158
     52          1           0      -10.176312   -1.466435   -2.635518
     53          1           0       -9.509292    1.072785   -0.862713
     54          1           0      -10.088407    0.383355    2.249223
     55          1           0      -11.916659    0.459428    3.130594
     56          1           0      -11.155056   -1.179475    2.536678
     57          1           0      -11.966096    2.438315   -0.154955
     58          1           0      -12.412124    2.296024    1.521631
     59          1           0      -10.644786    2.300479    1.141362
     60          1           0      -11.991302   -2.461461    1.041334
     61          1           0       -9.011533   -1.691436    0.365233
     62          1           0       -5.896167   -2.378753   -0.496390
     63          1           0       -5.380717   -1.705613    0.895007
     64          1           0       -7.006584   -2.601072    1.127060
     65          1           0       -7.317723    1.415761   -0.339600
     66          1           0       -4.575385    0.086894    0.172348
     67          1           0       13.358357   -1.418443    2.373487
     68          1           0       12.046745   -2.208511    1.845503
     69          1           0       13.859899   -2.761243    0.513378
     70          1           0       13.324417   -1.990020   -1.734040
     71          1           0       11.882439   -2.806406   -0.974032
     72          1           0       11.437423    0.402314    3.525786
     73          1           0       10.391431    1.158309    2.536465
     74          1           0       10.171677   -0.710345    2.608007
     75          1           0       13.594762    1.325784    0.622612
     76          1           0       12.226318    2.234692    1.487985
     77          1           0       13.427394    1.316885    2.317817
     78          1           0       12.780504    0.075393   -2.843717
     79          1           0       12.119949    1.496229   -2.030123
     80          1           0       13.645469    0.570228   -1.577723
     81          1           0       -5.377237    2.986882   -0.555071
     82          1           0       10.080489   -0.185732   -2.345231
     83          1           0       15.265028   -1.219764    0.660799
     84          1           0        8.411101    1.897118   -0.821936
     85          1           0       -2.595971    4.497953    0.176773
     86          1           0       -2.544330    4.152987   -1.511254
     87          1           0       -4.028617    4.420327   -0.621754
     88          1           0       -2.423448    0.577176    0.079400
     89          1           0        6.705422   -1.848578   -0.032707
     90          1           0        8.355259   -1.806140   -0.674793
     91          1           0        8.044697   -1.627531    0.992588
     92          1           0        6.435833    1.944036   -0.283648
     93          1           0       -0.620069    2.879495   -0.464992
     94          1           0        4.846277   -0.604742   -0.021089
     95          1           0       -0.221124    0.005558   -0.101923
     96          1           0        3.746806    2.203422   -0.442621
     97          1           0        1.837831    2.221561   -0.226431
     98          1           0        1.517129   -1.601105    0.033211
     99          1           0        2.967760   -1.385532   -0.845712
    100          1           0        2.803100   -1.475979    1.271588
 ---------------------------------------------------------------------

 SCF Done:  E(RCAM-B3LYP) =  -1857.34663150     A.U. after   15 cycles

 Excitation energies and oscillator strengths:

 Excited State   1:      Singlet-A      2.2429 eV  552.77 nm  f=2.8165  <S**2>=0.000
     163 ->166         0.11832
     164 ->165         0.69895
     164 <-165        -0.10071
 This state for optimization and/or second-order correction.
 Total Energy, E(TD-HF/TD-DFT) =  -1857.26420480
 Copying the excited state density for this state as the 1-particle RhoCI density.

 The electronic state is 1-A.
 Alpha  occ. eigenvalues --  -19.22479 -19.21618 -19.20938 -19.20717 -10.32239
 Alpha  occ. eigenvalues --  -10.32017 -10.31403 -10.31348 -10.30348 -10.28725
 Alpha  occ. eigenvalues --  -10.28466 -10.27904 -10.27493 -10.27435 -10.27292
 Alpha  occ. eigenvalues --  -10.27271 -10.27237 -10.27103 -10.26864 -10.26746
 Alpha  occ. eigenvalues --  -10.26659 -10.26641 -10.26527 -10.26407 -10.26347
 Alpha  occ. eigenvalues --  -10.26285 -10.26223 -10.26111 -10.26075 -10.25731
 Alpha  occ. eigenvalues --  -10.25691 -10.25654 -10.25615 -10.25552 -10.25439
 Alpha  occ. eigenvalues --  -10.25384 -10.25260 -10.25174 -10.25041 -10.24872
 Alpha  occ. eigenvalues --  -10.24854 -10.24578 -10.24015 -10.23801  -1.16573
 Alpha  occ. eigenvalues --   -1.09521  -1.08023  -1.07915  -0.93286  -0.92811
 Alpha  occ. eigenvalues --   -0.92548  -0.91555  -0.90974  -0.90685  -0.88350
 Alpha  occ. eigenvalues --   -0.87416  -0.85873  -0.85433  -0.85039  -0.83252
 Alpha  occ. eigenvalues --   -0.82639  -0.81295  -0.80786  -0.79588  -0.76831
 Alpha  occ. eigenvalues --   -0.76778  -0.76335  -0.76249  -0.75798  -0.74763
 Alpha  occ. eigenvalues --   -0.74476  -0.74341  -0.73415  -0.70593  -0.69737
 Alpha  occ. eigenvalues --   -0.68871  -0.67364  -0.66229  -0.65819  -0.64282
 Alpha  occ. eigenvalues --   -0.63881  -0.62171  -0.61284  -0.59706  -0.59566
 Alpha  occ. eigenvalues --   -0.58900  -0.58592  -0.58202  -0.57437  -0.56853
 Alpha  occ. eigenvalues --   -0.56840  -0.55743  -0.55442  -0.54739  -0.54265
 Alpha  occ. eigenvalues --   -0.54046  -0.53248  -0.52855  -0.52399  -0.52221
 Alpha  occ. eigenvalues --   -0.51856  -0.51662  -0.50842  -0.50419  -0.49348
 Alpha  occ. eigenvalues --   -0.49269  -0.49107  -0.49071  -0.48572  -0.48198
 Alpha  occ. eigenvalues --   -0.48067  -0.47952  -0.47707  -0.47474  -0.46941
 Alpha  occ. eigenvalues --   -0.46490  -0.46257  -0.45921  -0.45884  -0.45176
 Alpha  occ. eigenvalues --   -0.44732  -0.44474  -0.43915  -0.43662  -0.43297
 Alpha  occ. eigenvalues --   -0.43196  -0.43043  -0.42903  -0.42842  -0.42545
 Alpha  occ. eigenvalues --   -0.42117  -0.41714  -0.41564  -0.41330  -0.41280
 Alpha  occ. eigenvalues --   -0.40898  -0.40431  -0.40054  -0.39806  -0.39642
 Alpha  occ. eigenvalues --   -0.39602  -0.39129  -0.38960  -0.38498  -0.38461
 Alpha  occ. eigenvalues --   -0.38327  -0.38080  -0.37876  -0.37508  -0.37025
 Alpha  occ. eigenvalues --   -0.36535  -0.36207  -0.35644  -0.35285  -0.34465
 Alpha  occ. eigenvalues --   -0.32377  -0.32233  -0.31961  -0.31822  -0.30674
 Alpha  occ. eigenvalues --   -0.28435  -0.27657  -0.25632  -0.19875
 Alpha virt. eigenvalues --   -0.06069   0.00080   0.03607   0.04313   0.07506
 Alpha virt. eigenvalues --    0.09419   0.10145   0.10930   0.11934   0.12237
 Alpha virt. eigenvalues --    0.12747   0.13063   0.13285   0.13407   0.13731

 Mulliken charges:
               1
     1  O   -0.506924
     2  O   -0.541690
     3  O   -0.580879
     4  O   -0.573537
     5  C    0.157493
     6  C    0.231626
     7  C    0.037936
     8  C   -0.236474
     9  C   -0.197696
    10  C    0.137160
    11  C   -0.318443
    12  C   -0.090193
    13  C   -0.283363
    14  C   -0.314886
    15  C   -0.096425
    16  C    0.128694
    17  C   -0.385843
    18  C   -0.118540
    19  C   -0.068632
    20  C    0.033229
    21  C    0.289430
    22  C   -0.167574
    23  C    0.146493
    24  C   -0.201594
    25  C   -0.034322
    26  C   -0.310059
    27  C   -0.309560
    28  C   -0.327774
    29  C   -0.121753
    30  C    0.226344
    31  C    0.137857
    32  C   -0.373114
    33  C   -0.395210
    34  C   -0.130475
    35  C    0.119065
    36  C   -0.391666
    37  C   -0.109918
    38  C   -0.065548
    39  C   -0.095183
    40  C   -0.097561
    41  C   -0.091466
    42  C   -0.096303
    43  C    0.117983
    44  C   -0.359617
    45  H    0.115869
    46  H    0.136859
    47  H    0.083879
    48  H    0.117541
    49  H    0.109558
    50  H    0.111445
    51  H    0.078680
    52  H    0.134750
    53  H    0.114230
    54  H    0.099284
    55  H    0.070462
    56  H    0.101396
    57  H    0.124263
    58  H    0.094905
    59  H    0.096080
    60  H    0.307405
    61  H    0.066352
    62  H    0.138438
    63  H    0.080753
    64  H    0.125743
    65  H    0.084203
    66  H    0.081724
    67  H    0.096646
    68  H    0.094204
    69  H    0.080737
    70  H    0.125194
    71  H    0.117698
    72  H    0.109865
    73  H    0.087236
    74  H    0.099387
    75  H    0.125014
    76  H    0.074428
    77  H    0.096810
    78  H    0.119289
    79  H    0.067370
    80  H    0.127317
    81  H    0.080915
    82  H    0.313560
    83  H    0.302261
    84  H    0.118652
    85  H    0.100521
    86  H    0.133292
    87  H    0.119367
    88  H    0.072197
    89  H    0.113483
    90  H    0.133087
    91  H    0.114127
    92  H    0.057859
    93  H    0.069831
    94  H    0.059726
    95  H    0.072941
    96  H    0.054280
    97  H    0.073878
    98  H    0.121890
    99  H    0.110069
   100  H    0.111966
 Sum of Mulliken charges =  -0.00000

 Dipole moment (field-independent basis, Debye):
    X=              2.3679    Y=             -0.7909    Z=              0.7755  Tot=              2.6142
 Quadrupole moment (field-independent basis, Debye-Ang):
   XX=           -261.1199   YY=           -257.9290   ZZ=           -278.2772
   XY=            -11.8875   XZ=             37.6853   YZ=             -3.0691

 Normal termination of Gaussian 16 at Mon Jul 29 01:29:48 2019.
