 Gaussian 16, Revision A.03,
 Gaussian 16:  ES64L-G16RevA.03 25-Dec-2016

 -------------------------------------
 # td=(NStates=1) CAM-B3LYP/6-31G(d,p)
 -------------------------------------

 --
 TD
 --
 Symbolic Z-matrix:
 Charge =  0 Multiplicity = 1

                         Standard orientation:
 ---------------------------------------------------------------------
 Center     Atomic      Atomic             Coordinates (Angstroms)
 Number     Number       Type             X           Y           Z
 ---------------------------------------------------------------------
      1          8           0       11.679681    0.496399    1.381171
      2          8           0       13.047245   -2.798395   -1.043383
      3          8           0      -10.647042   -0.857831    2.198842
      4          8           0      -14.530096   -1.075422    0.269214
      5          6           0       11.073830   -0.043207    0.285992
      6          6           0       11.677242   -0.928732    1.351824
      7          6           0       11.763858    0.280578   -1.046745
      8          6           0       13.034668   -1.632026    1.209567
      9          6           0       13.319597   -0.220565   -0.958610
     10          6           0       13.584382   -1.565568   -0.252522
     11          6           0       10.798495   -1.529967    2.547020
     12          6           0        9.548825    0.158551    0.292093
     13          6           0       11.054780   -0.445836   -2.206250
     14          6           0       11.783085    1.726039   -1.291106
     15          6           0        8.623304   -0.796148   -0.065576
     16          6           0        7.156565   -0.665744   -0.189979
     17          6           0        6.283257   -1.910071   -0.585729
     18          6           0        6.520795    0.585943    0.047609
     19          6           0        5.191463    0.955838    0.038558
     20          6           0      -11.942467    0.005844   -1.356984
     21          6           0      -11.704139   -0.466030    1.350458
     22          6           0      -12.684076   -1.390356   -1.328077
     23          6           0      -13.353475   -1.809715    0.024680
     24          6           0      -12.544054   -1.749469    1.201900
     25          6           0      -11.063166   -0.046614   -0.096662
     26          6           0      -10.891620    0.020356   -2.565408
     27          6           0      -12.909786    1.155514   -1.340441
     28          6           0      -12.456378    0.653264    1.954249
     29          6           0        4.709970    2.269706    0.400077
     30          6           0       -9.843042    0.398570   -0.123498
     31          6           0        3.421066    2.624548    0.345363
     32          6           0       -8.645413    0.937984   -0.009075
     33          6           0        3.080053    4.110378    0.709567
     34          6           0        2.296575    1.652799    0.155110
     35          6           0       -7.393571    0.053307   -0.057108
     36          6           0       -7.664531   -1.481522   -0.195309
     37          6           0       -6.260923    0.619596   -0.130923
     38          6           0        0.943596    1.991919    0.268572
     39          6           0       -4.942245    0.106895   -0.053681
     40          6           0        0.003790    0.912744    0.059635
     41          6           0       -3.778970    0.946771   -0.123197
     42          6           0       -1.379504    1.187688   -0.130641
     43          6           0       -2.493377    0.342054   -0.180023
     44          6           0       -2.277291   -1.138407   -0.342868
     45          1           0       13.094077   -2.622141    1.724681
     46          1           0       13.743400   -0.952743    1.951464
     47          1           0       13.959641   -0.252839   -1.828091
     48          1           0       13.739961    0.490721   -0.231560
     49          1           0       14.806239   -1.765599   -0.229963
     50          1           0       10.493561   -2.528699    2.285087
     51          1           0       11.487559   -1.516442    3.473170
     52          1           0        9.922060   -0.995323    2.740620
     53          1           0        9.350736    1.270620    0.344646
     54          1           0        9.934000   -0.328652   -2.137059
     55          1           0       11.561855   -0.007122   -3.121925
     56          1           0       10.992867   -1.546724   -2.053577
     57          1           0       12.046261    2.223819   -0.402006
     58          1           0       12.419627    1.980467   -2.121417
     59          1           0       10.951358    2.327859   -1.569567
     60          1           0       12.152961   -2.889901   -0.638191
     61          1           0        9.127447   -1.749493   -0.494534
     62          1           0        5.524938   -2.070929    0.099877
     63          1           0        5.847372   -1.599811   -1.671395
     64          1           0        6.719507   -2.743838   -0.719481
     65          1           0        7.157975    1.538828    0.544736
     66          1           0        4.479898    0.186103   -0.153884
     67          1           0      -13.358414   -1.388807   -2.260234
     68          1           0      -12.154538   -2.354679   -1.572735
     69          1           0      -13.687496   -2.766855   -0.176522
     70          1           0      -13.231189   -1.716783    2.191088
     71          1           0      -11.569536   -2.327010    1.175269
     72          1           0      -11.443750    0.076979   -3.582281
     73          1           0      -10.202416    0.962814   -2.412838
     74          1           0      -10.326052   -0.979456   -2.451071
     75          1           0      -13.767518    1.110532   -0.532435
     76          1           0      -12.251286    2.091944   -1.230186
     77          1           0      -13.035436    1.153151   -2.353358
     78          1           0      -12.944834    0.467485    3.031806
     79          1           0      -12.143417    1.655209    2.070220
     80          1           0      -13.413346    0.831409    1.390328
     81          1           0        5.522129    2.947611    0.670224
     82          1           0      -10.189440   -0.001264    2.603427
     83          1           0      -15.227589   -1.120654   -0.465129
     84          1           0       -8.404952    2.008350    0.219487
     85          1           0        2.777383    4.919067   -0.286597
     86          1           0        2.182516    4.253582    1.528818
     87          1           0        4.018623    4.442677    1.055070
     88          1           0        2.625336    0.632085   -0.052651
     89          1           0       -6.732197   -2.155257   -0.156697
     90          1           0       -8.585459   -1.690873    0.447650
     91          1           0       -8.003692   -1.650519   -1.334876
     92          1           0       -6.352322    1.809632   -0.292876
     93          1           0        0.591823    2.947031    0.231658
     94          1           0       -4.750644   -1.016205   -0.114446
     95          1           0        0.185771   -0.161245   -0.110848
     96          1           0       -3.875549    2.047880   -0.027095
     97          1           0       -1.453746    2.188069    0.011302
     98          1           0       -1.261123   -1.624116   -0.286255
     99          1           0       -2.572069   -1.774661    0.308095
    100          1           0       -2.724196   -1.644752   -1.144890
 ---------------------------------------------------------------------

 SCF Done:  E(RCAM-B3LYP) =  -1857.26042281     A.U. after   17 cycles

 Excitation energies and oscillator strengths:

 Excited State   1:      Singlet-A      1.7136 eV  723.53 nm  f=2.5656  <S**2>=0.000
     163 ->166         0.10347
     164 ->165         0.71560
     164 <-165        -0.16336
 This state for optimization and/or second-order correction.
 Total Energy, E(TD-HF/TD-DFT) =  -1857.19744896
 Copying the excited state density for this state as the 1-particle RhoCI density.

 The electronic state is 1-A.
 Alpha  occ. eigenvalues --  -19.22270 -19.22259 -19.21714 -19.20571 -10.32854
 Alpha  occ. eigenvalues --  -10.32728 -10.32585 -10.31732 -10.30481 -10.28643
 Alpha  occ. eigenvalues --  -10.28632 -10.28574 -10.28299 -10.28047 -10.27865
 Alpha  occ. eigenvalues --  -10.27711 -10.27668 -10.27457 -10.27397 -10.27368
 Alpha  occ. eigenvalues --  -10.27366 -10.27344 -10.27324 -10.27315 -10.27200
 Alpha  occ. eigenvalues --  -10.27030 -10.26913 -10.26870 -10.26758 -10.26627
 Alpha  occ. eigenvalues --  -10.26559 -10.26329 -10.26246 -10.26016 -10.25577
 Alpha  occ. eigenvalues --  -10.25531 -10.25407 -10.25336 -10.25285 -10.25234
 Alpha  occ. eigenvalues --  -10.25157 -10.24684 -10.24316 -10.22892  -1.17496
 Alpha  occ. eigenvalues --   -1.09999  -1.09397  -1.05009  -0.92687  -0.91926
 Alpha  occ. eigenvalues --   -0.91193  -0.90465  -0.90265  -0.88791  -0.87169
 Alpha  occ. eigenvalues --   -0.86819  -0.85691  -0.85025  -0.83626  -0.82466
 Alpha  occ. eigenvalues --   -0.81440  -0.80824  -0.80195  -0.79807  -0.77095
 Alpha  occ. eigenvalues --   -0.76567  -0.76370  -0.75886  -0.75621  -0.75328
 Alpha  occ. eigenvalues --   -0.74788  -0.73399  -0.72824  -0.70553  -0.69526
 Alpha  occ. eigenvalues --   -0.67999  -0.66618  -0.64774  -0.64584  -0.63763
 Alpha  occ. eigenvalues --   -0.63433  -0.62590  -0.61694  -0.59855  -0.58972
 Alpha  occ. eigenvalues --   -0.58508  -0.57893  -0.57510  -0.57438  -0.56004
 Alpha  occ. eigenvalues --   -0.55615  -0.55243  -0.55021  -0.54620  -0.53944
 Alpha  occ. eigenvalues --   -0.53544  -0.52788  -0.52174  -0.51433  -0.51255
 Alpha  occ. eigenvalues --   -0.50651  -0.50386  -0.49789  -0.49612  -0.49183
 Alpha  occ. eigenvalues --   -0.49086  -0.48783  -0.48543  -0.48403  -0.47934
 Alpha  occ. eigenvalues --   -0.47619  -0.47117  -0.46720  -0.46578  -0.46402
 Alpha  occ. eigenvalues --   -0.46244  -0.45935  -0.45464  -0.45158  -0.44865
 Alpha  occ. eigenvalues --   -0.44383  -0.44290  -0.44280  -0.44107  -0.43994
 Alpha  occ. eigenvalues --   -0.43594  -0.43377  -0.43157  -0.42918  -0.42811
 Alpha  occ. eigenvalues --   -0.42737  -0.42149  -0.41998  -0.41293  -0.41173
 Alpha  occ. eigenvalues --   -0.40956  -0.40883  -0.40394  -0.39915  -0.39776
 Alpha  occ. eigenvalues --   -0.39345  -0.39158  -0.38740  -0.38469  -0.38360
 Alpha  occ. eigenvalues --   -0.38250  -0.37578  -0.37331  -0.37173  -0.37007
 Alpha  occ. eigenvalues --   -0.36966  -0.35087  -0.34836  -0.33995  -0.33716
 Alpha  occ. eigenvalues --   -0.32962  -0.31807  -0.31609  -0.31391  -0.30569
 Alpha  occ. eigenvalues --   -0.29726  -0.28126  -0.24358  -0.18050
 Alpha virt. eigenvalues --   -0.07434  -0.00507   0.03610   0.06326   0.06790
 Alpha virt. eigenvalues --    0.09225   0.09513   0.09586   0.11641   0.11683
 Alpha virt. eigenvalues --    0.12201   0.12485   0.12513   0.12625   0.13553

 Mulliken charges:
               1
     1  O   -0.485109
     2  O   -0.560123
     3  O   -0.569721
     4  O   -0.571368
     5  C    0.195629
     6  C    0.210133
     7  C    0.039903
     8  C   -0.232766
     9  C   -0.188818
    10  C    0.133806
    11  C   -0.325048
    12  C   -0.096211
    13  C   -0.294884
    14  C   -0.329691
    15  C   -0.100230
    16  C    0.037788
    17  C   -0.345256
    18  C   -0.106037
    19  C   -0.061694
    20  C    0.004105
    21  C    0.279036
    22  C   -0.209753
    23  C    0.193031
    24  C   -0.197516
    25  C   -0.092787
    26  C   -0.310805
    27  C   -0.292324
    28  C   -0.346779
    29  C   -0.126671
    30  C    0.185178
    31  C    0.079424
    32  C   -0.299793
    33  C   -0.343807
    34  C   -0.092932
    35  C    0.117934
    36  C   -0.368548
    37  C   -0.100586
    38  C   -0.093128
    39  C   -0.105756
    40  C   -0.073535
    41  C   -0.117574
    42  C   -0.137283
    43  C    0.142057
    44  C   -0.401763
    45  H    0.120228
    46  H    0.102262
    47  H    0.114142
    48  H    0.113995
    49  H    0.082102
    50  H    0.105434
    51  H    0.100787
    52  H    0.132068
    53  H    0.100263
    54  H    0.103214
    55  H    0.094341
    56  H    0.090058
    57  H    0.123673
    58  H    0.105023
    59  H    0.107930
    60  H    0.301523
    61  H    0.074160
    62  H    0.130640
    63  H    0.103224
    64  H    0.117564
    65  H    0.063367
    66  H    0.077585
    67  H    0.072676
    68  H    0.094107
    69  H    0.087675
    70  H    0.115828
    71  H    0.134399
    72  H    0.084511
    73  H    0.112468
    74  H    0.114096
    75  H    0.128094
    76  H    0.092998
    77  H    0.111343
    78  H    0.090465
    79  H    0.110630
    80  H    0.127144
    81  H    0.090628
    82  H    0.318836
    83  H    0.312330
    84  H    0.107690
    85  H    0.074703
    86  H    0.102670
    87  H    0.119845
    88  H    0.088282
    89  H    0.103772
    90  H    0.139160
    91  H    0.104194
    92  H    0.059988
    93  H    0.103012
    94  H    0.085353
    95  H    0.081906
    96  H    0.097277
    97  H    0.065288
    98  H    0.100462
    99  H    0.137283
   100  H    0.127578
 Sum of Mulliken charges =  -0.00000

 Dipole moment (field-independent basis, Debye):
    X=             -6.6027    Y=              0.0842    Z=             -0.4890  Tot=              6.6213
 Quadrupole moment (field-independent basis, Debye-Ang):
   XX=           -261.1928   YY=           -261.0031   ZZ=           -277.4159
   XY=              6.5480   XZ=             29.9529   YZ=              1.0918

 Normal termination of Gaussian 16 at Tue Jul 30 01:39:42 2019.
