 Gaussian 16, Revision A.03,
 Gaussian 16:  ES64L-G16RevA.03 25-Dec-2016

 -------------------------------------
 # td=(NStates=1) CAM-B3LYP/6-31G(d,p)
 -------------------------------------

 --
 TD
 --
 Symbolic Z-matrix:
 Charge =  0 Multiplicity = 1

                         Standard orientation:
 ---------------------------------------------------------------------
 Center     Atomic      Atomic             Coordinates (Angstroms)
 Number     Number       Type             X           Y           Z
 ---------------------------------------------------------------------
      1          8           0      -11.629706   -0.132672   -1.664113
      2          8           0      -12.967551   -2.236943    1.617851
      3          8           0       10.596709   -1.355226   -2.021826
      4          8           0       14.467892   -1.176156   -0.049833
      5          6           0      -11.028316   -0.280130   -0.393512
      6          6           0      -11.589412   -1.467414   -1.149670
      7          6           0      -11.812201    0.457060    0.741634
      8          6           0      -13.021052   -1.939552   -0.790310
      9          6           0      -13.307246   -0.016518    0.600182
     10          6           0      -13.603714   -1.509797    0.483817
     11          6           0      -10.682516   -2.322463   -1.925833
     12          6           0       -9.552765   -0.107805   -0.552514
     13          6           0      -11.248551    0.272280    2.215627
     14          6           0      -11.779126    1.936468    0.314806
     15          6           0       -8.599901   -0.743513    0.277858
     16          6           0       -7.170434   -0.526281    0.357324
     17          6           0       -6.335196   -1.673161    0.942600
     18          6           0       -6.609298    0.713624   -0.027277
     19          6           0       -5.210028    1.034030    0.037521
     20          6           0       11.978002    0.266884    1.225634
     21          6           0       11.627644   -0.818799   -1.247868
     22          6           0       12.780229   -1.090901    1.581044
     23          6           0       13.333792   -1.807022    0.443382
     24          6           0       12.342143   -2.087342   -0.650841
     25          6           0       11.019598   -0.018578   -0.070361
     26          6           0       11.048870    0.628344    2.397913
     27          6           0       12.865889    1.422160    0.981711
     28          6           0       12.561683   -0.082804   -2.203282
     29          6           0       -4.604668    2.203817   -0.366758
     30          6           0        9.789238    0.422596    0.005381
     31          6           0       -3.306920    2.605104   -0.395360
     32          6           0        8.621118    0.922163   -0.304839
     33          6           0       -2.897352    4.045581   -0.843770
     34          6           0       -2.322881    1.652601   -0.216496
     35          6           0        7.431510    0.213315    0.017024
     36          6           0        7.675575   -1.219128    0.526278
     37          6           0        6.142881    0.733360   -0.192185
     38          6           0       -0.968257    1.929434   -0.275981
     39          6           0        4.954588    0.177841    0.038094
     40          6           0       -0.037446    1.040743   -0.097506
     41          6           0        3.768020    0.811086   -0.326271
     42          6           0        1.359565    1.216558   -0.274704
     43          6           0        2.415042    0.403369   -0.074592
     44          6           0        2.329276   -0.984966    0.457095
     45          1           0      -12.995090   -3.046691   -0.884652
     46          1           0      -13.760695   -1.913073   -1.702625
     47          1           0      -13.901552    0.456194    1.575808
     48          1           0      -13.801466    0.651298   -0.122302
     49          1           0      -14.798018   -1.769215    0.425866
     50          1           0      -10.616399   -3.365225   -1.352040
     51          1           0      -11.276124   -2.625660   -2.852417
     52          1           0       -9.606802   -1.833136   -1.995125
     53          1           0       -9.131034    0.582669   -1.264743
     54          1           0      -10.333488    0.758333    2.446880
     55          1           0      -12.070832    0.977348    2.715789
     56          1           0      -11.099322   -0.777071    2.555006
     57          1           0      -11.975245    2.087216   -0.796206
     58          1           0      -12.537019    2.643030    0.862789
     59          1           0      -10.737354    2.107395    0.655686
     60          1           0      -12.066256   -2.125332    1.567935
     61          1           0       -9.059021   -1.468184    0.893705
     62          1           0       -5.336506   -1.826425    0.224573
     63          1           0       -5.815848   -1.256012    1.874224
     64          1           0       -6.951554   -2.542431    0.986973
     65          1           0       -7.209353    1.614286   -0.176662
     66          1           0       -4.437132    0.266963    0.329309
     67          1           0       13.469454   -0.571251    2.502368
     68          1           0       11.953939   -1.559932    2.365296
     69          1           0       13.581053   -2.790570    0.835778
     70          1           0       12.784793   -2.731328   -1.499009
     71          1           0       11.574680   -2.762831   -0.442894
     72          1           0       11.547372    0.775623    3.241295
     73          1           0       10.283150    1.394901    2.219008
     74          1           0       10.492939   -0.221183    2.637573
     75          1           0       13.547180    1.085454    0.277418
     76          1           0       12.113024    2.242855    0.815243
     77          1           0       13.442936    1.630762    1.876228
     78          1           0       12.918496   -0.718288   -3.053148
     79          1           0       12.083440    0.853946   -2.659327
     80          1           0       13.401878    0.280721   -1.606272
     81          1           0       -5.397594    2.997001   -0.627655
     82          1           0       10.053841   -0.563479   -2.392591
     83          1           0       15.140916   -0.875334    0.658736
     84          1           0        8.682884    1.928379   -0.867950
     85          1           0       -2.331408    4.728222   -0.229704
     86          1           0       -2.251478    3.940481   -1.855958
     87          1           0       -3.901379    4.515515   -1.190261
     88          1           0       -2.640510    0.607990    0.018763
     89          1           0        6.726532   -1.876308    0.659656
     90          1           0        8.282691   -1.709160   -0.087763
     91          1           0        7.816628   -1.324000    1.656937
     92          1           0        6.117013    1.744238   -0.686039
     93          1           0       -0.606910    2.928248   -0.548176
     94          1           0        4.848246   -0.823203    0.474998
     95          1           0       -0.228146    0.014451    0.301232
     96          1           0        3.868278    1.972802   -0.485999
     97          1           0        1.582565    2.184009   -0.786149
     98          1           0        1.243172   -1.508282    0.540116
     99          1           0        2.783850   -1.701089   -0.142895
    100          1           0        2.649536   -0.951120    1.466782
 ---------------------------------------------------------------------

 SCF Done:  E(RCAM-B3LYP) =  -1857.36497518     A.U. after   15 cycles

 Excitation energies and oscillator strengths:

 Excited State   1:      Singlet-A      2.2018 eV  563.11 nm  f=3.2494  <S**2>=0.000
     163 ->166         0.15739
     164 ->165         0.68733
 This state for optimization and/or second-order correction.
 Total Energy, E(TD-HF/TD-DFT) =  -1857.28406186
 Copying the excited state density for this state as the 1-particle RhoCI density.

 The electronic state is 1-A.
 Alpha  occ. eigenvalues --  -19.22831 -19.21500 -19.21220 -19.20404 -10.32477
 Alpha  occ. eigenvalues --  -10.32138 -10.32095 -10.31979 -10.31483 -10.28804
 Alpha  occ. eigenvalues --  -10.28329 -10.28297 -10.28226 -10.27744 -10.27683
 Alpha  occ. eigenvalues --  -10.27656 -10.27517 -10.27355 -10.27321 -10.27045
 Alpha  occ. eigenvalues --  -10.27036 -10.26962 -10.26957 -10.26880 -10.26695
 Alpha  occ. eigenvalues --  -10.26670 -10.26537 -10.26530 -10.26373 -10.26371
 Alpha  occ. eigenvalues --  -10.26295 -10.26215 -10.26188 -10.25978 -10.25954
 Alpha  occ. eigenvalues --  -10.25905 -10.25753 -10.25638 -10.25531 -10.25507
 Alpha  occ. eigenvalues --  -10.25402 -10.24587 -10.23588 -10.22556  -1.15792
 Alpha  occ. eigenvalues --   -1.10944  -1.09622  -1.08731  -0.93042  -0.92601
 Alpha  occ. eigenvalues --   -0.91913  -0.90873  -0.90363  -0.89695  -0.88275
 Alpha  occ. eigenvalues --   -0.86880  -0.86467  -0.86093  -0.84286  -0.83027
 Alpha  occ. eigenvalues --   -0.82078  -0.80755  -0.80445  -0.78685  -0.77540
 Alpha  occ. eigenvalues --   -0.76747  -0.76178  -0.75941  -0.75813  -0.75767
 Alpha  occ. eigenvalues --   -0.75035  -0.74002  -0.73264  -0.70355  -0.69878
 Alpha  occ. eigenvalues --   -0.68746  -0.67047  -0.65007  -0.64166  -0.63786
 Alpha  occ. eigenvalues --   -0.63495  -0.62169  -0.61033  -0.60331  -0.59900
 Alpha  occ. eigenvalues --   -0.58804  -0.58703  -0.58061  -0.57777  -0.56948
 Alpha  occ. eigenvalues --   -0.55867  -0.55792  -0.55252  -0.54441  -0.54218
 Alpha  occ. eigenvalues --   -0.53522  -0.53173  -0.52148  -0.51802  -0.51500
 Alpha  occ. eigenvalues --   -0.51281  -0.51219  -0.50738  -0.50281  -0.50149
 Alpha  occ. eigenvalues --   -0.49972  -0.49667  -0.49378  -0.48577  -0.48515
 Alpha  occ. eigenvalues --   -0.48219  -0.47886  -0.47599  -0.47304  -0.47180
 Alpha  occ. eigenvalues --   -0.46964  -0.46519  -0.45874  -0.45740  -0.45594
 Alpha  occ. eigenvalues --   -0.45170  -0.44828  -0.44345  -0.43835  -0.43210
 Alpha  occ. eigenvalues --   -0.43067  -0.42842  -0.42647  -0.42083  -0.42006
 Alpha  occ. eigenvalues --   -0.41899  -0.41568  -0.41423  -0.41317  -0.40892
 Alpha  occ. eigenvalues --   -0.40782  -0.40622  -0.40427  -0.39800  -0.39626
 Alpha  occ. eigenvalues --   -0.39016  -0.38858  -0.38728  -0.38527  -0.38455
 Alpha  occ. eigenvalues --   -0.38344  -0.38140  -0.37719  -0.37478  -0.37139
 Alpha  occ. eigenvalues --   -0.36295  -0.36170  -0.35199  -0.34506  -0.33944
 Alpha  occ. eigenvalues --   -0.32856  -0.32683  -0.32171  -0.31660  -0.31317
 Alpha  occ. eigenvalues --   -0.29764  -0.28258  -0.23695  -0.19916
 Alpha virt. eigenvalues --   -0.06018  -0.01683   0.02880   0.06306   0.07329
 Alpha virt. eigenvalues --    0.09580   0.09958   0.10544   0.11663   0.11675
 Alpha virt. eigenvalues --    0.11963   0.12713   0.13090   0.13272   0.13522

 Mulliken charges:
               1
     1  O   -0.498292
     2  O   -0.549879
     3  O   -0.570487
     4  O   -0.556619
     5  C    0.196063
     6  C    0.247795
     7  C    0.005287
     8  C   -0.191562
     9  C   -0.172003
    10  C    0.142438
    11  C   -0.327458
    12  C   -0.130851
    13  C   -0.300159
    14  C   -0.317313
    15  C   -0.097539
    16  C    0.078711
    17  C   -0.355532
    18  C   -0.121103
    19  C   -0.064808
    20  C   -0.017385
    21  C    0.256019
    22  C   -0.200354
    23  C    0.194466
    24  C   -0.200228
    25  C   -0.046841
    26  C   -0.318627
    27  C   -0.265257
    28  C   -0.301205
    29  C   -0.131410
    30  C    0.103329
    31  C    0.110688
    32  C   -0.244220
    33  C   -0.369546
    34  C   -0.110736
    35  C    0.079797
    36  C   -0.365935
    37  C   -0.101428
    38  C   -0.070239
    39  C   -0.057969
    40  C   -0.055875
    41  C   -0.146655
    42  C   -0.151992
    43  C    0.129331
    44  C   -0.385649
    45  H    0.101697
    46  H    0.104550
    47  H    0.064730
    48  H    0.116172
    49  H    0.095849
    50  H    0.085378
    51  H    0.115305
    52  H    0.131293
    53  H    0.107413
    54  H    0.117466
    55  H    0.102527
    56  H    0.096446
    57  H    0.135018
    58  H    0.090823
    59  H    0.106043
    60  H    0.298360
    61  H    0.067666
    62  H    0.100987
    63  H    0.131987
    64  H    0.119721
    65  H    0.093781
    66  H    0.063928
    67  H    0.058618
    68  H    0.086447
    69  H    0.086094
    70  H    0.107831
    71  H    0.129127
    72  H    0.097938
    73  H    0.112153
    74  H    0.106975
    75  H    0.110059
    76  H    0.099688
    77  H    0.087157
    78  H    0.116003
    79  H    0.073834
    80  H    0.127998
    81  H    0.063365
    82  H    0.307610
    83  H    0.320174
    84  H    0.114053
    85  H    0.135050
    86  H    0.107578
    87  H    0.102437
    88  H    0.084033
    89  H    0.086364
    90  H    0.149149
    91  H    0.115806
    92  H    0.075611
    93  H    0.085304
    94  H    0.090754
    95  H    0.071408
    96  H    0.072806
    97  H    0.067963
    98  H    0.081498
    99  H    0.136368
   100  H    0.136843
 Sum of Mulliken charges =  -0.00000

 Dipole moment (field-independent basis, Debye):
    X=              4.0571    Y=              0.4559    Z=              1.6288  Tot=              4.3956
 Quadrupole moment (field-independent basis, Debye-Ang):
   XX=           -269.0173   YY=           -263.0390   ZZ=           -277.2056
   XY=              0.3237   XZ=             29.9500   YZ=             -3.2257

 Normal termination of Gaussian 16 at Thu Aug  1 23:06:13 2019.
