 Gaussian 16, Revision A.03,
 Gaussian 16:  ES64L-G16RevA.03 25-Dec-2016

 -------------------------------------
 # td=(NStates=1) CAM-B3LYP/6-31G(d,p)
 -------------------------------------

 --
 TD
 --
 Symbolic Z-matrix:
 Charge =  0 Multiplicity = 1

                         Standard orientation:
 ---------------------------------------------------------------------
 Center     Atomic      Atomic             Coordinates (Angstroms)
 Number     Number       Type             X           Y           Z
 ---------------------------------------------------------------------
      1          8           0      -11.702204    0.244568   -1.536170
      2          8           0      -12.971844   -2.434813    1.455416
      3          8           0       10.634581   -0.755914   -2.163028
      4          8           0       14.508237   -1.151071   -0.041540
      5          6           0      -11.041289   -0.167082   -0.242593
      6          6           0      -11.614747   -1.088818   -1.325535
      7          6           0      -11.829841    0.336338    0.986671
      8          6           0      -12.986957   -1.844337   -0.926414
      9          6           0      -13.333221    0.008567    0.868376
     10          6           0      -13.552235   -1.517952    0.416087
     11          6           0      -10.773067   -1.829136   -2.267090
     12          6           0       -9.578111    0.115702   -0.301618
     13          6           0      -11.104602   -0.216766    2.206175
     14          6           0      -11.758408    1.948088    1.094041
     15          6           0       -8.678849   -0.751074    0.166774
     16          6           0       -7.231051   -0.524945    0.202022
     17          6           0       -6.346653   -1.789336    0.465669
     18          6           0       -6.620532    0.682681    0.058149
     19          6           0       -5.262416    0.887352   -0.045349
     20          6           0       11.970459   -0.023910    1.385725
     21          6           0       11.642637   -0.394817   -1.190404
     22          6           0       12.601582   -1.476567    1.446353
     23          6           0       13.322433   -1.894547    0.200414
     24          6           0       12.474975   -1.761078   -1.038297
     25          6           0       11.066705    0.130665    0.088202
     26          6           0       11.063757    0.080142    2.671779
     27          6           0       12.960430    1.057880    1.517016
     28          6           0       12.597983    0.661098   -1.891737
     29          6           0       -4.691368    2.187797   -0.218803
     30          6           0        9.863859    0.596674    0.132298
     31          6           0       -3.318906    2.605336   -0.366215
     32          6           0        8.687940    1.016999    0.077259
     33          6           0       -3.065076    4.013214   -0.579090
     34          6           0       -2.382695    1.636065   -0.220261
     35          6           0        7.504036    0.147435    0.099152
     36          6           0        7.699627   -1.309864    0.142463
     37          6           0        6.208825    0.716432    0.051749
     38          6           0       -0.990495    1.805884   -0.441158
     39          6           0        4.913848    0.087952   -0.153142
     40          6           0        0.047844    0.748101   -0.261243
     41          6           0        3.836262    0.777556   -0.263084
     42          6           0        1.338076    1.133447   -0.450133
     43          6           0        2.448229    0.281461   -0.279195
     44          6           0        2.251577   -1.256433   -0.142029
     45          1           0      -12.996115   -2.873862   -0.952262
     46          1           0      -13.731416   -1.538066   -1.596543
     47          1           0      -13.794393    0.076693    1.816463
     48          1           0      -13.841718    0.564106    0.214552
     49          1           0      -14.558606   -1.783433    0.371364
     50          1           0      -10.585611   -2.968937   -1.894632
     51          1           0      -11.298102   -1.596631   -3.211964
     52          1           0       -9.699100   -1.298066   -2.245854
     53          1           0       -9.385025    1.122204   -0.661322
     54          1           0      -10.089735    0.032908    2.297264
     55          1           0      -11.785164    0.055999    3.097073
     56          1           0      -11.273372   -1.474366    2.102863
     57          1           0      -12.134348    2.441502    0.162571
     58          1           0      -12.326166    2.514458    1.977253
     59          1           0      -10.804861    2.202372    1.222944
     60          1           0      -12.044709   -2.699102    0.852327
     61          1           0       -8.991117   -1.791690    0.476643
     62          1           0       -5.475469   -1.721507   -0.419343
     63          1           0       -5.933392   -1.618782    1.619840
     64          1           0       -6.976070   -2.725524    0.205153
     65          1           0       -7.169810    1.695433   -0.039830
     66          1           0       -4.665189   -0.021029    0.081159
     67          1           0       13.240106   -1.643571    2.254512
     68          1           0       11.865465   -2.197179    1.650087
     69          1           0       13.621300   -2.943467    0.061121
     70          1           0       12.953789   -1.819360   -2.102227
     71          1           0       11.663433   -2.502709   -1.052150
     72          1           0       11.515919    0.070058    3.727523
     73          1           0       10.577374    1.021156    2.755697
     74          1           0       10.297947   -0.583468    2.706252
     75          1           0       13.561504    0.981652    0.604221
     76          1           0       12.453829    2.120095    1.608144
     77          1           0       13.536294    0.865492    2.369940
     78          1           0       13.116560    0.318109   -2.726073
     79          1           0       12.011392    1.529410   -2.338006
     80          1           0       13.580409    0.827015   -1.215751
     81          1           0       -5.488739    3.062551   -0.405453
     82          1           0        9.992272   -0.045525   -2.348199
     83          1           0       15.035696   -0.793613    0.793407
     84          1           0        8.539031    2.000797   -0.254839
     85          1           0       -2.359800    4.409668    0.265723
     86          1           0       -2.699625    4.121370   -1.485275
     87          1           0       -3.933412    4.383868   -0.665696
     88          1           0       -2.599626    0.519768   -0.289621
     89          1           0        6.711288   -1.799850    0.020186
     90          1           0        8.459476   -1.618955   -0.428260
     91          1           0        8.104817   -1.640446    1.162219
     92          1           0        6.113007    1.879970    0.002494
     93          1           0       -0.691568    2.807667   -0.581939
     94          1           0        4.883156   -0.900902   -0.027838
     95          1           0       -0.323392   -0.241266   -0.216940
     96          1           0        3.830854    1.970069   -0.264990
     97          1           0        1.544712    2.166738   -0.383585
     98          1           0        1.099933   -1.513971   -0.324730
     99          1           0        2.967853   -1.812198   -0.936048
    100          1           0        2.584681   -1.713031    0.835064
 ---------------------------------------------------------------------

 SCF Done:  E(RCAM-B3LYP) =  -1857.31109373     A.U. after   15 cycles

 Excitation energies and oscillator strengths:

 Excited State   1:      Singlet-A      2.1321 eV  581.52 nm  f=2.8206  <S**2>=0.000
     163 ->166         0.12233
     164 ->165         0.70008
     164 <-165        -0.10427
 This state for optimization and/or second-order correction.
 Total Energy, E(TD-HF/TD-DFT) =  -1857.23274163
 Copying the excited state density for this state as the 1-particle RhoCI density.

 The electronic state is 1-A.
 Alpha  occ. eigenvalues --  -19.22290 -19.22135 -19.21771 -19.20813 -10.32771
 Alpha  occ. eigenvalues --  -10.32221 -10.31622 -10.30878 -10.29955 -10.29601
 Alpha  occ. eigenvalues --  -10.29003 -10.28266 -10.28239 -10.28098 -10.28050
 Alpha  occ. eigenvalues --  -10.27974 -10.27689 -10.27507 -10.27158 -10.27149
 Alpha  occ. eigenvalues --  -10.27111 -10.27050 -10.26957 -10.26882 -10.26696
 Alpha  occ. eigenvalues --  -10.26627 -10.26475 -10.26180 -10.26022 -10.26012
 Alpha  occ. eigenvalues --  -10.25967 -10.25796 -10.25631 -10.25566 -10.25040
 Alpha  occ. eigenvalues --  -10.25028 -10.24740 -10.24719 -10.24676 -10.24580
 Alpha  occ. eigenvalues --  -10.24501 -10.24054 -10.23982 -10.23892  -1.15721
 Alpha  occ. eigenvalues --   -1.08605  -1.08156  -1.05391  -0.93112  -0.92796
 Alpha  occ. eigenvalues --   -0.91793  -0.91374  -0.90515  -0.89676  -0.88018
 Alpha  occ. eigenvalues --   -0.86636  -0.85762  -0.85473  -0.85163  -0.83187
 Alpha  occ. eigenvalues --   -0.82168  -0.81515  -0.80721  -0.79126  -0.77790
 Alpha  occ. eigenvalues --   -0.76898  -0.76718  -0.76010  -0.75856  -0.75142
 Alpha  occ. eigenvalues --   -0.74959  -0.73736  -0.72713  -0.70052  -0.69466
 Alpha  occ. eigenvalues --   -0.68393  -0.66447  -0.64994  -0.64663  -0.64056
 Alpha  occ. eigenvalues --   -0.63441  -0.63010  -0.61129  -0.60945  -0.59127
 Alpha  occ. eigenvalues --   -0.58788  -0.58410  -0.58180  -0.56459  -0.56441
 Alpha  occ. eigenvalues --   -0.55673  -0.55629  -0.55280  -0.55105  -0.54333
 Alpha  occ. eigenvalues --   -0.52787  -0.52610  -0.52459  -0.52329  -0.51963
 Alpha  occ. eigenvalues --   -0.51741  -0.51329  -0.51068  -0.50638  -0.49890
 Alpha  occ. eigenvalues --   -0.49494  -0.49026  -0.48688  -0.48504  -0.48235
 Alpha  occ. eigenvalues --   -0.47870  -0.47603  -0.47323  -0.47213  -0.47071
 Alpha  occ. eigenvalues --   -0.46638  -0.46512  -0.46225  -0.45791  -0.45371
 Alpha  occ. eigenvalues --   -0.45049  -0.44427  -0.44211  -0.44128  -0.43865
 Alpha  occ. eigenvalues --   -0.43507  -0.43379  -0.43131  -0.42947  -0.42627
 Alpha  occ. eigenvalues --   -0.42509  -0.42050  -0.41739  -0.41259  -0.40998
 Alpha  occ. eigenvalues --   -0.40711  -0.40494  -0.39993  -0.39971  -0.39657
 Alpha  occ. eigenvalues --   -0.39501  -0.39357  -0.39235  -0.39165  -0.38926
 Alpha  occ. eigenvalues --   -0.38512  -0.38306  -0.38044  -0.37578  -0.37258
 Alpha  occ. eigenvalues --   -0.37015  -0.36516  -0.35517  -0.34626  -0.33115
 Alpha  occ. eigenvalues --   -0.32671  -0.32390  -0.32136  -0.32107  -0.29798
 Alpha  occ. eigenvalues --   -0.29759  -0.27760  -0.24791  -0.19588
 Alpha virt. eigenvalues --   -0.06287  -0.00456   0.03065   0.06836   0.07101
 Alpha virt. eigenvalues --    0.07538   0.09772   0.10319   0.11602   0.11940
 Alpha virt. eigenvalues --    0.12336   0.12986   0.13165   0.13585   0.13775

 Mulliken charges:
               1
     1  O   -0.507722
     2  O   -0.546724
     3  O   -0.580801
     4  O   -0.574011
     5  C    0.145332
     6  C    0.282642
     7  C    0.027046
     8  C   -0.249238
     9  C   -0.162371
    10  C    0.128577
    11  C   -0.316912
    12  C   -0.110623
    13  C   -0.290738
    14  C   -0.317020
    15  C   -0.069000
    16  C    0.042257
    17  C   -0.350080
    18  C   -0.076592
    19  C   -0.062898
    20  C    0.010522
    21  C    0.245334
    22  C   -0.203738
    23  C    0.179065
    24  C   -0.191834
    25  C   -0.089366
    26  C   -0.321588
    27  C   -0.283238
    28  C   -0.306990
    29  C   -0.150358
    30  C    0.246357
    31  C    0.090686
    32  C   -0.325052
    33  C   -0.337856
    34  C   -0.108947
    35  C    0.100280
    36  C   -0.368895
    37  C   -0.133885
    38  C   -0.117508
    39  C   -0.053551
    40  C   -0.079468
    41  C   -0.094771
    42  C   -0.105087
    43  C    0.087687
    44  C   -0.364682
    45  H    0.113780
    46  H    0.118813
    47  H    0.108039
    48  H    0.112580
    49  H    0.097340
    50  H    0.083524
    51  H    0.125356
    52  H    0.112122
    53  H    0.115356
    54  H    0.118032
    55  H    0.092370
    56  H    0.076143
    57  H    0.110607
    58  H    0.086790
    59  H    0.108075
    60  H    0.291594
    61  H    0.082161
    62  H    0.103572
    63  H    0.123765
    64  H    0.106733
    65  H    0.075782
    66  H    0.085881
    67  H    0.099904
    68  H    0.112197
    69  H    0.088320
    70  H    0.114825
    71  H    0.113902
    72  H    0.084173
    73  H    0.109928
    74  H    0.110045
    75  H    0.104303
    76  H    0.093863
    77  H    0.097460
    78  H    0.117786
    79  H    0.081346
    80  H    0.108896
    81  H    0.065457
    82  H    0.306422
    83  H    0.311422
    84  H    0.110062
    85  H    0.121987
    86  H    0.137500
    87  H    0.109503
    88  H    0.078847
    89  H    0.104935
    90  H    0.141253
    91  H    0.107204
    92  H    0.067260
    93  H    0.075407
    94  H    0.076050
    95  H    0.089499
    96  H    0.068895
    97  H    0.087296
    98  H    0.094977
    99  H    0.102431
   100  H    0.123985
 Sum of Mulliken charges =  -0.00000

 Dipole moment (field-independent basis, Debye):
    X=              2.1137    Y=              0.2531    Z=              0.8977  Tot=              2.3103
 Quadrupole moment (field-independent basis, Debye-Ang):
   XX=           -279.8915   YY=           -258.1763   ZZ=           -279.3359
   XY=              2.0992   XZ=             43.3081   YZ=             -0.7020

 Normal termination of Gaussian 16 at Thu Aug  1 04:08:52 2019.
