 Gaussian 16, Revision A.03,
 Gaussian 16:  ES64L-G16RevA.03 25-Dec-2016

 -------------------------------------
 # td=(NStates=1) CAM-B3LYP/6-31G(d,p)
 -------------------------------------

 --
 TD
 --
 Symbolic Z-matrix:
 Charge =  0 Multiplicity = 1

                         Standard orientation:
 ---------------------------------------------------------------------
 Center     Atomic      Atomic             Coordinates (Angstroms)
 Number     Number       Type             X           Y           Z
 ---------------------------------------------------------------------
      1          8           0      -11.834212    0.154294   -1.542126
      2          8           0      -12.710610   -2.489618    1.522354
      3          8           0       10.554268   -1.265013   -1.916251
      4          8           0       14.354773   -0.912271   -0.102776
      5          6           0      -10.977056   -0.182027   -0.404564
      6          6           0      -11.662179   -1.270622   -1.190324
      7          6           0      -11.773873    0.333130    0.894501
      8          6           0      -12.908703   -1.888791   -0.865559
      9          6           0      -13.232396   -0.093273    0.997553
     10          6           0      -13.441467   -1.665161    0.649588
     11          6           0      -10.824683   -2.036485   -2.207904
     12          6           0       -9.480463    0.160994   -0.484889
     13          6           0      -10.969573    0.030361    2.199587
     14          6           0      -11.770949    1.845956    0.868555
     15          6           0       -8.730622   -0.820134    0.086231
     16          6           0       -7.283593   -0.589942    0.015348
     17          6           0       -6.386781   -1.775761    0.320869
     18          6           0       -6.681373    0.745168   -0.069895
     19          6           0       -5.310209    0.951513   -0.065406
     20          6           0       11.803506    0.040678    1.348318
     21          6           0       11.669362   -0.777862   -1.184105
     22          6           0       12.579839   -1.294628    1.600868
     23          6           0       13.321909   -1.832611    0.386178
     24          6           0       12.360037   -1.959146   -0.708498
     25          6           0       11.078285   -0.006148   -0.027249
     26          6           0       10.925109    0.245104    2.562484
     27          6           0       12.923097    1.299223    1.289389
     28          6           0       12.465445    0.095516   -2.175619
     29          6           0       -4.790460    2.264654   -0.240413
     30          6           0        9.930304    0.568928   -0.098674
     31          6           0       -3.407266    2.613401   -0.347819
     32          6           0        8.731041    1.030381   -0.373878
     33          6           0       -3.093857    4.017093   -0.722004
     34          6           0       -2.314058    1.610506   -0.197040
     35          6           0        7.503691    0.202553   -0.171146
     36          6           0        7.757812   -1.169984    0.351706
     37          6           0        6.316855    0.738677   -0.374622
     38          6           0       -0.975382    1.897678   -0.396055
     39          6           0        4.957866    0.139083   -0.138738
     40          6           0       -0.019841    0.958300   -0.092004
     41          6           0        3.808922    0.892231   -0.230934
     42          6           0        1.298105    1.305756   -0.153857
     43          6           0        2.480480    0.501869   -0.013784
     44          6           0        2.334431   -0.974883    0.414188
     45          1           0      -12.804148   -2.974041   -0.752745
     46          1           0      -13.747584   -1.554932   -1.619343
     47          1           0      -13.885993    0.140085    1.806990
     48          1           0      -13.877465    0.309711    0.303832
     49          1           0      -14.549694   -1.709656    0.810593
     50          1           0      -10.695641   -3.059297   -1.872935
     51          1           0      -11.296113   -2.172154   -3.284126
     52          1           0      -10.031249   -1.421654   -2.338286
     53          1           0       -9.172827    1.226083   -0.862380
     54          1           0      -10.009868    0.559247    2.046142
     55          1           0      -11.196170    0.571999    3.227319
     56          1           0      -11.070367   -1.044079    2.291093
     57          1           0      -12.141441    2.270374   -0.219934
     58          1           0      -12.529652    2.477137    1.481559
     59          1           0      -10.967751    2.444332    0.916066
     60          1           0      -11.731387   -2.509706    1.178280
     61          1           0       -9.037815   -1.654512    0.378499
     62          1           0       -5.907828   -2.356703   -0.414701
     63          1           0       -5.636978   -1.448870    1.050046
     64          1           0       -6.969448   -2.581299    0.753340
     65          1           0       -7.367753    1.633200   -0.117042
     66          1           0       -4.498113    0.144724    0.132681
     67          1           0       13.404867   -1.152717    2.467939
     68          1           0       11.867978   -2.061144    2.018946
     69          1           0       13.688554   -2.752357    0.500753
     70          1           0       12.895465   -2.241147   -1.574859
     71          1           0       11.569445   -2.805099   -0.564590
     72          1           0       11.595001    0.143272    3.411476
     73          1           0       10.570083    1.244749    2.613729
     74          1           0       10.158012   -0.394760    2.554483
     75          1           0       13.638928    1.182663    0.474650
     76          1           0       12.199174    2.202838    1.303349
     77          1           0       13.110314    1.154298    2.509408
     78          1           0       13.015042   -0.376266   -3.083293
     79          1           0       11.961092    0.999229   -2.626567
     80          1           0       13.257273    0.547911   -1.582681
     81          1           0       -5.545574    3.075097   -0.054869
     82          1           0       10.195522   -0.390133   -2.249059
     83          1           0       15.166698   -0.715849    0.627258
     84          1           0        8.635409    2.003081   -0.870142
     85          1           0       -2.622380    4.400187    0.111695
     86          1           0       -2.334703    3.870373   -1.597602
     87          1           0       -3.894366    4.485850   -1.226493
     88          1           0       -2.661057    0.695980    0.561837
     89          1           0        7.001884   -1.958119    0.285302
     90          1           0        8.595360   -1.542959   -0.310014
     91          1           0        8.103084   -1.066257    1.455590
     92          1           0        6.439624    1.818259   -0.450213
     93          1           0       -0.679394    2.749344   -0.850870
     94          1           0        5.130446   -0.836537    0.380531
     95          1           0       -0.150201   -0.138939    0.269790
     96          1           0        4.153375    1.921861   -0.412933
     97          1           0        1.616874    2.236099   -0.423014
     98          1           0        1.322733   -1.413947    0.261520
     99          1           0        2.970994   -1.661815   -0.275928
    100          1           0        2.568095   -1.319960    1.458002
 ---------------------------------------------------------------------

 SCF Done:  E(RCAM-B3LYP) =  -1857.27785567     A.U. after   17 cycles

 Excitation energies and oscillator strengths:

 Excited State   1:      Singlet-A      1.8121 eV  684.19 nm  f=2.5578  <S**2>=0.000
     163 ->166        -0.11248
     164 ->165         0.70707
     164 <-165        -0.13802
 This state for optimization and/or second-order correction.
 Total Energy, E(TD-HF/TD-DFT) =  -1857.21126108
 Copying the excited state density for this state as the 1-particle RhoCI density.

 The electronic state is 1-A.
 Alpha  occ. eigenvalues --  -19.23214 -19.22657 -19.21692 -19.20554 -10.33174
 Alpha  occ. eigenvalues --  -10.32142 -10.31409 -10.31377 -10.30207 -10.29001
 Alpha  occ. eigenvalues --  -10.28749 -10.28336 -10.28314 -10.27964 -10.27712
 Alpha  occ. eigenvalues --  -10.27668 -10.27663 -10.27602 -10.27095 -10.27040
 Alpha  occ. eigenvalues --  -10.26977 -10.26860 -10.26850 -10.26805 -10.26607
 Alpha  occ. eigenvalues --  -10.26578 -10.26569 -10.26097 -10.26089 -10.25955
 Alpha  occ. eigenvalues --  -10.25797 -10.25776 -10.25549 -10.25480 -10.25332
 Alpha  occ. eigenvalues --  -10.25281 -10.25031 -10.25031 -10.24842 -10.24718
 Alpha  occ. eigenvalues --  -10.24394 -10.24175 -10.23455 -10.23414  -1.13062
 Alpha  occ. eigenvalues --   -1.09981  -1.09513  -1.07289  -0.92583  -0.92140
 Alpha  occ. eigenvalues --   -0.91625  -0.90844  -0.89935  -0.89213  -0.87713
 Alpha  occ. eigenvalues --   -0.87059  -0.86739  -0.85782  -0.84888  -0.82802
 Alpha  occ. eigenvalues --   -0.82102  -0.80589  -0.80440  -0.78039  -0.76877
 Alpha  occ. eigenvalues --   -0.76760  -0.76462  -0.76216  -0.75405  -0.74799
 Alpha  occ. eigenvalues --   -0.74456  -0.74161  -0.72459  -0.70631  -0.69969
 Alpha  occ. eigenvalues --   -0.68696  -0.66452  -0.66284  -0.64378  -0.63989
 Alpha  occ. eigenvalues --   -0.63639  -0.62035  -0.60553  -0.60246  -0.59640
 Alpha  occ. eigenvalues --   -0.58958  -0.58009  -0.57449  -0.57213  -0.56352
 Alpha  occ. eigenvalues --   -0.55705  -0.55380  -0.55139  -0.54892  -0.53845
 Alpha  occ. eigenvalues --   -0.53622  -0.53093  -0.52973  -0.52455  -0.52216
 Alpha  occ. eigenvalues --   -0.51665  -0.51402  -0.50848  -0.50666  -0.50236
 Alpha  occ. eigenvalues --   -0.49682  -0.49247  -0.49004  -0.48595  -0.47973
 Alpha  occ. eigenvalues --   -0.47840  -0.47702  -0.47570  -0.47242  -0.46672
 Alpha  occ. eigenvalues --   -0.46535  -0.46253  -0.46141  -0.45626  -0.45215
 Alpha  occ. eigenvalues --   -0.44826  -0.44780  -0.44302  -0.43954  -0.43796
 Alpha  occ. eigenvalues --   -0.43552  -0.43040  -0.42987  -0.42944  -0.41779
 Alpha  occ. eigenvalues --   -0.41692  -0.41492  -0.41317  -0.41102  -0.40826
 Alpha  occ. eigenvalues --   -0.40486  -0.40424  -0.40407  -0.40320  -0.39839
 Alpha  occ. eigenvalues --   -0.39199  -0.39133  -0.38785  -0.38693  -0.38314
 Alpha  occ. eigenvalues --   -0.38161  -0.37920  -0.37888  -0.36991  -0.36464
 Alpha  occ. eigenvalues --   -0.36142  -0.35816  -0.34638  -0.34332  -0.33728
 Alpha  occ. eigenvalues --   -0.33644  -0.32181  -0.31822  -0.31164  -0.29965
 Alpha  occ. eigenvalues --   -0.29045  -0.27705  -0.24497  -0.18504
 Alpha virt. eigenvalues --   -0.07075  -0.00856   0.03161   0.05940   0.07104
 Alpha virt. eigenvalues --    0.08014   0.08127   0.09522   0.10469   0.11415
 Alpha virt. eigenvalues --    0.11452   0.12382   0.13354   0.13881   0.14249

 Mulliken charges:
               1
     1  O   -0.512558
     2  O   -0.533877
     3  O   -0.555081
     4  O   -0.576044
     5  C    0.182181
     6  C    0.226783
     7  C    0.048520
     8  C   -0.228818
     9  C   -0.191917
    10  C    0.131627
    11  C   -0.308144
    12  C   -0.120119
    13  C   -0.293766
    14  C   -0.323184
    15  C   -0.007069
    16  C    0.048179
    17  C   -0.383627
    18  C   -0.112406
    19  C   -0.052277
    20  C   -0.013544
    21  C    0.256052
    22  C   -0.179392
    23  C    0.186113
    24  C   -0.214765
    25  C   -0.033666
    26  C   -0.303424
    27  C   -0.294734
    28  C   -0.321131
    29  C   -0.140929
    30  C    0.125462
    31  C    0.045941
    32  C   -0.282842
    33  C   -0.361574
    34  C   -0.118690
    35  C    0.121273
    36  C   -0.387996
    37  C   -0.133656
    38  C   -0.073254
    39  C   -0.086888
    40  C   -0.066174
    41  C   -0.118261
    42  C   -0.096473
    43  C    0.087111
    44  C   -0.382336
    45  H    0.105718
    46  H    0.120938
    47  H    0.102656
    48  H    0.106962
    49  H    0.095439
    50  H    0.101014
    51  H    0.103746
    52  H    0.127102
    53  H    0.130531
    54  H    0.106931
    55  H    0.091689
    56  H    0.083942
    57  H    0.079030
    58  H    0.094443
    59  H    0.102771
    60  H    0.308537
    61  H    0.066615
    62  H    0.133003
    63  H    0.124638
    64  H    0.102906
    65  H    0.083919
    66  H    0.093321
    67  H    0.057848
    68  H    0.098344
    69  H    0.094210
    70  H    0.117931
    71  H    0.121408
    72  H    0.099564
    73  H    0.109413
    74  H    0.117794
    75  H    0.135168
    76  H    0.097647
    77  H    0.070413
    78  H    0.106948
    79  H    0.087334
    80  H    0.127434
    81  H    0.086006
    82  H    0.306473
    83  H    0.311661
    84  H    0.109010
    85  H    0.145613
    86  H    0.111150
    87  H    0.122439
    88  H    0.076519
    89  H    0.109895
    90  H    0.139523
    91  H    0.109861
    92  H    0.069760
    93  H    0.093113
    94  H    0.091719
    95  H    0.086243
    96  H    0.085101
    97  H    0.066685
    98  H    0.097283
    99  H    0.106378
   100  H    0.117631
 Sum of Mulliken charges =  -0.00000

 Dipole moment (field-independent basis, Debye):
    X=              3.3291    Y=             -0.0691    Z=              1.6384  Tot=              3.7111
 Quadrupole moment (field-independent basis, Debye-Ang):
   XX=           -253.5236   YY=           -257.6808   ZZ=           -279.0439
   XY=             -1.0042   XZ=             25.2361   YZ=             -3.2705

 Normal termination of Gaussian 16 at Fri Aug  2 12:39:23 2019.
