 Gaussian 16, Revision A.03,
 Gaussian 16:  ES64L-G16RevA.03 25-Dec-2016

 -------------------------------------
 # td=(NStates=1) CAM-B3LYP/6-31G(d,p)
 -------------------------------------

 --
 TD
 --
 Symbolic Z-matrix:
 Charge =  0 Multiplicity = 1

                         Standard orientation:
 ---------------------------------------------------------------------
 Center     Atomic      Atomic             Coordinates (Angstroms)
 Number     Number       Type             X           Y           Z
 ---------------------------------------------------------------------
      1          8           0      -11.792103    0.389854   -1.518478
      2          8           0      -13.067983   -2.296831    1.610690
      3          8           0       10.616356   -1.008176   -2.024902
      4          8           0       14.493501   -1.099218    0.175734
      5          6           0      -11.117497   -0.137380   -0.266452
      6          6           0      -11.796988   -1.062971   -1.187834
      7          6           0      -11.729776    0.366129    1.021548
      8          6           0      -13.243928   -1.664919   -0.877431
      9          6           0      -13.226623    0.051426    1.145605
     10          6           0      -13.634114   -1.409858    0.629394
     11          6           0      -11.023169   -1.933724   -2.167133
     12          6           0       -9.599564    0.063052   -0.440634
     13          6           0      -10.940483   -0.179716    2.302494
     14          6           0      -11.648827    1.954416    1.055172
     15          6           0       -8.677370   -0.725330    0.144100
     16          6           0       -7.216781   -0.597012    0.108998
     17          6           0       -6.425308   -1.816874    0.280508
     18          6           0       -6.695576    0.668318   -0.146676
     19          6           0       -5.355423    0.842784   -0.150112
     20          6           0       11.818157    0.208766    1.429727
     21          6           0       11.731962   -0.617977   -1.126295
     22          6           0       12.478458   -1.154884    1.676949
     23          6           0       13.252082   -1.791139    0.494928
     24          6           0       12.408587   -1.857070   -0.735846
     25          6           0       11.182741    0.129730    0.140825
     26          6           0       10.747595    0.605345    2.536454
     27          6           0       12.931821    1.267752    1.414172
     28          6           0       12.650545    0.363308   -1.850217
     29          6           0       -4.641145    2.044312   -0.382831
     30          6           0        9.938693    0.471480    0.027698
     31          6           0       -3.348569    2.444053   -0.555516
     32          6           0        8.668072    0.890771   -0.264575
     33          6           0       -2.954677    3.844878   -0.591446
     34          6           0       -2.231904    1.530829   -0.482289
     35          6           0        7.537937   -0.025658   -0.213905
     36          6           0        7.755850   -1.449936    0.008081
     37          6           0        6.327926    0.571687   -0.328151
     38          6           0       -0.835380    1.802513   -0.383452
     39          6           0        4.982637    0.115410   -0.267684
     40          6           0        0.025799    0.780842   -0.263961
     41          6           0        3.851741    0.864570   -0.287998
     42          6           0        1.443174    1.106707   -0.308357
     43          6           0        2.578879    0.216835   -0.284926
     44          6           0        2.425944   -1.245766    0.062079
     45          1           0      -13.077185   -2.780359   -1.010445
     46          1           0      -13.896837   -1.456984   -1.507533
     47          1           0      -13.722218    0.263210    2.000695
     48          1           0      -13.711975    0.572896    0.301466
     49          1           0      -14.907927   -1.391827    0.722962
     50          1           0      -10.291894   -2.625418   -1.522876
     51          1           0      -11.816147   -2.381429   -2.883679
     52          1           0      -10.451472   -1.050176   -2.801928
     53          1           0       -9.399426    0.768814   -1.320715
     54          1           0       -9.945966    0.247712    2.335865
     55          1           0      -11.436212    0.305050    3.136924
     56          1           0      -10.907146   -1.344365    2.547575
     57          1           0      -12.103806    2.393592    0.275915
     58          1           0      -12.094964    2.356197    1.853141
     59          1           0      -10.576284    2.358342    1.354857
     60          1           0      -12.176332   -2.613126    1.287268
     61          1           0       -9.169997   -1.539135    0.813822
     62          1           0       -6.072722   -2.082499   -0.885733
     63          1           0       -5.687596   -1.751278    1.003738
     64          1           0       -6.904501   -2.664397    0.713448
     65          1           0       -7.460279    1.607042   -0.258071
     66          1           0       -4.670191   -0.004091   -0.226908
     67          1           0       13.366487   -1.023371    2.551057
     68          1           0       11.716689   -2.058200    2.049416
     69          1           0       13.371810   -2.954739    0.793052
     70          1           0       12.833228   -2.333421   -1.618159
     71          1           0       11.562928   -2.703636   -0.560668
     72          1           0       11.413292    0.876380    3.492236
     73          1           0       10.282993    1.493637    2.335527
     74          1           0       10.155108   -0.264182    2.615899
     75          1           0       13.649609    1.270884    0.326775
     76          1           0       12.545622    2.263607    1.456038
     77          1           0       13.787845    0.996149    2.378709
     78          1           0       12.927542   -0.060048   -2.748942
     79          1           0       12.206162    1.462555   -2.061365
     80          1           0       13.747166    0.445927   -1.463989
     81          1           0       -5.422287    2.737257   -0.553296
     82          1           0       10.091487   -0.191172   -2.482899
     83          1           0       14.808821   -0.564700    1.179287
     84          1           0        8.564491    2.051906   -0.548780
     85          1           0       -2.368151    4.208052    0.196942
     86          1           0       -2.333743    4.025915   -1.396666
     87          1           0       -3.912292    4.590063   -0.714191
     88          1           0       -2.322556    0.553209   -0.507527
     89          1           0        6.868637   -1.966843   -0.330792
     90          1           0        8.580482   -1.834293   -0.561454
     91          1           0        7.996726   -1.672397    0.978727
     92          1           0        6.609558    1.669241   -0.853989
     93          1           0       -0.398019    2.810738   -0.409186
     94          1           0        5.054152   -1.039612   -0.296100
     95          1           0       -0.198261   -0.275517   -0.278666
     96          1           0        3.976370    1.956646   -0.419456
     97          1           0        1.599905    2.154385   -0.377062
     98          1           0        1.406077   -1.919429    0.001675
     99          1           0        3.173469   -1.759136   -0.680241
    100          1           0        2.768561   -1.232876    1.143858
 ---------------------------------------------------------------------

 SCF Done:  E(RCAM-B3LYP) =  -1857.20986853     A.U. after   15 cycles

 Excitation energies and oscillator strengths:

 Excited State   1:      Singlet-A      2.1000 eV  590.41 nm  f=2.9828  <S**2>=0.000
     163 ->166         0.12933
     164 ->165         0.69925
     164 <-165        -0.10326
 This state for optimization and/or second-order correction.
 Total Energy, E(TD-HF/TD-DFT) =  -1857.13269657
 Copying the excited state density for this state as the 1-particle RhoCI density.

 The electronic state is 1-A.
 Alpha  occ. eigenvalues --  -19.23792 -19.22029 -19.21530 -19.21352 -10.32958
 Alpha  occ. eigenvalues --  -10.32906 -10.32781 -10.32430 -10.31947 -10.29655
 Alpha  occ. eigenvalues --  -10.28908 -10.28812 -10.28407 -10.28332 -10.28238
 Alpha  occ. eigenvalues --  -10.28139 -10.27993 -10.27615 -10.27129 -10.27113
 Alpha  occ. eigenvalues --  -10.27072 -10.26811 -10.26808 -10.26797 -10.26734
 Alpha  occ. eigenvalues --  -10.26659 -10.26534 -10.26395 -10.26368 -10.26314
 Alpha  occ. eigenvalues --  -10.26283 -10.26222 -10.26202 -10.26097 -10.25604
 Alpha  occ. eigenvalues --  -10.25580 -10.25350 -10.25300 -10.25256 -10.25252
 Alpha  occ. eigenvalues --  -10.24817 -10.23903 -10.23704 -10.23358  -1.11060
 Alpha  occ. eigenvalues --   -1.08247  -1.07206  -1.06380  -0.94440  -0.92340
 Alpha  occ. eigenvalues --   -0.91859  -0.91179  -0.90112  -0.89508  -0.87778
 Alpha  occ. eigenvalues --   -0.87239  -0.85809  -0.85062  -0.84589  -0.82773
 Alpha  occ. eigenvalues --   -0.82191  -0.80415  -0.79780  -0.78148  -0.77513
 Alpha  occ. eigenvalues --   -0.77002  -0.76976  -0.76263  -0.75865  -0.75813
 Alpha  occ. eigenvalues --   -0.75023  -0.74458  -0.72617  -0.70305  -0.69188
 Alpha  occ. eigenvalues --   -0.67661  -0.66477  -0.65522  -0.65181  -0.64034
 Alpha  occ. eigenvalues --   -0.63506  -0.61976  -0.60893  -0.59637  -0.58971
 Alpha  occ. eigenvalues --   -0.57861  -0.57342  -0.56950  -0.56170  -0.55897
 Alpha  occ. eigenvalues --   -0.55545  -0.54838  -0.54161  -0.53576  -0.53387
 Alpha  occ. eigenvalues --   -0.53223  -0.52836  -0.52489  -0.52085  -0.51590
 Alpha  occ. eigenvalues --   -0.51254  -0.50677  -0.50158  -0.49916  -0.49654
 Alpha  occ. eigenvalues --   -0.49471  -0.49281  -0.49125  -0.48903  -0.48741
 Alpha  occ. eigenvalues --   -0.48494  -0.47958  -0.47654  -0.47155  -0.46688
 Alpha  occ. eigenvalues --   -0.46316  -0.46037  -0.45406  -0.45211  -0.45004
 Alpha  occ. eigenvalues --   -0.44587  -0.44415  -0.44005  -0.43955  -0.43820
 Alpha  occ. eigenvalues --   -0.43672  -0.42851  -0.42780  -0.42402  -0.42141
 Alpha  occ. eigenvalues --   -0.41846  -0.41640  -0.41252  -0.41108  -0.40886
 Alpha  occ. eigenvalues --   -0.40692  -0.40283  -0.40033  -0.39839  -0.39686
 Alpha  occ. eigenvalues --   -0.39373  -0.39254  -0.39180  -0.39060  -0.38988
 Alpha  occ. eigenvalues --   -0.38927  -0.38555  -0.37498  -0.36896  -0.36327
 Alpha  occ. eigenvalues --   -0.36034  -0.35907  -0.34919  -0.34749  -0.33645
 Alpha  occ. eigenvalues --   -0.33441  -0.32573  -0.31978  -0.30888  -0.30128
 Alpha  occ. eigenvalues --   -0.29849  -0.27768  -0.23686  -0.19118
 Alpha virt. eigenvalues --   -0.05962  -0.00498   0.03719   0.05652   0.06286
 Alpha virt. eigenvalues --    0.07406   0.09374   0.10122   0.10304   0.11348
 Alpha virt. eigenvalues --    0.11905   0.12219   0.12539   0.12822   0.13214

 Mulliken charges:
               1
     1  O   -0.528793
     2  O   -0.542906
     3  O   -0.592821
     4  O   -0.550178
     5  C    0.188059
     6  C    0.232677
     7  C    0.019993
     8  C   -0.200538
     9  C   -0.166027
    10  C    0.141437
    11  C   -0.324481
    12  C   -0.101201
    13  C   -0.315635
    14  C   -0.309907
    15  C   -0.096863
    16  C    0.077871
    17  C   -0.361324
    18  C   -0.099031
    19  C   -0.076224
    20  C    0.017583
    21  C    0.299448
    22  C   -0.197508
    23  C    0.189498
    24  C   -0.195435
    25  C   -0.049348
    26  C   -0.284384
    27  C   -0.286889
    28  C   -0.324768
    29  C   -0.134068
    30  C    0.120964
    31  C    0.115489
    32  C   -0.272174
    33  C   -0.379023
    34  C   -0.116453
    35  C    0.118884
    36  C   -0.381716
    37  C   -0.108159
    38  C   -0.078727
    39  C   -0.106951
    40  C   -0.058040
    41  C   -0.093172
    42  C   -0.139632
    43  C    0.077837
    44  C   -0.354787
    45  H    0.098440
    46  H    0.125973
    47  H    0.110491
    48  H    0.097139
    49  H    0.056828
    50  H    0.107041
    51  H    0.107969
    52  H    0.119677
    53  H    0.115126
    54  H    0.116603
    55  H    0.105102
    56  H    0.082846
    57  H    0.131785
    58  H    0.112332
    59  H    0.079877
    60  H    0.303419
    61  H    0.071337
    62  H    0.110216
    63  H    0.133005
    64  H    0.111226
    65  H    0.096372
    66  H    0.080121
    67  H    0.055351
    68  H    0.085280
    69  H    0.073509
    70  H    0.125149
    71  H    0.100118
    72  H    0.078489
    73  H    0.128819
    74  H    0.118695
    75  H    0.094543
    76  H    0.117959
    77  H    0.041139
    78  H    0.117006
    79  H    0.082957
    80  H    0.132627
    81  H    0.063959
    82  H    0.316990
    83  H    0.303667
    84  H    0.105056
    85  H    0.133533
    86  H    0.130080
    87  H    0.084700
    88  H    0.065572
    89  H    0.104725
    90  H    0.146482
    91  H    0.128178
    92  H    0.045280
    93  H    0.083676
    94  H    0.081203
    95  H    0.085873
    96  H    0.100687
    97  H    0.071818
    98  H    0.102510
    99  H    0.111138
   100  H    0.137731
 Sum of Mulliken charges =  -0.00000

 Dipole moment (field-independent basis, Debye):
    X=              3.4781    Y=             -0.5174    Z=              1.0152  Tot=              3.6600
 Quadrupole moment (field-independent basis, Debye-Ang):
   XX=           -289.1905   YY=           -259.3720   ZZ=           -276.6569
   XY=             18.4540   XZ=             22.8200   YZ=              0.3198

 Normal termination of Gaussian 16 at Wed Jul 31 13:03:53 2019.
