 Gaussian 16, Revision A.03,
 Gaussian 16:  ES64L-G16RevA.03 25-Dec-2016

 -------------------------------------
 # td=(NStates=1) CAM-B3LYP/6-31G(d,p)
 -------------------------------------

 --
 TD
 --
 Symbolic Z-matrix:
 Charge =  0 Multiplicity = 1

                         Standard orientation:
 ---------------------------------------------------------------------
 Center     Atomic      Atomic             Coordinates (Angstroms)
 Number     Number       Type             X           Y           Z
 ---------------------------------------------------------------------
      1          8           0      -11.801655    0.274448   -1.470277
      2          8           0      -13.145783   -2.567186    1.325298
      3          8           0       10.784178   -1.035727   -2.086411
      4          8           0       14.589659   -1.014553   -0.081933
      5          6           0      -11.109895   -0.139814   -0.337197
      6          6           0      -11.693988   -1.097970   -1.253003
      7          6           0      -11.669587    0.310139    1.043337
      8          6           0      -13.058339   -1.737004   -0.867518
      9          6           0      -13.179193   -0.047332    1.020394
     10          6           0      -13.585687   -1.470437    0.544633
     11          6           0      -11.006100   -1.876660   -2.276623
     12          6           0       -9.665147    0.123403   -0.360686
     13          6           0      -10.957000   -0.352908    2.295505
     14          6           0      -11.698215    1.858655    1.217670
     15          6           0       -8.676142   -0.749111   -0.067548
     16          6           0       -7.143197   -0.590153   -0.074207
     17          6           0       -6.478170   -1.778884    0.162791
     18          6           0       -6.578116    0.641487   -0.125851
     19          6           0       -5.146976    0.909889   -0.050806
     20          6           0       11.849872   -0.044461    1.337290
     21          6           0       11.690576   -0.616874   -1.166153
     22          6           0       12.663917   -1.408119    1.624635
     23          6           0       13.398069   -1.807231    0.267548
     24          6           0       12.417300   -1.794686   -0.925547
     25          6           0       11.114281   -0.080793    0.070566
     26          6           0       10.895634    0.036403    2.585337
     27          6           0       12.914197    1.100831    1.483174
     28          6           0       12.590721    0.428950   -1.849765
     29          6           0       -4.673116    2.189075   -0.319739
     30          6           0        9.899381    0.542539   -0.007671
     31          6           0       -3.359094    2.562643   -0.443020
     32          6           0        8.723058    1.003201   -0.331462
     33          6           0       -3.086517    3.959195   -0.726800
     34          6           0       -2.223047    1.734487   -0.037519
     35          6           0        7.504732    0.169878   -0.149450
     36          6           0        7.558420   -1.310604   -0.030139
     37          6           0        6.244537    0.815611   -0.206264
     38          6           0       -0.977557    1.946251   -0.212132
     39          6           0        4.949993    0.264115   -0.131077
     40          6           0        0.046355    0.945427   -0.013312
     41          6           0        3.765388    0.992729   -0.170906
     42          6           0        1.402389    1.272893   -0.160877
     43          6           0        2.404008    0.452762   -0.017023
     44          6           0        2.360936   -1.121268    0.254497
     45          1           0      -12.877024   -2.930819   -0.961984
     46          1           0      -13.810343   -1.422187   -1.507253
     47          1           0      -13.472748    0.001192    2.078766
     48          1           0      -13.730427    0.669480    0.600077
     49          1           0      -14.853159   -1.359304    0.716585
     50          1           0      -10.988339   -3.045430   -2.359955
     51          1           0      -11.517601   -1.789116   -3.325098
     52          1           0      -10.091448   -1.336180   -2.445528
     53          1           0       -9.337824    1.025957   -0.981714
     54          1           0       -9.974543    0.024414    2.268779
     55          1           0      -11.382022    0.169653    3.158431
     56          1           0      -11.025865   -1.425698    2.378728
     57          1           0      -12.373149    2.325116    0.313890
     58          1           0      -12.262220    1.976485    2.132903
     59          1           0      -10.702414    2.286239    1.181843
     60          1           0      -12.282813   -2.642169    0.912977
     61          1           0       -8.950657   -1.777216    0.361574
     62          1           0       -6.290944   -2.512115   -0.902898
     63          1           0       -5.465383   -1.553429    0.627232
     64          1           0       -7.063329   -2.466741    1.000500
     65          1           0       -7.286066    1.280734   -0.569410
     66          1           0       -4.627309    0.234808    0.152384
     67          1           0       13.252174   -1.232347    2.467849
     68          1           0       12.080672   -2.371778    1.895218
     69          1           0       13.879781   -2.816003    0.500002
     70          1           0       13.038835   -2.082090   -1.923395
     71          1           0       11.716303   -2.814355   -0.487906
     72          1           0       11.471697   -0.064695    3.601821
     73          1           0       10.058240    0.753418    2.681950
     74          1           0       10.230788   -0.706536    2.412330
     75          1           0       13.608123    1.286283    0.758875
     76          1           0       12.487667    2.125581    1.307259
     77          1           0       13.177537    1.130210    2.569785
     78          1           0       12.597832    0.082804   -2.812272
     79          1           0       11.968617    1.354265   -1.950848
     80          1           0       13.697882    0.604339   -1.588878
     81          1           0       -5.309179    2.956449   -0.636178
     82          1           0       10.214527   -0.315427   -2.248029
     83          1           0       15.276995   -0.972108    0.701149
     84          1           0        8.818107    2.008008   -0.696185
     85          1           0       -2.600155    4.605481    0.226778
     86          1           0       -2.505942    4.135650   -1.521101
     87          1           0       -4.007512    4.605520   -0.925518
     88          1           0       -2.621270    0.674586    0.212063
     89          1           0        6.608357   -1.555558   -0.014253
     90          1           0        8.244161   -1.715485   -0.686100
     91          1           0        7.767106   -1.479680    0.941501
     92          1           0        6.173108    1.736806   -0.368025
     93          1           0       -0.675606    2.975501   -0.529401
     94          1           0        4.846752   -0.785300    0.084074
     95          1           0       -0.169377   -0.091057    0.147766
     96          1           0        4.033774    2.108222   -0.583649
     97          1           0        1.772656    2.288884   -0.044909
     98          1           0        1.308183   -1.546473    0.390637
     99          1           0        2.792540   -1.521809   -0.776632
    100          1           0        3.148982   -1.768354    0.999477
 ---------------------------------------------------------------------

 SCF Done:  E(RCAM-B3LYP) =  -1857.17379701     A.U. after   16 cycles

 Excitation energies and oscillator strengths:

 Excited State   1:      Singlet-A      1.9782 eV  626.75 nm  f=2.7338  <S**2>=0.000
     163 ->166         0.10850
     164 ->165         0.70791
     164 <-165        -0.13354
 This state for optimization and/or second-order correction.
 Total Energy, E(TD-HF/TD-DFT) =  -1857.10109949
 Copying the excited state density for this state as the 1-particle RhoCI density.

 The electronic state is 1-A.
 Alpha  occ. eigenvalues --  -19.23202 -19.21533 -19.21263 -19.21228 -10.32508
 Alpha  occ. eigenvalues --  -10.32093 -10.31905 -10.31736 -10.30753 -10.29444
 Alpha  occ. eigenvalues --  -10.28657 -10.28576 -10.28512 -10.28347 -10.27757
 Alpha  occ. eigenvalues --  -10.27682 -10.27564 -10.27487 -10.27403 -10.27186
 Alpha  occ. eigenvalues --  -10.27144 -10.27126 -10.27104 -10.27071 -10.26537
 Alpha  occ. eigenvalues --  -10.26521 -10.26408 -10.26394 -10.26079 -10.26004
 Alpha  occ. eigenvalues --  -10.25983 -10.25957 -10.25873 -10.25852 -10.25808
 Alpha  occ. eigenvalues --  -10.25363 -10.25346 -10.24573 -10.24481 -10.24319
 Alpha  occ. eigenvalues --  -10.24164 -10.23669 -10.23474 -10.22790  -1.19012
 Alpha  occ. eigenvalues --   -1.13790  -1.10894  -1.06247  -0.93367  -0.93155
 Alpha  occ. eigenvalues --   -0.92252  -0.91604  -0.90887  -0.90358  -0.87729
 Alpha  occ. eigenvalues --   -0.86769  -0.86371  -0.86088  -0.85090  -0.83724
 Alpha  occ. eigenvalues --   -0.82665  -0.81173  -0.80905  -0.79041  -0.77896
 Alpha  occ. eigenvalues --   -0.76763  -0.76571  -0.76550  -0.75694  -0.75515
 Alpha  occ. eigenvalues --   -0.75308  -0.74505  -0.73606  -0.71020  -0.70025
 Alpha  occ. eigenvalues --   -0.68544  -0.67736  -0.65792  -0.65771  -0.64581
 Alpha  occ. eigenvalues --   -0.64228  -0.62098  -0.61529  -0.60886  -0.59605
 Alpha  occ. eigenvalues --   -0.59529  -0.59025  -0.57767  -0.56889  -0.56745
 Alpha  occ. eigenvalues --   -0.56480  -0.55774  -0.55496  -0.54859  -0.54699
 Alpha  occ. eigenvalues --   -0.54051  -0.53777  -0.53603  -0.52489  -0.52289
 Alpha  occ. eigenvalues --   -0.51979  -0.51102  -0.51014  -0.50458  -0.50269
 Alpha  occ. eigenvalues --   -0.49916  -0.49337  -0.48730  -0.48486  -0.48160
 Alpha  occ. eigenvalues --   -0.47920  -0.47747  -0.47403  -0.46880  -0.46585
 Alpha  occ. eigenvalues --   -0.46241  -0.46185  -0.45936  -0.45735  -0.45343
 Alpha  occ. eigenvalues --   -0.45186  -0.44853  -0.44561  -0.44200  -0.43986
 Alpha  occ. eigenvalues --   -0.43601  -0.43451  -0.43406  -0.43155  -0.42732
 Alpha  occ. eigenvalues --   -0.42659  -0.42146  -0.41781  -0.41363  -0.41187
 Alpha  occ. eigenvalues --   -0.41031  -0.40962  -0.40595  -0.40054  -0.39787
 Alpha  occ. eigenvalues --   -0.39588  -0.39503  -0.39186  -0.38678  -0.38595
 Alpha  occ. eigenvalues --   -0.38532  -0.38244  -0.37990  -0.37849  -0.37024
 Alpha  occ. eigenvalues --   -0.36725  -0.36298  -0.35349  -0.34579  -0.33995
 Alpha  occ. eigenvalues --   -0.33470  -0.32604  -0.32308  -0.30963  -0.30798
 Alpha  occ. eigenvalues --   -0.28695  -0.28189  -0.24793  -0.19065
 Alpha virt. eigenvalues --   -0.06919  -0.00300   0.02883   0.05819   0.07212
 Alpha virt. eigenvalues --    0.09247   0.09416   0.10606   0.10782   0.11475
 Alpha virt. eigenvalues --    0.12360   0.12440   0.12931   0.13037   0.13453

 Mulliken charges:
               1
     1  O   -0.489884
     2  O   -0.520164
     3  O   -0.533342
     4  O   -0.575384
     5  C    0.242626
     6  C    0.251406
     7  C   -0.019445
     8  C   -0.237488
     9  C   -0.175102
    10  C    0.147144
    11  C   -0.350732
    12  C   -0.150379
    13  C   -0.310294
    14  C   -0.306017
    15  C   -0.071968
    16  C    0.110372
    17  C   -0.372852
    18  C   -0.093345
    19  C   -0.002792
    20  C    0.004688
    21  C    0.264366
    22  C   -0.181798
    23  C    0.153720
    24  C   -0.155999
    25  C   -0.006897
    26  C   -0.310669
    27  C   -0.293779
    28  C   -0.328517
    29  C   -0.106362
    30  C    0.069893
    31  C    0.089732
    32  C   -0.264827
    33  C   -0.382473
    34  C   -0.088907
    35  C    0.046599
    36  C   -0.333864
    37  C   -0.057271
    38  C   -0.072813
    39  C   -0.081629
    40  C   -0.105248
    41  C   -0.143508
    42  C   -0.113045
    43  C    0.119824
    44  C   -0.367107
    45  H    0.083262
    46  H    0.127166
    47  H    0.095214
    48  H    0.109797
    49  H    0.058515
    50  H    0.114208
    51  H    0.109973
    52  H    0.123848
    53  H    0.102767
    54  H    0.118960
    55  H    0.102119
    56  H    0.109068
    57  H    0.098489
    58  H    0.113545
    59  H    0.108995
    60  H    0.302741
    61  H    0.069054
    62  H    0.092892
    63  H    0.111162
    64  H    0.093517
    65  H    0.076292
    66  H    0.026952
    67  H    0.094855
    68  H    0.090921
    69  H    0.074265
    70  H    0.105011
    71  H    0.070023
    72  H    0.082826
    73  H    0.101933
    74  H    0.114799
    75  H    0.126659
    76  H    0.086568
    77  H    0.093310
    78  H    0.123952
    79  H    0.078626
    80  H    0.143716
    81  H    0.079884
    82  H    0.292877
    83  H    0.306267
    84  H    0.120179
    85  H    0.095373
    86  H    0.135328
    87  H    0.099564
    88  H    0.063708
    89  H    0.107318
    90  H    0.139773
    91  H    0.130728
    92  H    0.043072
    93  H    0.089868
    94  H    0.069894
    95  H    0.086920
    96  H    0.072976
    97  H    0.097061
    98  H    0.108630
    99  H    0.117933
   100  H    0.110180
 Sum of Mulliken charges =  -0.00000

 Dipole moment (field-independent basis, Debye):
    X=              2.6531    Y=              0.2501    Z=              0.7486  Tot=              2.7680
 Quadrupole moment (field-independent basis, Debye-Ang):
   XX=           -290.1240   YY=           -261.8526   ZZ=           -275.4295
   XY=             -2.7351   XZ=             34.4202   YZ=             -3.0411

 Normal termination of Gaussian 16 at Wed Jul 31 18:29:37 2019.
