 Gaussian 16, Revision A.03,
 Gaussian 16:  ES64L-G16RevA.03 25-Dec-2016

 -------------------------------------
 # td=(NStates=1) CAM-B3LYP/6-31G(d,p)
 -------------------------------------

 --
 TD
 --
 Symbolic Z-matrix:
 Charge =  0 Multiplicity = 1

                         Standard orientation:
 ---------------------------------------------------------------------
 Center     Atomic      Atomic             Coordinates (Angstroms)
 Number     Number       Type             X           Y           Z
 ---------------------------------------------------------------------
      1          8           0      -11.662070    0.327019   -1.550784
      2          8           0      -13.196025   -2.415242    1.310839
      3          8           0       10.571888   -1.174422   -1.997518
      4          8           0       14.372433   -1.008776   -0.206827
      5          6           0      -11.052367   -0.146660   -0.289549
      6          6           0      -11.732613   -1.082505   -1.229967
      7          6           0      -11.808401    0.448752    1.032871
      8          6           0      -13.172845   -1.575296   -0.927867
      9          6           0      -13.301409    0.083369    0.952382
     10          6           0      -13.640567   -1.276910    0.517443
     11          6           0      -10.918535   -1.838867   -2.194296
     12          6           0       -9.591536    0.079734   -0.216167
     13          6           0      -11.154700   -0.115359    2.337286
     14          6           0      -11.839661    2.003131    0.957037
     15          6           0       -8.650419   -0.880203    0.107736
     16          6           0       -7.226636   -0.697687    0.183944
     17          6           0       -6.422490   -1.881389    0.454108
     18          6           0       -6.610325    0.394352   -0.209539
     19          6           0       -5.226789    0.725494   -0.268182
     20          6           0       11.978065    0.126468    1.292084
     21          6           0       11.670549   -0.618775   -1.208622
     22          6           0       12.633650   -1.188025    1.538666
     23          6           0       13.375392   -1.800632    0.320905
     24          6           0       12.368511   -1.968418   -0.857087
     25          6           0       11.175477    0.123781    0.042697
     26          6           0       11.049798    0.386828    2.540873
     27          6           0       12.993588    1.258797    1.276990
     28          6           0       12.566936    0.286572   -2.105358
     29          6           0       -4.736102    2.001585   -0.609786
     30          6           0        9.947606    0.621627   -0.030399
     31          6           0       -3.301912    2.327567   -0.516091
     32          6           0        8.645983    1.077003   -0.119232
     33          6           0       -3.014177    3.758115   -0.949515
     34          6           0       -2.245237    1.520398   -0.152012
     35          6           0        7.523621    0.177184    0.056517
     36          6           0        7.730283   -1.232087    0.264565
     37          6           0        6.238946    0.824892   -0.029984
     38          6           0       -0.867642    1.724318   -0.269358
     39          6           0        4.979538    0.130822   -0.039083
     40          6           0        0.065284    0.785450   -0.022815
     41          6           0        3.795048    0.934236   -0.168349
     42          6           0        1.392787    1.122318   -0.041299
     43          6           0        2.518634    0.358868    0.024685
     44          6           0        2.445855   -1.134095    0.332937
     45          1           0      -13.384658   -2.518311   -1.384771
     46          1           0      -13.813146   -0.645270   -1.722456
     47          1           0      -13.682391    0.296493    1.962185
     48          1           0      -13.887738    0.623132    0.213734
     49          1           0      -14.788500   -1.153144    0.633000
     50          1           0      -10.712462   -3.059276   -1.865995
     51          1           0      -11.658368   -1.728359   -3.073218
     52          1           0       -9.988892   -1.362421   -2.413510
     53          1           0       -9.188579    1.046851   -0.395563
     54          1           0      -10.046000    0.142713    2.579528
     55          1           0      -11.685460    0.263971    3.289570
     56          1           0      -10.828855   -1.342728    2.357653
     57          1           0      -12.105795    2.335916   -0.114465
     58          1           0      -12.475359    2.504045    1.718684
     59          1           0      -10.763415    2.454499    1.198754
     60          1           0      -12.112434   -2.541653    1.165476
     61          1           0       -8.895829   -1.975199    0.403919
     62          1           0       -5.971623   -2.355480   -0.284659
     63          1           0       -5.525716   -1.866908    1.252803
     64          1           0       -6.947352   -2.607744    0.832102
     65          1           0       -7.258073    1.303549   -0.223577
     66          1           0       -4.640840   -0.096384   -0.151642
     67          1           0       13.330386   -1.009874    2.250640
     68          1           0       12.026450   -1.967703    1.779701
     69          1           0       13.666427   -2.842856    0.702081
     70          1           0       12.887318   -2.239535   -1.844618
     71          1           0       11.582583   -2.842922   -0.564883
     72          1           0       11.600759    0.558091    3.498754
     73          1           0       10.550377    1.380167    2.354112
     74          1           0       10.381357   -0.510189    2.835051
     75          1           0       13.665149    1.461735    0.374610
     76          1           0       12.501667    2.278821    1.280272
     77          1           0       13.675877    1.106053    1.992163
     78          1           0       12.960955   -0.165565   -2.991157
     79          1           0       12.002851    1.145656   -2.267546
     80          1           0       13.506924    0.491549   -1.490226
     81          1           0       -5.316099    2.644957   -1.040956
     82          1           0       10.093510   -0.476948   -2.444655
     83          1           0       15.125050   -0.982239    0.510868
     84          1           0        8.430150    2.145021   -0.354058
     85          1           0       -2.389071    4.081269   -0.100345
     86          1           0       -2.444742    3.836030   -1.887737
     87          1           0       -3.964573    4.190563   -1.088244
     88          1           0       -2.429913    0.560561    0.216705
     89          1           0        6.986707   -1.783959    0.064454
     90          1           0        8.504422   -1.753025   -0.316637
     91          1           0        7.928092   -1.236546    1.320568
     92          1           0        6.281476    1.918969   -0.110618
     93          1           0       -0.508592    2.816687   -0.387157
     94          1           0        4.796612   -0.863539   -0.011898
     95          1           0       -0.164326   -0.236102    0.069089
     96          1           0        3.865189    2.053532   -0.450444
     97          1           0        1.594790    2.049828   -0.150966
     98          1           0        1.543438   -1.460065   -0.167852
     99          1           0        3.176093   -1.763833   -0.166307
    100          1           0        2.737260   -1.200040    1.488999
 ---------------------------------------------------------------------

 SCF Done:  E(RCAM-B3LYP) =  -1857.30858742     A.U. after   15 cycles

 Excitation energies and oscillator strengths:

 Excited State   1:      Singlet-A      2.1497 eV  576.75 nm  f=3.2423  <S**2>=0.000
     163 ->166        -0.15101
     164 ->165         0.68750
 This state for optimization and/or second-order correction.
 Total Energy, E(TD-HF/TD-DFT) =  -1857.22958729
 Copying the excited state density for this state as the 1-particle RhoCI density.

 The electronic state is 1-A.
 Alpha  occ. eigenvalues --  -19.23597 -19.22013 -19.21574 -19.20345 -10.32563
 Alpha  occ. eigenvalues --  -10.32396 -10.32003 -10.31302 -10.31269 -10.28877
 Alpha  occ. eigenvalues --  -10.28238 -10.28079 -10.27845 -10.27801 -10.27533
 Alpha  occ. eigenvalues --  -10.27479 -10.27294 -10.27074 -10.27013 -10.26855
 Alpha  occ. eigenvalues --  -10.26785 -10.26413 -10.26358 -10.26329 -10.26297
 Alpha  occ. eigenvalues --  -10.26243 -10.26235 -10.26133 -10.26131 -10.26093
 Alpha  occ. eigenvalues --  -10.25966 -10.25963 -10.25821 -10.25154 -10.25073
 Alpha  occ. eigenvalues --  -10.24763 -10.24744 -10.24604 -10.24537 -10.23793
 Alpha  occ. eigenvalues --  -10.23755 -10.23580 -10.23201 -10.22834  -1.13706
 Alpha  occ. eigenvalues --   -1.11461  -1.08160  -1.06062  -0.93599  -0.92812
 Alpha  occ. eigenvalues --   -0.92273  -0.90791  -0.90218  -0.89971  -0.87412
 Alpha  occ. eigenvalues --   -0.85899  -0.85492  -0.84934  -0.84501  -0.83416
 Alpha  occ. eigenvalues --   -0.82216  -0.81109  -0.80569  -0.78934  -0.77699
 Alpha  occ. eigenvalues --   -0.77376  -0.76045  -0.75909  -0.75723  -0.75362
 Alpha  occ. eigenvalues --   -0.74737  -0.74254  -0.73189  -0.69977  -0.69429
 Alpha  occ. eigenvalues --   -0.68032  -0.67078  -0.65833  -0.65153  -0.63790
 Alpha  occ. eigenvalues --   -0.63446  -0.62422  -0.61324  -0.60757  -0.59729
 Alpha  occ. eigenvalues --   -0.58856  -0.58138  -0.57643  -0.57484  -0.56805
 Alpha  occ. eigenvalues --   -0.56120  -0.55757  -0.54983  -0.54668  -0.54230
 Alpha  occ. eigenvalues --   -0.52904  -0.52426  -0.52303  -0.52075  -0.51951
 Alpha  occ. eigenvalues --   -0.51646  -0.51441  -0.50170  -0.49945  -0.49627
 Alpha  occ. eigenvalues --   -0.49535  -0.49255  -0.49023  -0.48602  -0.48352
 Alpha  occ. eigenvalues --   -0.48332  -0.48036  -0.47860  -0.47361  -0.46549
 Alpha  occ. eigenvalues --   -0.46229  -0.46021  -0.45571  -0.45508  -0.45268
 Alpha  occ. eigenvalues --   -0.45000  -0.44850  -0.44315  -0.44182  -0.43778
 Alpha  occ. eigenvalues --   -0.43624  -0.43564  -0.43478  -0.42886  -0.42484
 Alpha  occ. eigenvalues --   -0.42107  -0.41843  -0.41791  -0.41706  -0.40956
 Alpha  occ. eigenvalues --   -0.40827  -0.40425  -0.40231  -0.39981  -0.39715
 Alpha  occ. eigenvalues --   -0.39582  -0.39341  -0.38914  -0.38802  -0.38629
 Alpha  occ. eigenvalues --   -0.38266  -0.37948  -0.37485  -0.37442  -0.37084
 Alpha  occ. eigenvalues --   -0.36548  -0.35402  -0.34643  -0.34350  -0.33619
 Alpha  occ. eigenvalues --   -0.32872  -0.31992  -0.31936  -0.31096  -0.30766
 Alpha  occ. eigenvalues --   -0.29564  -0.27421  -0.23586  -0.18964
 Alpha virt. eigenvalues --   -0.05510  -0.01104   0.03474   0.06667   0.07203
 Alpha virt. eigenvalues --    0.07332   0.09191   0.09405   0.10336   0.13009
 Alpha virt. eigenvalues --    0.13379   0.13438   0.13568   0.14007   0.14405

 Mulliken charges:
               1
     1  O   -0.508347
     2  O   -0.561647
     3  O   -0.562158
     4  O   -0.525133
     5  C    0.183886
     6  C    0.240222
     7  C    0.039198
     8  C   -0.186359
     9  C   -0.170163
    10  C    0.160729
    11  C   -0.298562
    12  C   -0.111869
    13  C   -0.300466
    14  C   -0.314829
    15  C   -0.080826
    16  C    0.107878
    17  C   -0.386471
    18  C   -0.120971
    19  C   -0.059010
    20  C    0.015466
    21  C    0.236248
    22  C   -0.166123
    23  C    0.127430
    24  C   -0.170894
    25  C   -0.054999
    26  C   -0.300722
    27  C   -0.301254
    28  C   -0.315660
    29  C   -0.097541
    30  C    0.122511
    31  C    0.060445
    32  C   -0.269644
    33  C   -0.367068
    34  C   -0.115275
    35  C    0.109872
    36  C   -0.365901
    37  C   -0.122765
    38  C   -0.087068
    39  C   -0.079833
    40  C   -0.058840
    41  C   -0.126156
    42  C   -0.086359
    43  C    0.086194
    44  C   -0.374830
    45  H    0.116539
    46  H    0.057598
    47  H    0.102904
    48  H    0.114504
    49  H    0.095765
    50  H    0.067623
    51  H    0.109815
    52  H    0.136771
    53  H    0.110969
    54  H    0.107299
    55  H    0.106051
    56  H    0.062596
    57  H    0.130940
    58  H    0.106659
    59  H    0.076413
    60  H    0.301986
    61  H    0.067347
    62  H    0.141099
    63  H    0.092025
    64  H    0.107452
    65  H    0.064394
    66  H    0.084912
    67  H    0.083568
    68  H    0.104554
    69  H    0.065203
    70  H    0.108271
    71  H    0.092324
    72  H    0.091102
    73  H    0.108919
    74  H    0.097101
    75  H    0.104539
    76  H    0.097884
    77  H    0.099289
    78  H    0.111712
    79  H    0.097071
    80  H    0.136223
    81  H    0.080310
    82  H    0.297244
    83  H    0.309719
    84  H    0.107429
    85  H    0.125144
    86  H    0.123121
    87  H    0.105791
    88  H    0.070067
    89  H    0.113517
    90  H    0.139739
    91  H    0.129780
    92  H    0.079933
    93  H    0.074620
    94  H    0.080214
    95  H    0.079229
    96  H    0.079515
    97  H    0.047627
    98  H    0.114878
    99  H    0.115524
   100  H    0.124840
 Sum of Mulliken charges =  -0.00000

 Dipole moment (field-independent basis, Debye):
    X=              5.2731    Y=             -0.2869    Z=              1.7147  Tot=              5.5523
 Quadrupole moment (field-independent basis, Debye-Ang):
   XX=           -247.4293   YY=           -262.0417   ZZ=           -275.5773
   XY=             -6.0294   XZ=             25.0026   YZ=             -2.4703

 Normal termination of Gaussian 16 at Wed Jul 31 03:59:30 2019.
