 Gaussian 16, Revision A.03,
 Gaussian 16:  ES64L-G16RevA.03 25-Dec-2016

 -------------------------------------
 # td=(NStates=1) CAM-B3LYP/6-31G(d,p)
 -------------------------------------

 --
 TD
 --
 Symbolic Z-matrix:
 Charge =  0 Multiplicity = 1

                         Standard orientation:
 ---------------------------------------------------------------------
 Center     Atomic      Atomic             Coordinates (Angstroms)
 Number     Number       Type             X           Y           Z
 ---------------------------------------------------------------------
      1          8           0      -11.756102    0.094590   -1.563440
      2          8           0      -13.110135   -2.360846    1.745654
      3          8           0       10.644495   -0.993932   -2.058092
      4          8           0       14.431269   -1.110288    0.034972
      5          6           0      -10.993640   -0.125020   -0.409969
      6          6           0      -11.602907   -1.326972   -1.128936
      7          6           0      -11.715364    0.554666    0.846124
      8          6           0      -12.945276   -1.922990   -0.675501
      9          6           0      -13.203873   -0.010076    0.772535
     10          6           0      -13.522478   -1.507910    0.622142
     11          6           0      -10.761960   -2.162663   -2.070183
     12          6           0       -9.569973    0.049167   -0.553451
     13          6           0      -11.174525    0.136747    2.200208
     14          6           0      -11.726133    2.077948    0.661028
     15          6           0       -8.576239   -0.808251    0.053007
     16          6           0       -7.176483   -0.601077    0.197102
     17          6           0       -6.333324   -1.805630    0.417325
     18          6           0       -6.662729    0.682730    0.147595
     19          6           0       -5.209848    0.920889   -0.117481
     20          6           0       11.951764    0.154796    1.419560
     21          6           0       11.694333   -0.572910   -1.215375
     22          6           0       12.534829   -1.283286    1.574403
     23          6           0       13.277149   -1.850864    0.297705
     24          6           0       12.370783   -1.925189   -0.883803
     25          6           0       11.131510    0.168717    0.082052
     26          6           0       10.972706    0.326142    2.649900
     27          6           0       12.970176    1.240638    1.408270
     28          6           0       12.590076    0.401824   -2.050120
     29          6           0       -4.734170    2.122989   -0.419185
     30          6           0        9.866568    0.517083   -0.002800
     31          6           0       -3.364729    2.512221   -0.546640
     32          6           0        8.619492    0.828743   -0.117770
     33          6           0       -3.139949    3.974059   -0.536792
     34          6           0       -2.291439    1.574210   -0.477346
     35          6           0        7.426809    0.119973   -0.006496
     36          6           0        7.536323   -1.375427    0.171084
     37          6           0        6.221053    0.751960   -0.177989
     38          6           0       -0.908033    1.921803   -0.392622
     39          6           0        4.950391    0.146373   -0.143968
     40          6           0        0.026845    0.888146   -0.220851
     41          6           0        3.811737    0.912630   -0.164749
     42          6           0        1.453352    1.172286   -0.234857
     43          6           0        2.498352    0.317323   -0.118405
     44          6           0        2.353237   -1.152667    0.206315
     45          1           0      -12.783612   -3.104284   -0.672056
     46          1           0      -13.687011   -1.582278   -1.599245
     47          1           0      -13.660974    0.507418    1.815647
     48          1           0      -13.701969    0.522348   -0.100723
     49          1           0      -14.593755   -1.439388    0.683413
     50          1           0      -10.455081   -2.827385   -1.162913
     51          1           0      -11.282983   -2.890971   -2.877442
     52          1           0      -10.022455   -1.571542   -2.658932
     53          1           0       -9.129313    1.044011   -0.975637
     54          1           0      -10.304410    0.815379    2.278148
     55          1           0      -11.795209    0.350314    3.172881
     56          1           0      -10.696544   -0.973840    2.081008
     57          1           0      -12.154463    2.255483   -0.304160
     58          1           0      -12.436624    2.292991    1.391430
     59          1           0      -10.939607    2.673774    0.938518
     60          1           0      -12.082227   -2.132242    1.733044
     61          1           0       -9.167539   -1.702895    0.412057
     62          1           0       -5.559241   -1.876286   -0.358253
     63          1           0       -5.688359   -1.801584    1.352531
     64          1           0       -6.882000   -3.062412    0.334591
     65          1           0       -7.407139    1.493891    0.072044
     66          1           0       -4.845945   -0.152692   -0.018399
     67          1           0       13.067448   -1.327638    2.330430
     68          1           0       11.841038   -2.111701    1.811644
     69          1           0       13.645977   -2.680780    0.596805
     70          1           0       13.093854   -2.158302   -1.766041
     71          1           0       11.679955   -2.716874   -0.850745
     72          1           0       11.453714    0.456311    3.553576
     73          1           0       10.137378    1.178274    2.493394
     74          1           0       10.222251   -0.577001    2.708316
     75          1           0       13.826164    1.067597    0.653032
     76          1           0       12.518124    2.202916    1.444308
     77          1           0       13.635565    1.342069    2.236286
     78          1           0       12.836239   -0.228659   -2.782483
     79          1           0       11.900245    1.139470   -2.624888
     80          1           0       13.543716    0.778129   -1.587184
     81          1           0       -5.371300    2.987250   -0.514115
     82          1           0       10.049020   -0.154521   -2.319317
     83          1           0       15.065491   -0.964058    0.762656
     84          1           0        8.562826    1.912966   -0.155736
     85          1           0       -2.422840    4.306773    0.205842
     86          1           0       -2.628638    4.311698   -1.608726
     87          1           0       -4.079072    4.614893   -0.518553
     88          1           0       -2.513963    0.495822   -0.460572
     89          1           0        6.575035   -1.959944    0.118670
     90          1           0        8.145977   -1.759861   -0.871218
     91          1           0        8.170383   -1.593379    1.002827
     92          1           0        6.259227    1.754921   -0.406161
     93          1           0       -0.588424    3.002112   -0.466278
     94          1           0        5.034576   -0.960598    0.036765
     95          1           0       -0.350395   -0.082055   -0.359885
     96          1           0        3.879216    2.012877   -0.462611
     97          1           0        1.775604    2.124163   -0.573236
     98          1           0        1.208833   -1.417102    0.477058
     99          1           0        2.778984   -1.867195   -0.493500
    100          1           0        2.781551   -1.261372    1.212948
 ---------------------------------------------------------------------

 SCF Done:  E(RCAM-B3LYP) =  -1857.31232582     A.U. after   15 cycles

 Excitation energies and oscillator strengths:

 Excited State   1:      Singlet-A      2.3666 eV  523.90 nm  f=3.0008  <S**2>=0.000
     163 ->166        -0.15177
     164 ->165         0.68381
 This state for optimization and/or second-order correction.
 Total Energy, E(TD-HF/TD-DFT) =  -1857.22535588
 Copying the excited state density for this state as the 1-particle RhoCI density.

 The electronic state is 1-A.
 Alpha  occ. eigenvalues --  -19.21862 -19.21500 -19.21488 -19.21085 -10.32991
 Alpha  occ. eigenvalues --  -10.32192 -10.32142 -10.30824 -10.29291 -10.28938
 Alpha  occ. eigenvalues --  -10.28605 -10.28268 -10.28265 -10.28170 -10.27847
 Alpha  occ. eigenvalues --  -10.27824 -10.27484 -10.27448 -10.27249 -10.27217
 Alpha  occ. eigenvalues --  -10.27152 -10.27148 -10.26991 -10.26961 -10.26942
 Alpha  occ. eigenvalues --  -10.26739 -10.26647 -10.26615 -10.26596 -10.26572
 Alpha  occ. eigenvalues --  -10.26518 -10.26426 -10.26417 -10.26228 -10.26155
 Alpha  occ. eigenvalues --  -10.25712 -10.25637 -10.25478 -10.25316 -10.24756
 Alpha  occ. eigenvalues --  -10.24109 -10.23759 -10.23607 -10.23354  -1.14320
 Alpha  occ. eigenvalues --   -1.10204  -1.08577  -1.07064  -0.92532  -0.92183
 Alpha  occ. eigenvalues --   -0.91563  -0.90895  -0.90446  -0.90060  -0.87175
 Alpha  occ. eigenvalues --   -0.86899  -0.85829  -0.85350  -0.84356  -0.82832
 Alpha  occ. eigenvalues --   -0.82097  -0.81011  -0.80407  -0.77956  -0.77031
 Alpha  occ. eigenvalues --   -0.76988  -0.76657  -0.75935  -0.75827  -0.75310
 Alpha  occ. eigenvalues --   -0.74651  -0.74168  -0.73109  -0.70531  -0.69832
 Alpha  occ. eigenvalues --   -0.68433  -0.66799  -0.64965  -0.64406  -0.64102
 Alpha  occ. eigenvalues --   -0.63399  -0.62536  -0.60933  -0.60487  -0.58866
 Alpha  occ. eigenvalues --   -0.58679  -0.58417  -0.57753  -0.57467  -0.56215
 Alpha  occ. eigenvalues --   -0.55808  -0.55302  -0.54731  -0.54378  -0.53871
 Alpha  occ. eigenvalues --   -0.53391  -0.53092  -0.52664  -0.51686  -0.51179
 Alpha  occ. eigenvalues --   -0.50848  -0.50489  -0.50118  -0.50058  -0.49664
 Alpha  occ. eigenvalues --   -0.49542  -0.49262  -0.49109  -0.48658  -0.48299
 Alpha  occ. eigenvalues --   -0.47964  -0.47698  -0.47630  -0.47389  -0.47115
 Alpha  occ. eigenvalues --   -0.46667  -0.46204  -0.45933  -0.45417  -0.45277
 Alpha  occ. eigenvalues --   -0.45142  -0.44467  -0.44131  -0.43456  -0.43175
 Alpha  occ. eigenvalues --   -0.43086  -0.42840  -0.42746  -0.42404  -0.42357
 Alpha  occ. eigenvalues --   -0.42264  -0.41983  -0.41736  -0.41587  -0.41350
 Alpha  occ. eigenvalues --   -0.40902  -0.40702  -0.40512  -0.40283  -0.39972
 Alpha  occ. eigenvalues --   -0.39616  -0.39128  -0.38932  -0.38626  -0.38393
 Alpha  occ. eigenvalues --   -0.38206  -0.38012  -0.37821  -0.37510  -0.37161
 Alpha  occ. eigenvalues --   -0.36616  -0.35690  -0.35343  -0.33901  -0.33624
 Alpha  occ. eigenvalues --   -0.32258  -0.32104  -0.31614  -0.31317  -0.30712
 Alpha  occ. eigenvalues --   -0.28972  -0.27264  -0.24056  -0.20154
 Alpha virt. eigenvalues --   -0.05227  -0.01067   0.02395   0.06887   0.07836
 Alpha virt. eigenvalues --    0.08035   0.10158   0.10409   0.10624   0.11216
 Alpha virt. eigenvalues --    0.11960   0.12449   0.12856   0.12959   0.13712

 Mulliken charges:
               1
     1  O   -0.516792
     2  O   -0.547859
     3  O   -0.580690
     4  O   -0.569834
     5  C    0.235917
     6  C    0.194999
     7  C    0.015793
     8  C   -0.198118
     9  C   -0.200162
    10  C    0.147930
    11  C   -0.304612
    12  C   -0.117391
    13  C   -0.296391
    14  C   -0.313605
    15  C   -0.102717
    16  C    0.102601
    17  C   -0.383568
    18  C   -0.112256
    19  C   -0.049575
    20  C    0.039533
    21  C    0.260141
    22  C   -0.187704
    23  C    0.195357
    24  C   -0.190198
    25  C   -0.124527
    26  C   -0.313228
    27  C   -0.319947
    28  C   -0.293797
    29  C   -0.129286
    30  C    0.206633
    31  C    0.108209
    32  C   -0.325819
    33  C   -0.385577
    34  C   -0.125059
    35  C    0.153544
    36  C   -0.367631
    37  C   -0.101112
    38  C   -0.071352
    39  C   -0.082441
    40  C   -0.098430
    41  C   -0.132768
    42  C   -0.136693
    43  C    0.130743
    44  C   -0.376232
    45  H    0.099227
    46  H    0.110751
    47  H    0.060047
    48  H    0.110845
    49  H    0.121616
    50  H    0.100577
    51  H    0.102249
    52  H    0.140149
    53  H    0.087291
    54  H    0.109191
    55  H    0.118014
    56  H    0.064774
    57  H    0.130989
    58  H    0.108300
    59  H    0.110521
    60  H    0.300025
    61  H    0.066558
    62  H    0.136630
    63  H    0.133105
    64  H    0.074378
    65  H    0.081578
    66  H    0.080475
    67  H    0.080096
    68  H    0.087358
    69  H    0.073747
    70  H    0.105057
    71  H    0.129596
    72  H    0.108698
    73  H    0.087322
    74  H    0.092420
    75  H    0.111673
    76  H    0.113330
    77  H    0.089691
    78  H    0.121282
    79  H    0.072891
    80  H    0.122577
    81  H    0.087162
    82  H    0.306643
    83  H    0.310772
    84  H    0.108495
    85  H    0.134658
    86  H    0.094949
    87  H    0.110120
    88  H    0.083738
    89  H    0.104931
    90  H    0.106241
    91  H    0.128011
    92  H    0.067086
    93  H    0.089977
    94  H    0.080987
    95  H    0.092717
    96  H    0.087836
    97  H    0.077681
    98  H    0.090335
    99  H    0.128370
   100  H    0.130234
 Sum of Mulliken charges =  -0.00000

 Dipole moment (field-independent basis, Debye):
    X=              3.9770    Y=              0.4902    Z=              1.6225  Tot=              4.3232
 Quadrupole moment (field-independent basis, Debye-Ang):
   XX=           -277.7196   YY=           -258.8353   ZZ=           -278.2422
   XY=            -12.5012   XZ=             33.0596   YZ=              0.5232

 Normal termination of Gaussian 16 at Mon Jul 29 10:07:06 2019.
