 Gaussian 16, Revision A.03,
 Gaussian 16:  ES64L-G16RevA.03 25-Dec-2016

 -------------------------------------
 # td=(NStates=1) CAM-B3LYP/6-31G(d,p)
 -------------------------------------

 --
 TD
 --
 Symbolic Z-matrix:
 Charge =  0 Multiplicity = 1

                         Standard orientation:
 ---------------------------------------------------------------------
 Center     Atomic      Atomic             Coordinates (Angstroms)
 Number     Number       Type             X           Y           Z
 ---------------------------------------------------------------------
      1          8           0      -11.789416    0.490281   -1.450771
      2          8           0      -12.995338   -2.555255    1.166311
      3          8           0       10.861228   -0.806453   -2.283344
      4          8           0       14.645082   -0.972443   -0.021658
      5          6           0      -11.144616   -0.064554   -0.253884
      6          6           0      -11.632404   -0.982367   -1.294250
      7          6           0      -11.883738    0.249990    1.012668
      8          6           0      -12.981934   -1.662987   -1.086295
      9          6           0      -13.417272   -0.113329    0.901514
     10          6           0      -13.554318   -1.547306    0.381052
     11          6           0      -10.819815   -1.621356   -2.300345
     12          6           0       -9.595847    0.200282   -0.274634
     13          6           0      -11.250492   -0.390667    2.298225
     14          6           0      -11.726784    1.823681    1.224357
     15          6           0       -8.718400   -0.761069   -0.094745
     16          6           0       -7.273215   -0.553386    0.007787
     17          6           0       -6.388514   -1.763251    0.377005
     18          6           0       -6.712500    0.708097   -0.036835
     19          6           0       -5.395685    0.935006    0.057451
     20          6           0       11.948527   -0.111691    1.349004
     21          6           0       11.820512   -0.364612   -1.190649
     22          6           0       12.629137   -1.388618    1.359608
     23          6           0       13.459792   -1.770851    0.153319
     24          6           0       12.551732   -1.722681   -1.090288
     25          6           0       11.049666    0.072267    0.008244
     26          6           0       10.990110   -0.076791    2.582333
     27          6           0       12.979024    1.043986    1.575279
     28          6           0       12.723641    0.619127   -1.914509
     29          6           0       -4.804155    2.124957   -0.155969
     30          6           0        9.886012    0.613180   -0.044310
     31          6           0       -3.398882    2.440331   -0.326563
     32          6           0        8.644931    1.114639   -0.130583
     33          6           0       -3.026907    3.860936   -0.738980
     34          6           0       -2.364183    1.508399   -0.188268
     35          6           0        7.483828    0.204657    0.015446
     36          6           0        7.737937   -1.281618    0.180040
     37          6           0        6.196859    0.727489   -0.143497
     38          6           0       -0.955964    1.678042   -0.271064
     39          6           0        5.020151    0.121486    0.077778
     40          6           0       -0.006021    0.741404   -0.069118
     41          6           0        3.835966    0.885231   -0.011427
     42          6           0        1.380693    1.040081   -0.078206
     43          6           0        2.462708    0.243022   -0.014748
     44          6           0        2.333109   -1.202438    0.158266
     45          1           0      -13.011761   -2.560238   -1.483185
     46          1           0      -13.693238   -1.048809   -1.650226
     47          1           0      -14.040732    0.037364    1.820057
     48          1           0      -13.890931    0.407252    0.162651
     49          1           0      -14.588282   -1.784090    0.480728
     50          1           0      -10.617931   -2.690272   -2.103126
     51          1           0      -11.558486   -1.769718   -3.306501
     52          1           0       -9.840686   -1.125017   -2.736139
     53          1           0       -9.510613    1.192697   -0.709658
     54          1           0      -10.299131   -0.117832    2.455786
     55          1           0      -11.981344    0.089736    3.133081
     56          1           0      -11.185988   -1.440428    2.278748
     57          1           0      -11.995276    2.436192    0.358974
     58          1           0      -12.237352    2.143203    2.166470
     59          1           0      -10.680986    2.003330    1.401309
     60          1           0      -12.132442   -2.563116    0.988915
     61          1           0       -9.064289   -1.739998    0.112796
     62          1           0       -5.346326   -1.567966   -0.362820
     63          1           0       -6.241308   -1.591093    1.607031
     64          1           0       -6.954641   -2.873032    0.151904
     65          1           0       -7.337389    1.575162   -0.100881
     66          1           0       -4.879869   -0.004673    0.002614
     67          1           0       13.275941   -1.464284    2.297842
     68          1           0       11.937274   -2.239535    1.350321
     69          1           0       13.756096   -2.883103    0.232851
     70          1           0       12.990890   -1.651394   -2.027223
     71          1           0       11.796235   -2.606501   -1.004690
     72          1           0       11.623429   -0.158410    3.458064
     73          1           0       10.495168    0.902371    2.694382
     74          1           0       10.141805   -0.770068    2.584445
     75          1           0       13.617322    1.133439    0.842740
     76          1           0       12.380983    1.782597    1.625540
     77          1           0       13.424207    0.933897    2.612046
     78          1           0       13.071459    0.266746   -2.860511
     79          1           0       12.279950    1.618743   -1.966034
     80          1           0       13.674550    0.755445   -1.367048
     81          1           0       -5.565661    3.011819   -0.269788
     82          1           0       10.108801   -0.165183   -2.150938
     83          1           0       15.237097   -1.089418    0.825435
     84          1           0        8.351696    2.173719   -0.294626
     85          1           0       -2.378431    4.141107    0.025649
     86          1           0       -2.521386    4.057521   -1.648592
     87          1           0       -4.046299    4.384628   -0.676046
     88          1           0       -2.618046    0.347418   -0.040832
     89          1           0        6.726751   -1.850182   -0.028531
     90          1           0        8.329028   -1.674524   -0.636162
     91          1           0        8.261228   -1.571085    0.941600
     92          1           0        6.276244    1.850485   -0.328169
     93          1           0       -0.607266    2.630275   -0.181174
     94          1           0        4.985195   -0.970951    0.107343
     95          1           0       -0.479188   -0.305688   -0.070903
     96          1           0        3.763536    2.061452   -0.151736
     97          1           0        1.599690    2.189342   -0.306289
     98          1           0        1.229371   -1.512197    0.426669
     99          1           0        2.560839   -1.568424   -0.858395
    100          1           0        3.141915   -1.478078    0.828669
 ---------------------------------------------------------------------

 SCF Done:  E(RCAM-B3LYP) =  -1857.35714991     A.U. after   15 cycles

 Excitation energies and oscillator strengths:

 Excited State   1:      Singlet-A      2.3464 eV  528.39 nm  f=3.1509  <S**2>=0.000
     163 ->166         0.16018
     164 ->165         0.68584
 This state for optimization and/or second-order correction.
 Total Energy, E(TD-HF/TD-DFT) =  -1857.27091989
 Copying the excited state density for this state as the 1-particle RhoCI density.

 The electronic state is 1-A.
 Alpha  occ. eigenvalues --  -19.22382 -19.21665 -19.20123 -19.19245 -10.32103
 Alpha  occ. eigenvalues --  -10.31833 -10.31226 -10.31218 -10.31163 -10.30097
 Alpha  occ. eigenvalues --  -10.28762 -10.28714 -10.28380 -10.28231 -10.28160
 Alpha  occ. eigenvalues --  -10.28106 -10.28004 -10.27934 -10.27824 -10.27693
 Alpha  occ. eigenvalues --  -10.27435 -10.27345 -10.27201 -10.27012 -10.26929
 Alpha  occ. eigenvalues --  -10.26818 -10.26747 -10.26650 -10.26379 -10.26239
 Alpha  occ. eigenvalues --  -10.25566 -10.25416 -10.25275 -10.25173 -10.25066
 Alpha  occ. eigenvalues --  -10.24975 -10.24966 -10.24800 -10.24789 -10.24646
 Alpha  occ. eigenvalues --  -10.24551 -10.24500 -10.23655 -10.22616  -1.12960
 Alpha  occ. eigenvalues --   -1.11978  -1.08336  -1.05892  -0.93393  -0.92928
 Alpha  occ. eigenvalues --   -0.92319  -0.91271  -0.90375  -0.89794  -0.88046
 Alpha  occ. eigenvalues --   -0.87229  -0.86860  -0.86191  -0.85513  -0.83654
 Alpha  occ. eigenvalues --   -0.82719  -0.81151  -0.80911  -0.78398  -0.78331
 Alpha  occ. eigenvalues --   -0.76956  -0.76571  -0.76103  -0.75973  -0.75799
 Alpha  occ. eigenvalues --   -0.75667  -0.74218  -0.73352  -0.70750  -0.70065
 Alpha  occ. eigenvalues --   -0.68655  -0.67297  -0.66082  -0.65105  -0.64015
 Alpha  occ. eigenvalues --   -0.63687  -0.62564  -0.61150  -0.60606  -0.59755
 Alpha  occ. eigenvalues --   -0.59505  -0.58380  -0.57973  -0.56897  -0.56451
 Alpha  occ. eigenvalues --   -0.55731  -0.54919  -0.54821  -0.54712  -0.54629
 Alpha  occ. eigenvalues --   -0.53455  -0.53195  -0.52328  -0.51960  -0.51753
 Alpha  occ. eigenvalues --   -0.51183  -0.50810  -0.50430  -0.50353  -0.50119
 Alpha  occ. eigenvalues --   -0.49803  -0.49439  -0.49263  -0.48955  -0.48618
 Alpha  occ. eigenvalues --   -0.48480  -0.47951  -0.47890  -0.47648  -0.47479
 Alpha  occ. eigenvalues --   -0.46329  -0.46250  -0.45577  -0.45297  -0.45176
 Alpha  occ. eigenvalues --   -0.44979  -0.44612  -0.44396  -0.44240  -0.44146
 Alpha  occ. eigenvalues --   -0.43814  -0.43317  -0.43109  -0.43055  -0.42924
 Alpha  occ. eigenvalues --   -0.42747  -0.42583  -0.42249  -0.41725  -0.41641
 Alpha  occ. eigenvalues --   -0.41335  -0.40979  -0.40587  -0.40476  -0.40172
 Alpha  occ. eigenvalues --   -0.40162  -0.39830  -0.39571  -0.39282  -0.39163
 Alpha  occ. eigenvalues --   -0.38868  -0.38359  -0.38241  -0.37932  -0.37736
 Alpha  occ. eigenvalues --   -0.36361  -0.36040  -0.35585  -0.34502  -0.34254
 Alpha  occ. eigenvalues --   -0.32668  -0.32482  -0.32061  -0.31429  -0.30939
 Alpha  occ. eigenvalues --   -0.30757  -0.28233  -0.24083  -0.20336
 Alpha virt. eigenvalues --   -0.05609  -0.01613   0.03013   0.05910   0.07038
 Alpha virt. eigenvalues --    0.09206   0.09599   0.09980   0.10691   0.11626
 Alpha virt. eigenvalues --    0.12022   0.12732   0.12934   0.13658   0.13876

 Mulliken charges:
               1
     1  O   -0.525551
     2  O   -0.516998
     3  O   -0.580990
     4  O   -0.560128
     5  C    0.175216
     6  C    0.274242
     7  C    0.001783
     8  C   -0.221540
     9  C   -0.182866
    10  C    0.135165
    11  C   -0.354759
    12  C   -0.088044
    13  C   -0.286539
    14  C   -0.321517
    15  C   -0.076027
    16  C    0.039355
    17  C   -0.335407
    18  C   -0.068035
    19  C   -0.024507
    20  C    0.001620
    21  C    0.186397
    22  C   -0.158260
    23  C    0.143894
    24  C   -0.152714
    25  C   -0.084066
    26  C   -0.313359
    27  C   -0.280936
    28  C   -0.307721
    29  C   -0.144987
    30  C    0.145016
    31  C    0.072838
    32  C   -0.278382
    33  C   -0.365117
    34  C   -0.121481
    35  C    0.099137
    36  C   -0.369077
    37  C   -0.091729
    38  C   -0.066774
    39  C   -0.103068
    40  C   -0.073698
    41  C   -0.113050
    42  C   -0.146592
    43  C    0.116338
    44  C   -0.371172
    45  H    0.105150
    46  H    0.127492
    47  H    0.094421
    48  H    0.118596
    49  H    0.092967
    50  H    0.111735
    51  H    0.084644
    52  H    0.128274
    53  H    0.122857
    54  H    0.115024
    55  H    0.089538
    56  H    0.090837
    57  H    0.122720
    58  H    0.096210
    59  H    0.103782
    60  H    0.285757
    61  H    0.075729
    62  H    0.105182
    63  H    0.122040
    64  H    0.089645
    65  H    0.077888
    66  H    0.061438
    67  H    0.075260
    68  H    0.094786
    69  H    0.069938
    70  H    0.121342
    71  H    0.107509
    72  H    0.095883
    73  H    0.104852
    74  H    0.107394
    75  H    0.127983
    76  H    0.113014
    77  H    0.082673
    78  H    0.127971
    79  H    0.095771
    80  H    0.127775
    81  H    0.074513
    82  H    0.295775
    83  H    0.310749
    84  H    0.116295
    85  H    0.134877
    86  H    0.134497
    87  H    0.097879
    88  H    0.060652
    89  H    0.089371
    90  H    0.133849
    91  H    0.130413
    92  H    0.072756
    93  H    0.071938
    94  H    0.098395
    95  H    0.076531
    96  H    0.090373
    97  H    0.067233
    98  H    0.109558
    99  H    0.131023
   100  H    0.123339
 Sum of Mulliken charges =  -0.00000

 Dipole moment (field-independent basis, Debye):
    X=              1.8111    Y=             -0.3789    Z=              2.1480  Tot=              2.8351
 Quadrupole moment (field-independent basis, Debye-Ang):
   XX=           -281.0338   YY=           -260.7087   ZZ=           -280.3608
   XY=              1.7813   XZ=             38.3682   YZ=             -0.0870

 Normal termination of Gaussian 16 at Wed Jul 31 20:03:29 2019.
