 Gaussian 16, Revision A.03,
 Gaussian 16:  ES64L-G16RevA.03 25-Dec-2016

 -------------------------------------
 # td=(NStates=1) CAM-B3LYP/6-31G(d,p)
 -------------------------------------

 --
 TD
 --
 Symbolic Z-matrix:
 Charge =  0 Multiplicity = 1

                         Standard orientation:
 ---------------------------------------------------------------------
 Center     Atomic      Atomic             Coordinates (Angstroms)
 Number     Number       Type             X           Y           Z
 ---------------------------------------------------------------------
      1          8           0      -11.753884    0.149440   -1.582786
      2          8           0      -12.965288   -2.251354    1.550891
      3          8           0       10.610069   -0.883834   -2.158471
      4          8           0       14.538702   -1.069031   -0.030055
      5          6           0      -11.067734   -0.142665   -0.402160
      6          6           0      -11.711186   -1.254963   -1.240611
      7          6           0      -11.820467    0.431992    0.875348
      8          6           0      -13.006002   -1.818679   -0.888934
      9          6           0      -13.330300    0.170839    0.825716
     10          6           0      -13.546838   -1.376046    0.497302
     11          6           0      -10.858619   -1.954083   -2.125477
     12          6           0       -9.571646    0.082001   -0.471831
     13          6           0      -11.211927   -0.028122    2.189165
     14          6           0      -11.576883    2.008078    0.882037
     15          6           0       -8.655192   -0.704013    0.115959
     16          6           0       -7.226092   -0.576626    0.185734
     17          6           0       -6.337259   -1.828225    0.565239
     18          6           0       -6.638050    0.581601   -0.076382
     19          6           0       -5.224948    0.807002   -0.195572
     20          6           0       11.996542    0.053658    1.389840
     21          6           0       11.686821   -0.512701   -1.299269
     22          6           0       12.674954   -1.250624    1.550181
     23          6           0       13.364955   -1.843325    0.255142
     24          6           0       12.413917   -1.885910   -1.008386
     25          6           0       11.073543    0.015668    0.004708
     26          6           0       11.098049    0.357557    2.546204
     27          6           0       12.880573    1.278731    1.312099
     28          6           0       12.583405    0.499161   -2.040754
     29          6           0       -4.745209    2.130934   -0.283406
     30          6           0        9.823212    0.550897    0.107599
     31          6           0       -3.443289    2.474960   -0.444864
     32          6           0        8.642468    1.000496   -0.184081
     33          6           0       -3.009633    3.930256   -0.686891
     34          6           0       -2.324953    1.508785   -0.204407
     35          6           0        7.440625    0.061646   -0.016157
     36          6           0        7.628327   -1.358617    0.242755
     37          6           0        6.212402    0.691453   -0.169549
     38          6           0       -1.073983    1.701117   -0.516605
     39          6           0        4.963367    0.118742    0.020244
     40          6           0       -0.008746    0.784250   -0.177936
     41          6           0        3.829720    0.850777   -0.105918
     42          6           0        1.353298    1.064941   -0.263841
     43          6           0        2.500671    0.287693    0.057027
     44          6           0        2.363702   -1.124760    0.492453
     45          1           0      -13.023740   -2.997572   -0.756270
     46          1           0      -13.935685   -1.600142   -1.660227
     47          1           0      -13.722506    0.174230    1.801483
     48          1           0      -13.643311    0.838087    0.178867
     49          1           0      -14.645267   -1.487560    0.602449
     50          1           0      -10.470098   -2.905432   -1.766210
     51          1           0      -11.304570   -2.568518   -2.942621
     52          1           0      -10.147031   -1.268055   -2.612681
     53          1           0       -9.202796    0.885244   -1.046336
     54          1           0      -10.105189   -0.043189    2.207042
     55          1           0      -11.557429    0.485134    3.227342
     56          1           0      -11.290188   -0.992938    2.264183
     57          1           0      -12.333869    2.172975    0.063417
     58          1           0      -12.009066    2.419690    1.832014
     59          1           0      -10.436203    2.284765    0.838073
     60          1           0      -12.052924   -2.397654    1.421459
     61          1           0       -9.156947   -1.555252    0.577454
     62          1           0       -6.126282   -2.396042   -0.383291
     63          1           0       -5.336361   -1.347617    1.140240
     64          1           0       -6.768444   -2.584956    1.160980
     65          1           0       -7.159154    1.373491   -0.063688
     66          1           0       -4.508621   -0.001247   -0.151858
     67          1           0       13.438378   -1.151044    2.254464
     68          1           0       11.979823   -2.192564    2.096409
     69          1           0       13.710027   -2.832255    0.503947
     70          1           0       12.963317   -2.368177   -1.838097
     71          1           0       11.543787   -2.585380   -1.067530
     72          1           0       11.519081    0.668657    3.546185
     73          1           0       10.473136    1.273581    2.242786
     74          1           0       10.507722   -0.558006    2.721610
     75          1           0       13.638635    1.145651    0.464057
     76          1           0       12.347630    2.248483    1.164753
     77          1           0       13.310911    1.365035    2.275041
     78          1           0       13.142403   -0.075380   -2.928717
     79          1           0       11.925260    1.184875   -2.100456
     80          1           0       13.481251    0.847886   -1.584418
     81          1           0       -5.437899    2.882946   -0.543163
     82          1           0       10.225768   -0.111160   -2.434487
     83          1           0       15.055976   -0.998037    0.793443
     84          1           0        8.321524    2.079072   -0.249674
     85          1           0       -2.417220    4.501214    0.122649
     86          1           0       -2.533035    3.837911   -1.661829
     87          1           0       -3.795489    4.584251   -0.935091
     88          1           0       -2.564550    0.389797    0.106572
     89          1           0        6.875009   -1.959654    0.161889
     90          1           0        8.406382   -1.656535   -0.652179
     91          1           0        8.198964   -1.521051    1.136389
     92          1           0        6.075600    1.782777   -0.319831
     93          1           0       -0.690410    2.625017   -0.839060
     94          1           0        4.905050   -0.915901    0.382100
     95          1           0       -0.477859   -0.292782    0.066774
     96          1           0        3.804564    1.891021   -0.214896
     97          1           0        1.757398    2.021977   -0.382110
     98          1           0        1.380888   -1.620674    0.395209
     99          1           0        2.945896   -1.948075   -0.163650
    100          1           0        2.631395   -1.295922    1.442154
 ---------------------------------------------------------------------

 SCF Done:  E(RCAM-B3LYP) =  -1857.29292646     A.U. after   17 cycles

 Excitation energies and oscillator strengths:

 Excited State   1:      Singlet-A      1.7643 eV  702.74 nm  f=2.7381  <S**2>=0.000
     163 ->166         0.10087
     164 ->165         0.71516
     164 <-165        -0.16102
 This state for optimization and/or second-order correction.
 Total Energy, E(TD-HF/TD-DFT) =  -1857.22809004
 Copying the excited state density for this state as the 1-particle RhoCI density.

 The electronic state is 1-A.
 Alpha  occ. eigenvalues --  -19.22245 -19.22144 -19.21118 -19.20789 -10.32869
 Alpha  occ. eigenvalues --  -10.32399 -10.31977 -10.31853 -10.31600 -10.28307
 Alpha  occ. eigenvalues --  -10.28152 -10.28040 -10.28017 -10.27966 -10.27873
 Alpha  occ. eigenvalues --  -10.27799 -10.27733 -10.27227 -10.27208 -10.27162
 Alpha  occ. eigenvalues --  -10.26960 -10.26899 -10.26786 -10.26264 -10.26128
 Alpha  occ. eigenvalues --  -10.26124 -10.26038 -10.25970 -10.25804 -10.25707
 Alpha  occ. eigenvalues --  -10.25685 -10.25627 -10.25622 -10.25371 -10.25156
 Alpha  occ. eigenvalues --  -10.25154 -10.25053 -10.24851 -10.24725 -10.24674
 Alpha  occ. eigenvalues --  -10.24098 -10.24006 -10.23625 -10.22946  -1.16163
 Alpha  occ. eigenvalues --   -1.11596  -1.09908  -1.08255  -0.92703  -0.92246
 Alpha  occ. eigenvalues --   -0.91983  -0.90927  -0.90109  -0.89745  -0.87536
 Alpha  occ. eigenvalues --   -0.87267  -0.86336  -0.85624  -0.84591  -0.83002
 Alpha  occ. eigenvalues --   -0.81945  -0.81326  -0.80501  -0.79043  -0.77556
 Alpha  occ. eigenvalues --   -0.77079  -0.76899  -0.76513  -0.76157  -0.75303
 Alpha  occ. eigenvalues --   -0.75110  -0.73603  -0.72556  -0.70441  -0.70161
 Alpha  occ. eigenvalues --   -0.68932  -0.67025  -0.65208  -0.64738  -0.64516
 Alpha  occ. eigenvalues --   -0.63663  -0.62046  -0.61478  -0.60851  -0.60295
 Alpha  occ. eigenvalues --   -0.59084  -0.58294  -0.58221  -0.57308  -0.56515
 Alpha  occ. eigenvalues --   -0.56076  -0.55813  -0.55319  -0.54969  -0.54795
 Alpha  occ. eigenvalues --   -0.53713  -0.53469  -0.53110  -0.52340  -0.51676
 Alpha  occ. eigenvalues --   -0.51419  -0.51289  -0.51128  -0.50925  -0.49637
 Alpha  occ. eigenvalues --   -0.49322  -0.49171  -0.49038  -0.48903  -0.48673
 Alpha  occ. eigenvalues --   -0.48447  -0.48020  -0.47746  -0.47370  -0.46980
 Alpha  occ. eigenvalues --   -0.46759  -0.46046  -0.45915  -0.45326  -0.45029
 Alpha  occ. eigenvalues --   -0.44762  -0.44690  -0.44521  -0.44264  -0.43934
 Alpha  occ. eigenvalues --   -0.43796  -0.43039  -0.42919  -0.42555  -0.42373
 Alpha  occ. eigenvalues --   -0.42153  -0.41661  -0.41585  -0.41430  -0.41096
 Alpha  occ. eigenvalues --   -0.40784  -0.40556  -0.40501  -0.40329  -0.39737
 Alpha  occ. eigenvalues --   -0.39508  -0.39128  -0.39077  -0.38824  -0.38416
 Alpha  occ. eigenvalues --   -0.38313  -0.38136  -0.37628  -0.37231  -0.36662
 Alpha  occ. eigenvalues --   -0.36491  -0.35946  -0.35443  -0.34738  -0.33450
 Alpha  occ. eigenvalues --   -0.32992  -0.32520  -0.32347  -0.31761  -0.30270
 Alpha  occ. eigenvalues --   -0.29180  -0.27935  -0.24792  -0.18029
 Alpha virt. eigenvalues --   -0.07288  -0.00021   0.03355   0.05392   0.07109
 Alpha virt. eigenvalues --    0.09794   0.09980   0.10955   0.11292   0.12017
 Alpha virt. eigenvalues --    0.12590   0.13200   0.13674   0.14297   0.14441

 Mulliken charges:
               1
     1  O   -0.510092
     2  O   -0.552754
     3  O   -0.541716
     4  O   -0.551116
     5  C    0.201703
     6  C    0.295266
     7  C   -0.007080
     8  C   -0.228698
     9  C   -0.163387
    10  C    0.135331
    11  C   -0.349231
    12  C   -0.118981
    13  C   -0.287759
    14  C   -0.297732
    15  C   -0.073157
    16  C    0.080274
    17  C   -0.357558
    18  C   -0.079802
    19  C   -0.078138
    20  C    0.027483
    21  C    0.221097
    22  C   -0.180196
    23  C    0.153800
    24  C   -0.202596
    25  C   -0.032839
    26  C   -0.301402
    27  C   -0.304399
    28  C   -0.280368
    29  C   -0.114525
    30  C    0.106452
    31  C    0.048922
    32  C   -0.270110
    33  C   -0.370933
    34  C   -0.095726
    35  C    0.093967
    36  C   -0.362377
    37  C   -0.112547
    38  C   -0.054801
    39  C   -0.067139
    40  C   -0.101566
    41  C   -0.124099
    42  C   -0.120365
    43  C    0.107469
    44  C   -0.385449
    45  H    0.103453
    46  H    0.102273
    47  H    0.118088
    48  H    0.107068
    49  H    0.102292
    50  H    0.105886
    51  H    0.104387
    52  H    0.133908
    53  H    0.096443
    54  H    0.091211
    55  H    0.085342
    56  H    0.076024
    57  H    0.103972
    58  H    0.098913
    59  H    0.100325
    60  H    0.303697
    61  H    0.060116
    62  H    0.120764
    63  H    0.094217
    64  H    0.118385
    65  H    0.064914
    66  H    0.089210
    67  H    0.085078
    68  H    0.062083
    69  H    0.085826
    70  H    0.109692
    71  H    0.123423
    72  H    0.093280
    73  H    0.104918
    74  H    0.097347
    75  H    0.112981
    76  H    0.103450
    77  H    0.097472
    78  H    0.104360
    79  H    0.092856
    80  H    0.132696
    81  H    0.083042
    82  H    0.296972
    83  H    0.311091
    84  H    0.112170
    85  H    0.121724
    86  H    0.129025
    87  H    0.110693
    88  H    0.068384
    89  H    0.117166
    90  H    0.123981
    91  H    0.130408
    92  H    0.073001
    93  H    0.084350
    94  H    0.090624
    95  H    0.075757
    96  H    0.081318
    97  H    0.072376
    98  H    0.108753
    99  H    0.092027
   100  H    0.137667
 Sum of Mulliken charges =  -0.00000

 Dipole moment (field-independent basis, Debye):
    X=              4.7906    Y=             -0.4834    Z=              1.4277  Tot=              5.0221
 Quadrupole moment (field-independent basis, Debye-Ang):
   XX=           -265.6738   YY=           -255.5933   ZZ=           -277.1949
   XY=              7.1509   XZ=             32.3559   YZ=             -1.7878

 Normal termination of Gaussian 16 at Mon Jul 29 01:30:23 2019.
