 Gaussian 16, Revision A.03,
 Gaussian 16:  ES64L-G16RevA.03 25-Dec-2016

 -------------------------------------
 # td=(NStates=1) CAM-B3LYP/6-31G(d,p)
 -------------------------------------

 --
 TD
 --
 Symbolic Z-matrix:
 Charge =  0 Multiplicity = 1

                         Standard orientation:
 ---------------------------------------------------------------------
 Center     Atomic      Atomic             Coordinates (Angstroms)
 Number     Number       Type             X           Y           Z
 ---------------------------------------------------------------------
      1          8           0      -11.786158    0.396826   -1.394467
      2          8           0      -13.078393   -2.556990    1.258202
      3          8           0       10.656720   -1.053383   -2.160550
      4          8           0       14.551082   -0.926307   -0.136813
      5          6           0      -11.100341   -0.088058   -0.288991
      6          6           0      -11.686087   -1.016862   -1.286245
      7          6           0      -11.945194    0.352585    0.967817
      8          6           0      -12.965245   -1.752785   -1.086179
      9          6           0      -13.414172   -0.097354    0.814090
     10          6           0      -13.572846   -1.603126    0.232752
     11          6           0      -10.742179   -1.744034   -2.232393
     12          6           0       -9.589471    0.166743   -0.394927
     13          6           0      -11.217031   -0.287183    2.282651
     14          6           0      -11.829898    1.719963    1.063702
     15          6           0       -8.622496   -0.565169    0.183767
     16          6           0       -7.208508   -0.448030    0.191483
     17          6           0       -6.441947   -1.711472    0.536840
     18          6           0       -6.633512    0.743007   -0.103783
     19          6           0       -5.260303    0.999928   -0.084115
     20          6           0       11.863712    0.081605    1.360380
     21          6           0       11.705767   -0.559605   -1.282406
     22          6           0       12.726801   -1.224512    1.433933
     23          6           0       13.360089   -1.730478    0.256401
     24          6           0       12.512718   -1.892426   -0.858851
     25          6           0       11.086075    0.050587    0.021211
     26          6           0       10.912949    0.145633    2.612522
     27          6           0       12.718909    1.326202    1.405292
     28          6           0       12.527829    0.443098   -1.976486
     29          6           0       -4.681265    2.233301   -0.472267
     30          6           0        9.893806    0.462621   -0.057428
     31          6           0       -3.263970    2.571855   -0.369168
     32          6           0        8.607411    0.863583   -0.221720
     33          6           0       -2.858950    3.987190   -0.592075
     34          6           0       -2.304372    1.565780   -0.217934
     35          6           0        7.447844    0.055880   -0.098137
     36          6           0        7.707365   -1.440342    0.170909
     37          6           0        6.270950    0.721086   -0.325788
     38          6           0       -0.929230    1.819891   -0.254387
     39          6           0        5.007998    0.035277   -0.054752
     40          6           0        0.032853    0.872542    0.000297
     41          6           0        3.811528    0.743000   -0.146683
     42          6           0        1.473763    1.116228   -0.073491
     43          6           0        2.521936    0.212251    0.130370
     44          6           0        2.320250   -1.316742    0.323716
     45          1           0      -12.800677   -2.819051   -1.272942
     46          1           0      -13.808630   -1.746552   -1.965989
     47          1           0      -13.847704    0.018197    1.775014
     48          1           0      -13.911883    0.626577   -0.057024
     49          1           0      -14.536539   -1.689988    0.325755
     50          1           0      -10.183871   -2.478515   -1.573356
     51          1           0      -11.306938   -2.665684   -3.155838
     52          1           0       -9.854091   -1.021872   -2.657302
     53          1           0       -9.443163    1.238720   -0.851282
     54          1           0      -10.238590    0.236178    2.375745
     55          1           0      -11.694044   -0.247027    3.103802
     56          1           0      -11.043915   -1.374405    2.201318
     57          1           0      -12.345380    2.152259    0.235336
     58          1           0      -12.494021    2.258647    1.900537
     59          1           0      -10.871545    2.086583    1.170983
     60          1           0      -12.051887   -2.761366    1.317334
     61          1           0       -8.913829   -1.481162    0.727055
     62          1           0       -5.649906   -1.929538   -0.209788
     63          1           0       -5.882117   -1.750268    1.616617
     64          1           0       -7.314651   -2.626782    0.262809
     65          1           0       -7.244788    1.605769   -0.231840
     66          1           0       -4.544884    0.190623    0.248195
     67          1           0       13.556609   -1.093286    2.167467
     68          1           0       12.114606   -1.969065    1.880816
     69          1           0       13.902878   -2.585847    0.473334
     70          1           0       13.162909   -2.232132   -1.612018
     71          1           0       11.595294   -2.502758   -0.604448
     72          1           0       11.500862   -0.138338    3.476118
     73          1           0       10.344186    1.205792    2.598921
     74          1           0       10.241315   -0.706310    2.365453
     75          1           0       13.407514    1.176398    0.691034
     76          1           0       12.365802    2.349704    1.233589
     77          1           0       13.150842    1.219512    2.322573
     78          1           0       13.224219    0.094096   -2.854729
     79          1           0       11.986182    1.363515   -2.220467
     80          1           0       13.368168    0.860155   -1.306376
     81          1           0       -5.236789    3.097864   -0.857335
     82          1           0       10.128076   -0.220405   -2.291084
     83          1           0       15.205469   -0.790005    0.615763
     84          1           0        8.184951    1.986105   -0.513103
     85          1           0       -2.255006    4.374562    0.369149
     86          1           0       -2.167530    4.243631   -1.506758
     87          1           0       -3.722338    4.858997   -0.732407
     88          1           0       -2.678200    0.477838   -0.155132
     89          1           0        6.878360   -2.139282    0.418686
     90          1           0        8.318564   -1.794449   -0.555517
     91          1           0        8.065066   -1.369539    1.080138
     92          1           0        6.336153    1.753788   -0.224315
     93          1           0       -0.631907    2.930190   -0.168917
     94          1           0        4.946469   -0.995156    0.434578
     95          1           0       -0.106785   -0.121002    0.517901
     96          1           0        3.892187    1.762019   -0.573539
     97          1           0        1.721448    2.239374   -0.466789
     98          1           0        1.279565   -1.519472    0.270397
     99          1           0        2.944468   -1.902185   -0.450874
    100          1           0        2.752216   -1.486771    1.302224
 ---------------------------------------------------------------------

 SCF Done:  E(RCAM-B3LYP) =  -1857.27475658     A.U. after   15 cycles

 Excitation energies and oscillator strengths:

 Excited State   1:      Singlet-A      2.2376 eV  554.09 nm  f=2.9728  <S**2>=0.000
     163 ->166        -0.14252
     164 ->165         0.69121
 This state for optimization and/or second-order correction.
 Total Energy, E(TD-HF/TD-DFT) =  -1857.19252605
 Copying the excited state density for this state as the 1-particle RhoCI density.

 The electronic state is 1-A.
 Alpha  occ. eigenvalues --  -19.21813 -19.21382 -19.21166 -19.20540 -10.32646
 Alpha  occ. eigenvalues --  -10.32320 -10.31728 -10.29707 -10.29633 -10.29285
 Alpha  occ. eigenvalues --  -10.29109 -10.28749 -10.28620 -10.28393 -10.27904
 Alpha  occ. eigenvalues --  -10.27902 -10.27497 -10.27484 -10.27458 -10.27411
 Alpha  occ. eigenvalues --  -10.27243 -10.27123 -10.27081 -10.26997 -10.26942
 Alpha  occ. eigenvalues --  -10.26852 -10.26792 -10.26740 -10.26661 -10.26621
 Alpha  occ. eigenvalues --  -10.26619 -10.26608 -10.26318 -10.25937 -10.25839
 Alpha  occ. eigenvalues --  -10.25744 -10.25706 -10.25539 -10.25167 -10.24992
 Alpha  occ. eigenvalues --  -10.23876 -10.23167 -10.22817 -10.22635  -1.17089
 Alpha  occ. eigenvalues --   -1.08906  -1.07642  -1.05185  -0.93868  -0.92282
 Alpha  occ. eigenvalues --   -0.91847  -0.91132  -0.90669  -0.89978  -0.87795
 Alpha  occ. eigenvalues --   -0.87283  -0.86719  -0.86028  -0.84642  -0.83000
 Alpha  occ. eigenvalues --   -0.81606  -0.81024  -0.79988  -0.78563  -0.77834
 Alpha  occ. eigenvalues --   -0.77565  -0.76840  -0.76796  -0.76024  -0.75667
 Alpha  occ. eigenvalues --   -0.75197  -0.73391  -0.72851  -0.70444  -0.69902
 Alpha  occ. eigenvalues --   -0.68311  -0.66672  -0.65179  -0.64869  -0.64011
 Alpha  occ. eigenvalues --   -0.63031  -0.61171  -0.60472  -0.59706  -0.59352
 Alpha  occ. eigenvalues --   -0.58390  -0.58130  -0.57507  -0.57206  -0.56839
 Alpha  occ. eigenvalues --   -0.55892  -0.55365  -0.54954  -0.54559  -0.54425
 Alpha  occ. eigenvalues --   -0.53786  -0.53351  -0.52766  -0.52440  -0.51882
 Alpha  occ. eigenvalues --   -0.51645  -0.51262  -0.51111  -0.50664  -0.50353
 Alpha  occ. eigenvalues --   -0.49252  -0.48835  -0.48538  -0.48442  -0.48054
 Alpha  occ. eigenvalues --   -0.48036  -0.47723  -0.47143  -0.47083  -0.46898
 Alpha  occ. eigenvalues --   -0.46388  -0.45994  -0.45614  -0.45473  -0.45437
 Alpha  occ. eigenvalues --   -0.44467  -0.44393  -0.44238  -0.43687  -0.43442
 Alpha  occ. eigenvalues --   -0.43224  -0.43003  -0.42606  -0.42323  -0.42195
 Alpha  occ. eigenvalues --   -0.41948  -0.41604  -0.41336  -0.41239  -0.41147
 Alpha  occ. eigenvalues --   -0.41061  -0.40724  -0.40545  -0.40250  -0.40009
 Alpha  occ. eigenvalues --   -0.39821  -0.39697  -0.39595  -0.39472  -0.38913
 Alpha  occ. eigenvalues --   -0.38479  -0.37732  -0.37297  -0.37023  -0.36579
 Alpha  occ. eigenvalues --   -0.36076  -0.35845  -0.35238  -0.34270  -0.33631
 Alpha  occ. eigenvalues --   -0.33308  -0.32394  -0.31720  -0.31238  -0.30829
 Alpha  occ. eigenvalues --   -0.30487  -0.27792  -0.24096  -0.19943
 Alpha virt. eigenvalues --   -0.05753  -0.00855   0.02695   0.06317   0.06635
 Alpha virt. eigenvalues --    0.09011   0.09404   0.09529   0.09992   0.11196
 Alpha virt. eigenvalues --    0.12027   0.12501   0.12732   0.12903   0.13437

 Mulliken charges:
               1
     1  O   -0.490817
     2  O   -0.590680
     3  O   -0.563579
     4  O   -0.593462
     5  C    0.174531
     6  C    0.289452
     7  C    0.057121
     8  C   -0.231894
     9  C   -0.207503
    10  C    0.198171
    11  C   -0.316939
    12  C   -0.135071
    13  C   -0.291273
    14  C   -0.301207
    15  C   -0.072393
    16  C    0.097512
    17  C   -0.362466
    18  C   -0.083628
    19  C   -0.084979
    20  C    0.000014
    21  C    0.240915
    22  C   -0.198464
    23  C    0.179540
    24  C   -0.185976
    25  C   -0.141777
    26  C   -0.302204
    27  C   -0.286642
    28  C   -0.308990
    29  C   -0.121970
    30  C    0.190876
    31  C    0.103191
    32  C   -0.299910
    33  C   -0.385564
    34  C   -0.093596
    35  C    0.140808
    36  C   -0.359176
    37  C   -0.144296
    38  C   -0.104206
    39  C   -0.107255
    40  C   -0.091672
    41  C   -0.103478
    42  C   -0.129183
    43  C    0.082531
    44  C   -0.358188
    45  H    0.121344
    46  H    0.103401
    47  H    0.107080
    48  H    0.083143
    49  H    0.106171
    50  H    0.109675
    51  H    0.051805
    52  H    0.119973
    53  H    0.102865
    54  H    0.098486
    55  H    0.111891
    56  H    0.054416
    57  H    0.121297
    58  H    0.074875
    59  H    0.105135
    60  H    0.306183
    61  H    0.076133
    62  H    0.129813
    63  H    0.115883
    64  H    0.075859
    65  H    0.087540
    66  H    0.082818
    67  H    0.072875
    68  H    0.108287
    69  H    0.097996
    70  H    0.118308
    71  H    0.123386
    72  H    0.105982
    73  H    0.106241
    74  H    0.103464
    75  H    0.117636
    76  H    0.103808
    77  H    0.094787
    78  H    0.106896
    79  H    0.093145
    80  H    0.126948
    81  H    0.087433
    82  H    0.305861
    83  H    0.305865
    84  H    0.093242
    85  H    0.112028
    86  H    0.122733
    87  H    0.092665
    88  H    0.083086
    89  H    0.097325
    90  H    0.146986
    91  H    0.140068
    92  H    0.092065
    93  H    0.096322
    94  H    0.084386
    95  H    0.086549
    96  H    0.083623
    97  H    0.067183
    98  H    0.115937
    99  H    0.125775
   100  H    0.129101
 Sum of Mulliken charges =  -0.00000

 Dipole moment (field-independent basis, Debye):
    X=              4.9930    Y=             -0.2541    Z=              2.9519  Tot=              5.8059
 Quadrupole moment (field-independent basis, Debye-Ang):
   XX=           -275.0987   YY=           -258.6116   ZZ=           -279.5239
   XY=             -0.1949   XZ=             36.5788   YZ=             -4.6512

 Normal termination of Gaussian 16 at Fri Aug  2 08:15:41 2019.
