 Gaussian 16, Revision A.03,
 Gaussian 16:  ES64L-G16RevA.03 25-Dec-2016

 -------------------------------------
 # td=(NStates=1) CAM-B3LYP/6-31G(d,p)
 -------------------------------------

 --
 TD
 --
 Symbolic Z-matrix:
 Charge =  0 Multiplicity = 1

                         Standard orientation:
 ---------------------------------------------------------------------
 Center     Atomic      Atomic             Coordinates (Angstroms)
 Number     Number       Type             X           Y           Z
 ---------------------------------------------------------------------
      1          8           0       11.709650    0.212590    1.617574
      2          8           0       13.176710   -2.390845   -1.419444
      3          8           0      -10.563101   -1.324587    2.107662
      4          8           0      -14.592381   -0.981141    0.184655
      5          6           0       10.959461   -0.225024    0.466860
      6          6           0       11.714957   -1.177644    1.232167
      7          6           0       11.706847    0.439646   -0.822403
      8          6           0       13.156182   -1.643395    0.904982
      9          6           0       13.250388    0.139036   -0.840986
     10          6           0       13.637840   -1.318884   -0.505945
     11          6           0       10.920722   -2.026231    2.209178
     12          6           0        9.493299    0.049296    0.470623
     13          6           0       11.082068   -0.130605   -2.142342
     14          6           0       11.624396    1.929897   -0.810508
     15          6           0        8.521741   -0.760658   -0.182359
     16          6           0        7.127382   -0.629625   -0.220114
     17          6           0        6.408206   -1.798947   -0.702446
     18          6           0        6.584718    0.657680    0.050727
     19          6           0        5.279531    0.884725    0.408609
     20          6           0      -11.919431    0.249391   -1.201517
     21          6           0      -11.582877   -0.774702    1.299490
     22          6           0      -12.756862   -1.044403   -1.515869
     23          6           0      -13.485297   -1.579252   -0.279696
     24          6           0      -12.473014   -1.932008    0.725644
     25          6           0      -10.987705   -0.072640    0.001644
     26          6           0      -11.089371    0.619989   -2.487327
     27          6           0      -12.792189    1.514633   -0.860672
     28          6           0      -12.351007    0.156880    2.201038
     29          6           0        4.671602    2.094644    0.525905
     30          6           0       -9.839198    0.313580    0.195863
     31          6           0        3.390635    2.515922    0.466390
     32          6           0       -8.606305    0.880247    0.379164
     33          6           0        2.980052    3.974185    0.860470
     34          6           0        2.361069    1.652243    0.038302
     35          6           0       -7.514837    0.067951   -0.066279
     36          6           0       -7.719301   -1.329497   -0.571702
     37          6           0       -6.284542    0.657719   -0.002538
     38          6           0        0.936805    1.842132    0.139278
     39          6           0       -4.984707   -0.011247   -0.116231
     40          6           0       -0.054128    0.902147   -0.030047
     41          6           0       -3.756602    0.694333   -0.048934
     42          6           0       -1.462715    1.158287    0.070931
     43          6           0       -2.520118    0.172563   -0.169265
     44          6           0       -2.260946   -1.126575   -0.800365
     45          1           0       13.125519   -2.721952    1.010529
     46          1           0       13.943273   -1.386102    1.808476
     47          1           0       13.369154    0.297941   -1.801704
     48          1           0       13.841629    0.828812   -0.278108
     49          1           0       14.699871   -1.574167   -0.509779
     50          1           0       10.970217   -3.006204    1.641824
     51          1           0       11.385264   -1.678626    3.267002
     52          1           0        9.810098   -1.467730    2.009911
     53          1           0        9.113476    0.707336    1.183001
     54          1           0       10.112072    0.418922   -2.340194
     55          1           0       11.731930    0.128091   -2.946992
     56          1           0       10.815998   -1.269370   -2.119116
     57          1           0       12.069516    2.107661    0.008431
     58          1           0       12.008616    2.313498   -1.662561
     59          1           0       10.648272    2.550866   -0.744347
     60          1           0       12.211997   -2.559227   -1.122303
     61          1           0        8.972398   -1.514611   -0.692832
     62          1           0        5.788162   -2.415436   -0.025407
     63          1           0        5.613050   -1.695972   -1.437485
     64          1           0        7.109896   -2.533631   -1.039457
     65          1           0        7.367740    1.444869    0.203945
     66          1           0        4.541556    0.097695    0.296121
     67          1           0      -13.450207   -0.678182   -2.258504
     68          1           0      -12.147671   -1.570287   -2.104319
     69          1           0      -13.922366   -2.498965   -0.581671
     70          1           0      -13.049742   -2.282483    1.531936
     71          1           0      -11.802402   -2.814849    0.594735
     72          1           0      -11.706596    0.854835   -3.284224
     73          1           0      -10.463774    1.556076   -2.172369
     74          1           0      -10.222531   -0.138253   -2.823469
     75          1           0      -13.499705    1.162766    0.090524
     76          1           0      -12.094294    2.341326   -0.657957
     77          1           0      -13.299768    1.655977   -1.827574
     78          1           0      -12.600495   -0.601285    2.947966
     79          1           0      -11.839437    1.047079    2.638883
     80          1           0      -13.262463    0.435557    1.582900
     81          1           0        5.129504    3.017005    0.845472
     82          1           0       -9.871805   -0.591708    2.138011
     83          1           0      -15.226037   -0.784551   -0.621902
     84          1           0       -8.501313    1.906774    0.825172
     85          1           0        2.616151    4.205540    0.000285
     86          1           0        2.261856    3.789761    1.683717
     87          1           0        3.848282    4.415613    1.370587
     88          1           0        2.781274    0.631105   -0.376327
     89          1           0       -6.811802   -1.926343   -0.529403
     90          1           0       -8.313588   -1.796794    0.340316
     91          1           0       -8.203886   -1.206945   -1.487169
     92          1           0       -6.031416    1.731372    0.202573
     93          1           0        0.854202    2.828474    0.661823
     94          1           0       -4.873923   -1.043020   -0.285628
     95          1           0        0.445523    0.047512   -0.350126
     96          1           0       -3.899168    1.732794    0.199774
     97          1           0       -1.842070    2.129189    0.261856
     98          1           0       -1.173492   -1.271065   -0.840021
     99          1           0       -2.382800   -2.134665   -0.110644
    100          1           0       -2.741277   -1.264895   -1.856099
 ---------------------------------------------------------------------

 SCF Done:  E(RCAM-B3LYP) =  -1857.26535955     A.U. after   16 cycles

 Excitation energies and oscillator strengths:

 Excited State   1:      Singlet-A      1.8099 eV  685.03 nm  f=3.0571  <S**2>=0.000
     163 ->166         0.13677
     164 ->165         0.69925
     164 <-165        -0.11512
 This state for optimization and/or second-order correction.
 Total Energy, E(TD-HF/TD-DFT) =  -1857.19884652
 Copying the excited state density for this state as the 1-particle RhoCI density.

 The electronic state is 1-A.
 Alpha  occ. eigenvalues --  -19.23816 -19.21386 -19.21148 -19.21006 -10.32022
 Alpha  occ. eigenvalues --  -10.31649 -10.31307 -10.30806 -10.30652 -10.29189
 Alpha  occ. eigenvalues --  -10.28067 -10.27763 -10.27669 -10.27608 -10.27234
 Alpha  occ. eigenvalues --  -10.27217 -10.27182 -10.27118 -10.27111 -10.26866
 Alpha  occ. eigenvalues --  -10.26798 -10.26741 -10.26700 -10.26649 -10.26590
 Alpha  occ. eigenvalues --  -10.26556 -10.26355 -10.26323 -10.26317 -10.26216
 Alpha  occ. eigenvalues --  -10.26152 -10.25998 -10.25937 -10.25734 -10.25365
 Alpha  occ. eigenvalues --  -10.25298 -10.25227 -10.25109 -10.25073 -10.24883
 Alpha  occ. eigenvalues --  -10.24857 -10.24466 -10.23666 -10.21913  -1.14504
 Alpha  occ. eigenvalues --   -1.13249  -1.09753  -1.06797  -0.93327  -0.92807
 Alpha  occ. eigenvalues --   -0.92127  -0.91348  -0.90968  -0.90229  -0.87536
 Alpha  occ. eigenvalues --   -0.86565  -0.85984  -0.85489  -0.84965  -0.83113
 Alpha  occ. eigenvalues --   -0.82581  -0.80893  -0.80257  -0.78236  -0.77863
 Alpha  occ. eigenvalues --   -0.77790  -0.77038  -0.76679  -0.76474  -0.75462
 Alpha  occ. eigenvalues --   -0.75425  -0.74693  -0.72956  -0.70398  -0.69973
 Alpha  occ. eigenvalues --   -0.68684  -0.67442  -0.66112  -0.64840  -0.63493
 Alpha  occ. eigenvalues --   -0.63302  -0.62780  -0.61121  -0.60274  -0.60089
 Alpha  occ. eigenvalues --   -0.59438  -0.59041  -0.58150  -0.57362  -0.56549
 Alpha  occ. eigenvalues --   -0.56151  -0.55913  -0.55126  -0.54356  -0.53921
 Alpha  occ. eigenvalues --   -0.53616  -0.53577  -0.52987  -0.52784  -0.52553
 Alpha  occ. eigenvalues --   -0.52241  -0.51503  -0.51183  -0.51083  -0.50390
 Alpha  occ. eigenvalues --   -0.49922  -0.49691  -0.49065  -0.48995  -0.48368
 Alpha  occ. eigenvalues --   -0.48308  -0.47877  -0.47404  -0.47250  -0.46712
 Alpha  occ. eigenvalues --   -0.46568  -0.46414  -0.46300  -0.45725  -0.45459
 Alpha  occ. eigenvalues --   -0.45052  -0.44879  -0.44467  -0.44420  -0.44202
 Alpha  occ. eigenvalues --   -0.43892  -0.43450  -0.43162  -0.42902  -0.42313
 Alpha  occ. eigenvalues --   -0.42076  -0.41760  -0.41682  -0.41496  -0.41260
 Alpha  occ. eigenvalues --   -0.41036  -0.40616  -0.40533  -0.40478  -0.39959
 Alpha  occ. eigenvalues --   -0.39687  -0.39437  -0.39186  -0.38780  -0.38572
 Alpha  occ. eigenvalues --   -0.38482  -0.38001  -0.37960  -0.37450  -0.37335
 Alpha  occ. eigenvalues --   -0.36744  -0.35384  -0.35279  -0.34836  -0.33501
 Alpha  occ. eigenvalues --   -0.32636  -0.32205  -0.32004  -0.30992  -0.30832
 Alpha  occ. eigenvalues --   -0.30411  -0.27721  -0.23299  -0.18696
 Alpha virt. eigenvalues --   -0.07162  -0.01693   0.02908   0.05906   0.08162
 Alpha virt. eigenvalues --    0.08707   0.08865   0.10425   0.11410   0.11850
 Alpha virt. eigenvalues --    0.12569   0.13081   0.13822   0.14159   0.14358

 Mulliken charges:
               1
     1  O   -0.507861
     2  O   -0.559171
     3  O   -0.573653
     4  O   -0.545866
     5  C    0.205534
     6  C    0.193645
     7  C   -0.001778
     8  C   -0.213435
     9  C   -0.164091
    10  C    0.146067
    11  C   -0.299259
    12  C   -0.141434
    13  C   -0.306425
    14  C   -0.294140
    15  C   -0.085049
    16  C    0.124367
    17  C   -0.400375
    18  C   -0.113357
    19  C   -0.085906
    20  C   -0.010678
    21  C    0.218453
    22  C   -0.182148
    23  C    0.184231
    24  C   -0.206404
    25  C   -0.094322
    26  C   -0.315566
    27  C   -0.284947
    28  C   -0.280994
    29  C   -0.058659
    30  C    0.133349
    31  C    0.011652
    32  C   -0.234276
    33  C   -0.346720
    34  C   -0.117749
    35  C    0.072227
    36  C   -0.347194
    37  C   -0.111173
    38  C   -0.098190
    39  C   -0.089191
    40  C   -0.078287
    41  C   -0.131197
    42  C   -0.127060
    43  C    0.147007
    44  C   -0.379666
    45  H    0.102806
    46  H    0.100674
    47  H    0.107398
    48  H    0.112303
    49  H    0.104993
    50  H    0.099534
    51  H    0.124935
    52  H    0.098972
    53  H    0.110453
    54  H    0.105162
    55  H    0.110057
    56  H    0.071580
    57  H    0.131942
    58  H    0.104869
    59  H    0.080902
    60  H    0.297289
    61  H    0.065729
    62  H    0.118292
    63  H    0.125889
    64  H    0.116469
    65  H    0.090385
    66  H    0.077995
    67  H    0.066757
    68  H    0.117834
    69  H    0.077715
    70  H    0.110290
    71  H    0.127929
    72  H    0.111120
    73  H    0.100255
    74  H    0.089983
    75  H    0.105032
    76  H    0.111757
    77  H    0.096009
    78  H    0.123274
    79  H    0.096464
    80  H    0.103565
    81  H    0.058675
    82  H    0.304764
    83  H    0.323918
    84  H    0.119926
    85  H    0.150986
    86  H    0.131689
    87  H    0.109730
    88  H    0.061488
    89  H    0.118682
    90  H    0.119933
    91  H    0.137487
    92  H    0.073828
    93  H    0.071290
    94  H    0.077148
    95  H    0.088028
    96  H    0.072310
    97  H    0.093180
    98  H    0.116827
    99  H    0.095348
   100  H    0.127841
 Sum of Mulliken charges =  -0.00000

 Dipole moment (field-independent basis, Debye):
    X=             -6.5436    Y=              0.4776    Z=             -2.5298  Tot=              7.0318
 Quadrupole moment (field-independent basis, Debye-Ang):
   XX=           -266.5071   YY=           -262.5581   ZZ=           -278.5001
   XY=             -0.7430   XZ=             39.1219   YZ=              4.7036

 Normal termination of Gaussian 16 at Thu Aug  1 07:25:09 2019.
