 Gaussian 16, Revision A.03,
 Gaussian 16:  ES64L-G16RevA.03 25-Dec-2016

 -------------------------------------
 # td=(NStates=1) CAM-B3LYP/6-31G(d,p)
 -------------------------------------

 --
 TD
 --
 Symbolic Z-matrix:
 Charge =  0 Multiplicity = 1

                         Standard orientation:
 ---------------------------------------------------------------------
 Center     Atomic      Atomic             Coordinates (Angstroms)
 Number     Number       Type             X           Y           Z
 ---------------------------------------------------------------------
      1          8           0      -11.867584    0.278749   -1.527406
      2          8           0      -12.924960   -2.576266    1.374000
      3          8           0       10.640178   -0.652420   -2.226678
      4          8           0       14.482382   -1.209933   -0.185661
      5          6           0      -11.068746   -0.120578   -0.328767
      6          6           0      -11.725512   -1.176103   -1.249279
      7          6           0      -11.818973    0.311710    0.984381
      8          6           0      -13.072932   -1.785572   -0.922262
      9          6           0      -13.289355   -0.082240    0.926443
     10          6           0      -13.563716   -1.611858    0.536235
     11          6           0      -11.013846   -1.824690   -2.359598
     12          6           0       -9.626200    0.093882   -0.340967
     13          6           0      -11.095307   -0.146178    2.279461
     14          6           0      -11.779801    1.807906    1.085581
     15          6           0       -8.646831   -0.656952    0.093033
     16          6           0       -7.222687   -0.561068    0.073503
     17          6           0       -6.381797   -1.810121    0.315026
     18          6           0       -6.681134    0.687831   -0.127747
     19          6           0       -5.226665    0.903998   -0.202202
     20          6           0       11.897744   -0.174558    1.436096
     21          6           0       11.774390   -0.452413   -1.280574
     22          6           0       12.575778   -1.567631    1.417454
     23          6           0       13.263950   -1.934159    0.080930
     24          6           0       12.313829   -1.846023   -1.081991
     25          6           0       11.145975    0.000671    0.102113
     26          6           0       10.919091   -0.071574    2.624700
     27          6           0       12.959112    0.960575    1.551354
     28          6           0       12.638539    0.618079   -1.787776
     29          6           0       -4.640006    2.194909   -0.343533
     30          6           0        9.962361    0.581408    0.086205
     31          6           0       -3.257228    2.564372   -0.428238
     32          6           0        8.677929    1.022540   -0.191852
     33          6           0       -2.947879    3.948666   -0.433590
     34          6           0       -2.275846    1.555824   -0.417023
     35          6           0        7.508846    0.148627    0.016624
     36          6           0        7.671152   -1.264673    0.033368
     37          6           0        6.281388    0.793532   -0.126596
     38          6           0       -1.009815    1.946563   -0.173928
     39          6           0        5.029931    0.178049    0.031777
     40          6           0        0.087547    0.953971   -0.133837
     41          6           0        3.860523    0.956511    0.014940
     42          6           0        1.430382    1.331327   -0.073778
     43          6           0        2.562645    0.431988   -0.031150
     44          6           0        2.399910   -1.005494    0.144962
     45          1           0      -13.106887   -2.915909   -1.111678
     46          1           0      -13.855999   -1.410339   -1.608640
     47          1           0      -13.724683   -0.191428    1.914438
     48          1           0      -14.042024    0.470891    0.144896
     49          1           0      -14.735941   -1.865969    0.622614
     50          1           0      -10.761581   -2.681456   -1.878559
     51          1           0      -11.520716   -1.943822   -3.203217
     52          1           0      -10.154360   -1.282291   -2.471761
     53          1           0       -9.543820    1.021286   -0.840771
     54          1           0      -10.188160    0.314516    2.374349
     55          1           0      -11.660335    0.112649    3.200593
     56          1           0      -11.043776   -1.264066    2.387844
     57          1           0      -12.406704    2.243752    0.368336
     58          1           0      -12.157143    2.345249    1.938089
     59          1           0      -10.670896    2.301681    0.755293
     60          1           0      -12.050330   -2.696944    1.059401
     61          1           0       -8.890362   -1.614081    0.345081
     62          1           0       -6.137622   -2.462880   -0.804759
     63          1           0       -5.475026   -1.429084    0.834763
     64          1           0       -7.125026   -2.498016    1.041101
     65          1           0       -7.465167    1.622579   -0.329181
     66          1           0       -4.385029    0.116048    0.076165
     67          1           0       13.320357   -1.621140    2.268334
     68          1           0       11.860746   -2.229801    1.585413
     69          1           0       13.598578   -3.028696    0.275892
     70          1           0       12.798890   -1.973334   -2.069931
     71          1           0       11.602029   -2.543929   -1.071803
     72          1           0       11.432821   -0.278353    3.470585
     73          1           0       10.642097    0.906144    2.687483
     74          1           0       10.276705   -0.922189    2.466377
     75          1           0       13.735758    0.796231    0.871504
     76          1           0       12.429823    2.002681    1.470157
     77          1           0       13.238696    0.900497    2.576554
     78          1           0       13.193631    0.281872   -2.596316
     79          1           0       12.123966    1.580801   -1.743685
     80          1           0       13.481270    1.067448   -1.234220
     81          1           0       -5.433832    2.851767   -0.593246
     82          1           0       10.195262    0.264124   -2.167418
     83          1           0       15.047693   -1.093736    0.521761
     84          1           0        8.303587    2.166169   -0.417168
     85          1           0       -2.338034    4.311748    0.364332
     86          1           0       -2.614245    4.352482   -1.360627
     87          1           0       -3.795968    4.651351   -0.366238
     88          1           0       -2.704501    0.462873   -0.406315
     89          1           0        6.899285   -1.977709   -0.221432
     90          1           0        8.262587   -1.554434   -0.671204
     91          1           0        8.166178   -1.698326    1.067080
     92          1           0        6.422932    1.905557   -0.182982
     93          1           0       -0.714224    2.992422   -0.230470
     94          1           0        5.100711   -0.868949    0.131534
     95          1           0       -0.092486   -0.170906   -0.130529
     96          1           0        3.940774    1.998169    0.146868
     97          1           0        1.665571    2.322015   -0.225067
     98          1           0        1.232611   -1.226992   -0.090307
     99          1           0        3.168065   -1.763723   -0.319825
    100          1           0        2.313658   -1.281873    1.109486
 ---------------------------------------------------------------------

 SCF Done:  E(RCAM-B3LYP) =  -1857.29569096     A.U. after   16 cycles

 Excitation energies and oscillator strengths:

 Excited State   1:      Singlet-A      1.8401 eV  673.79 nm  f=3.1029  <S**2>=0.000
     163 ->166        -0.11930
     164 ->165         0.70481
     164 <-165        -0.13015
 This state for optimization and/or second-order correction.
 Total Energy, E(TD-HF/TD-DFT) =  -1857.22806865
 Copying the excited state density for this state as the 1-particle RhoCI density.

 The electronic state is 1-A.
 Alpha  occ. eigenvalues --  -19.21679 -19.21087 -19.21029 -19.20926 -10.32557
 Alpha  occ. eigenvalues --  -10.32469 -10.32338 -10.31588 -10.31550 -10.29616
 Alpha  occ. eigenvalues --  -10.29198 -10.28251 -10.28012 -10.27812 -10.27803
 Alpha  occ. eigenvalues --  -10.27583 -10.27571 -10.27527 -10.27493 -10.27279
 Alpha  occ. eigenvalues --  -10.27168 -10.26919 -10.26828 -10.26596 -10.26342
 Alpha  occ. eigenvalues --  -10.26212 -10.26076 -10.25976 -10.25878 -10.25853
 Alpha  occ. eigenvalues --  -10.25808 -10.25805 -10.25721 -10.25603 -10.25479
 Alpha  occ. eigenvalues --  -10.24912 -10.24842 -10.24609 -10.24521 -10.24377
 Alpha  occ. eigenvalues --  -10.24026 -10.23892 -10.23351 -10.22358  -1.11249
 Alpha  occ. eigenvalues --   -1.10638  -1.09746  -1.07198  -0.93430  -0.92536
 Alpha  occ. eigenvalues --   -0.92133  -0.91724  -0.90637  -0.90035  -0.87614
 Alpha  occ. eigenvalues --   -0.86786  -0.86643  -0.85626  -0.84959  -0.83513
 Alpha  occ. eigenvalues --   -0.82314  -0.81479  -0.81214  -0.79466  -0.78337
 Alpha  occ. eigenvalues --   -0.77793  -0.77281  -0.76351  -0.75972  -0.75574
 Alpha  occ. eigenvalues --   -0.75383  -0.74726  -0.72460  -0.70703  -0.69945
 Alpha  occ. eigenvalues --   -0.68992  -0.66454  -0.65118  -0.64630  -0.64273
 Alpha  occ. eigenvalues --   -0.63937  -0.62836  -0.61255  -0.60587  -0.59539
 Alpha  occ. eigenvalues --   -0.58953  -0.58739  -0.57899  -0.56749  -0.56547
 Alpha  occ. eigenvalues --   -0.55817  -0.55506  -0.54545  -0.54498  -0.54006
 Alpha  occ. eigenvalues --   -0.53752  -0.53285  -0.53122  -0.52701  -0.52178
 Alpha  occ. eigenvalues --   -0.51983  -0.51590  -0.51497  -0.50721  -0.50471
 Alpha  occ. eigenvalues --   -0.50076  -0.49244  -0.49137  -0.48724  -0.48256
 Alpha  occ. eigenvalues --   -0.48062  -0.47910  -0.47715  -0.47342  -0.47210
 Alpha  occ. eigenvalues --   -0.46928  -0.46511  -0.46240  -0.46167  -0.45426
 Alpha  occ. eigenvalues --   -0.45226  -0.45135  -0.44929  -0.44307  -0.43827
 Alpha  occ. eigenvalues --   -0.43615  -0.43349  -0.43232  -0.42721  -0.42349
 Alpha  occ. eigenvalues --   -0.42233  -0.41857  -0.41697  -0.41289  -0.41154
 Alpha  occ. eigenvalues --   -0.40810  -0.40653  -0.40443  -0.40301  -0.40008
 Alpha  occ. eigenvalues --   -0.39716  -0.39686  -0.39231  -0.38961  -0.38492
 Alpha  occ. eigenvalues --   -0.38374  -0.38016  -0.37822  -0.37522  -0.37232
 Alpha  occ. eigenvalues --   -0.36793  -0.36208  -0.35094  -0.34077  -0.33581
 Alpha  occ. eigenvalues --   -0.32961  -0.32448  -0.31645  -0.31461  -0.30384
 Alpha  occ. eigenvalues --   -0.29949  -0.27394  -0.24300  -0.18271
 Alpha virt. eigenvalues --   -0.06953  -0.00795   0.02908   0.05926   0.06715
 Alpha virt. eigenvalues --    0.09562   0.10223   0.10588   0.11068   0.11341
 Alpha virt. eigenvalues --    0.11753   0.12522   0.12746   0.13172   0.13531

 Mulliken charges:
               1
     1  O   -0.525802
     2  O   -0.536002
     3  O   -0.574856
     4  O   -0.551082
     5  C    0.190575
     6  C    0.189109
     7  C    0.043102
     8  C   -0.224348
     9  C   -0.184435
    10  C    0.138453
    11  C   -0.290538
    12  C   -0.114955
    13  C   -0.307022
    14  C   -0.302898
    15  C   -0.046858
    16  C    0.089198
    17  C   -0.331252
    18  C   -0.114858
    19  C   -0.099512
    20  C   -0.017407
    21  C    0.230903
    22  C   -0.188976
    23  C    0.159378
    24  C   -0.175110
    25  C   -0.042625
    26  C   -0.291401
    27  C   -0.305701
    28  C   -0.291651
    29  C   -0.125813
    30  C    0.068250
    31  C    0.111582
    32  C   -0.270698
    33  C   -0.410614
    34  C   -0.078551
    35  C    0.157672
    36  C   -0.384016
    37  C   -0.112281
    38  C   -0.114972
    39  C   -0.082165
    40  C   -0.093605
    41  C   -0.118041
    42  C   -0.113884
    43  C    0.121740
    44  C   -0.377447
    45  H    0.088937
    46  H    0.120490
    47  H    0.108936
    48  H    0.097858
    49  H    0.080188
    50  H    0.102330
    51  H    0.126539
    52  H    0.120356
    53  H    0.107200
    54  H    0.122266
    55  H    0.103757
    56  H    0.083189
    57  H    0.122076
    58  H    0.110657
    59  H    0.058972
    60  H    0.301899
    61  H    0.054812
    62  H    0.094357
    63  H    0.130352
    64  H    0.088897
    65  H    0.091347
    66  H    0.071672
    67  H    0.080809
    68  H    0.107212
    69  H    0.070905
    70  H    0.116564
    71  H    0.128476
    72  H    0.101122
    73  H    0.118980
    74  H    0.107230
    75  H    0.118692
    76  H    0.089903
    77  H    0.097676
    78  H    0.122458
    79  H    0.100595
    80  H    0.119419
    81  H    0.078284
    82  H    0.304581
    83  H    0.302068
    84  H    0.097345
    85  H    0.129523
    86  H    0.132201
    87  H    0.111085
    88  H    0.085851
    89  H    0.110444
    90  H    0.154856
    91  H    0.088112
    92  H    0.068282
    93  H    0.101646
    94  H    0.087786
    95  H    0.081212
    96  H    0.084641
    97  H    0.076700
    98  H    0.075889
    99  H    0.111083
   100  H    0.150694
 Sum of Mulliken charges =  -0.00000

 Dipole moment (field-independent basis, Debye):
    X=              5.5145    Y=             -0.1617    Z=              2.2584  Tot=              5.9612
 Quadrupole moment (field-independent basis, Debye-Ang):
   XX=           -264.4366   YY=           -254.7833   ZZ=           -280.7202
   XY=             -0.6424   XZ=             37.0066   YZ=             -0.5448

 Normal termination of Gaussian 16 at Fri Aug  2 06:04:23 2019.
