 Gaussian 16, Revision A.03,
 Gaussian 16:  ES64L-G16RevA.03 25-Dec-2016

 -------------------------------------
 # td=(NStates=1) CAM-B3LYP/6-31G(d,p)
 -------------------------------------

 --
 TD
 --
 Symbolic Z-matrix:
 Charge =  0 Multiplicity = 1

                         Standard orientation:
 ---------------------------------------------------------------------
 Center     Atomic      Atomic             Coordinates (Angstroms)
 Number     Number       Type             X           Y           Z
 ---------------------------------------------------------------------
      1          8           0      -11.809929    0.611838   -1.242003
      2          8           0      -12.829757   -2.799137    1.005572
      3          8           0       10.530828   -0.879156   -2.076538
      4          8           0       14.340801   -0.985087   -0.222278
      5          6           0      -11.062903   -0.167092   -0.091135
      6          6           0      -11.730310   -0.808421   -1.302564
      7          6           0      -11.746960    0.042825    1.208033
      8          6           0      -13.043691   -1.631322   -1.161567
      9          6           0      -13.206478   -0.360317    1.072079
     10          6           0      -13.453288   -1.608701    0.396244
     11          6           0      -10.876174   -1.306737   -2.464653
     12          6           0       -9.506060    0.080430   -0.300539
     13          6           0      -10.885269   -0.661325    2.324463
     14          6           0      -11.685565    1.602186    1.417296
     15          6           0       -8.576584   -0.786946   -0.005506
     16          6           0       -7.146153   -0.547145   -0.079295
     17          6           0       -6.296935   -1.719722    0.042939
     18          6           0       -6.712287    0.733932   -0.177916
     19          6           0       -5.334573    1.079527   -0.248615
     20          6           0       11.868347   -0.151479    1.319873
     21          6           0       11.687053   -0.466317   -1.257286
     22          6           0       12.614567   -1.487374    1.322914
     23          6           0       13.309252   -1.902880    0.037028
     24          6           0       12.321493   -1.878346   -1.080403
     25          6           0       11.149712   -0.009669    0.054156
     26          6           0       11.002408   -0.186883    2.534524
     27          6           0       12.943142    0.942368    1.633263
     28          6           0       12.336565    0.670034   -1.999074
     29          6           0       -4.767811    2.307153   -0.237380
     30          6           0        9.944748    0.527580    0.027302
     31          6           0       -3.343432    2.582838   -0.284092
     32          6           0        8.651901    0.947817   -0.019780
     33          6           0       -2.956411    4.029236   -0.377604
     34          6           0       -2.342441    1.639196   -0.222848
     35          6           0        7.445921    0.220030    0.028131
     36          6           0        7.689956   -1.305205    0.279400
     37          6           0        6.235348    0.883017    0.138709
     38          6           0       -0.982051    2.003090   -0.275901
     39          6           0        4.961493    0.302217    0.136474
     40          6           0        0.057066    0.958334   -0.189803
     41          6           0        3.782184    0.972751    0.089912
     42          6           0        1.382993    1.248039   -0.154462
     43          6           0        2.501676    0.326120   -0.134122
     44          6           0        2.289402   -1.134960   -0.043602
     45          1           0      -13.005694   -2.662620   -1.411120
     46          1           0      -13.875344   -1.014299   -1.592699
     47          1           0      -13.615254   -0.523593    2.014408
     48          1           0      -13.904762    0.285610    0.562983
     49          1           0      -14.540727   -1.906296    0.460930
     50          1           0      -10.454529   -2.270587   -1.914748
     51          1           0      -11.548015   -1.699264   -3.268622
     52          1           0      -10.096187   -0.701721   -2.759453
     53          1           0       -9.338892    1.086633   -0.870077
     54          1           0       -9.874576   -0.291967    2.166578
     55          1           0      -11.410071   -0.284732    3.312251
     56          1           0      -11.325579   -1.788922    2.268403
     57          1           0      -11.958303    2.198396    0.387000
     58          1           0      -12.420950    1.799664    2.305839
     59          1           0      -10.528740    1.660478    1.598288
     60          1           0      -11.892675   -2.546139    0.727894
     61          1           0       -8.711920   -1.870761    0.349912
     62          1           0       -5.866206   -1.812193   -1.116848
     63          1           0       -5.392468   -1.607751    0.542814
     64          1           0       -6.774745   -2.641414    0.533772
     65          1           0       -7.443777    1.591083   -0.053922
     66          1           0       -4.605123    0.255467   -0.354841
     67          1           0       13.208980   -1.471528    2.309069
     68          1           0       11.853145   -2.371699    1.600039
     69          1           0       13.759820   -2.984846    0.111971
     70          1           0       12.554074   -2.341359   -2.150856
     71          1           0       11.503711   -2.686807   -0.886259
     72          1           0       11.509697   -0.387555    3.467967
     73          1           0       10.457396    0.933158    2.788072
     74          1           0       10.049809   -0.780613    2.542968
     75          1           0       13.625044    1.116473    0.764244
     76          1           0       12.474332    1.977357    1.989947
     77          1           0       13.700787    0.566972    2.377267
     78          1           0       12.640098    0.078825   -3.057995
     79          1           0       11.887399    1.672618   -2.499385
     80          1           0       13.360429    0.763141   -1.504626
     81          1           0       -5.511075    3.201096   -0.483772
     82          1           0        9.882376    0.049820   -1.965253
     83          1           0       14.998566   -0.859302    0.491820
     84          1           0        8.747973    2.143713   -0.446968
     85          1           0       -2.302595    4.060455    0.644482
     86          1           0       -2.153367    4.407622   -1.115884
     87          1           0       -3.929978    4.672459   -0.316639
     88          1           0       -2.883851    0.684218   -0.265120
     89          1           0        6.743148   -2.008090   -0.009695
     90          1           0        8.487610   -1.659480   -0.448462
     91          1           0        8.049827   -1.529446    1.224641
     92          1           0        6.453612    2.029165   -0.192868
     93          1           0       -0.623219    2.974423   -0.386215
     94          1           0        4.952374   -0.751971   -0.001066
     95          1           0       -0.240605   -0.120156   -0.177504
     96          1           0        3.816840    2.002290    0.242018
     97          1           0        1.770123    2.185848   -0.155534
     98          1           0        1.229264   -1.317751    0.223817
     99          1           0        2.727170   -1.618382   -0.923456
    100          1           0        2.810986   -1.340662    0.874917
 ---------------------------------------------------------------------

 SCF Done:  E(RCAM-B3LYP) =  -1857.27770483     A.U. after   15 cycles

 Excitation energies and oscillator strengths:

 Excited State   1:      Singlet-A      2.0589 eV  602.18 nm  f=3.0297  <S**2>=0.000
     163 ->166        -0.12736
     164 ->165         0.69791
     164 <-165        -0.10302
 This state for optimization and/or second-order correction.
 Total Energy, E(TD-HF/TD-DFT) =  -1857.20204062
 Copying the excited state density for this state as the 1-particle RhoCI density.

 The electronic state is 1-A.
 Alpha  occ. eigenvalues --  -19.22169 -19.21852 -19.21584 -19.20120 -10.32689
 Alpha  occ. eigenvalues --  -10.32553 -10.32329 -10.31844 -10.30627 -10.29128
 Alpha  occ. eigenvalues --  -10.28222 -10.28166 -10.28106 -10.27911 -10.27897
 Alpha  occ. eigenvalues --  -10.27566 -10.27533 -10.27455 -10.27440 -10.27418
 Alpha  occ. eigenvalues --  -10.27404 -10.27403 -10.27393 -10.27234 -10.27207
 Alpha  occ. eigenvalues --  -10.27157 -10.27153 -10.27151 -10.26971 -10.26670
 Alpha  occ. eigenvalues --  -10.26622 -10.26619 -10.26550 -10.26305 -10.26252
 Alpha  occ. eigenvalues --  -10.26221 -10.26081 -10.26069 -10.25840 -10.25789
 Alpha  occ. eigenvalues --  -10.25734 -10.25646 -10.25322 -10.24401  -1.11647
 Alpha  occ. eigenvalues --   -1.10766  -1.08457  -1.05641  -0.93869  -0.93238
 Alpha  occ. eigenvalues --   -0.92232  -0.91718  -0.91252  -0.90361  -0.87321
 Alpha  occ. eigenvalues --   -0.86379  -0.85851  -0.85639  -0.84740  -0.83663
 Alpha  occ. eigenvalues --   -0.82537  -0.81495  -0.79732  -0.78738  -0.76933
 Alpha  occ. eigenvalues --   -0.76670  -0.76482  -0.76041  -0.75300  -0.74799
 Alpha  occ. eigenvalues --   -0.74634  -0.74048  -0.73090  -0.70541  -0.69555
 Alpha  occ. eigenvalues --   -0.68508  -0.66482  -0.65391  -0.64665  -0.63954
 Alpha  occ. eigenvalues --   -0.63591  -0.62628  -0.60662  -0.60284  -0.59622
 Alpha  occ. eigenvalues --   -0.58311  -0.57862  -0.57379  -0.56736  -0.55929
 Alpha  occ. eigenvalues --   -0.55806  -0.55538  -0.55209  -0.54923  -0.53833
 Alpha  occ. eigenvalues --   -0.53643  -0.53110  -0.52220  -0.51721  -0.51207
 Alpha  occ. eigenvalues --   -0.51077  -0.50763  -0.50400  -0.50189  -0.49953
 Alpha  occ. eigenvalues --   -0.49565  -0.48992  -0.48877  -0.48676  -0.48392
 Alpha  occ. eigenvalues --   -0.48067  -0.47356  -0.47209  -0.46699  -0.46589
 Alpha  occ. eigenvalues --   -0.46406  -0.46214  -0.46022  -0.45817  -0.45231
 Alpha  occ. eigenvalues --   -0.44830  -0.44609  -0.44542  -0.44142  -0.43808
 Alpha  occ. eigenvalues --   -0.43701  -0.43432  -0.43134  -0.42514  -0.42432
 Alpha  occ. eigenvalues --   -0.42159  -0.41989  -0.41298  -0.41169  -0.40946
 Alpha  occ. eigenvalues --   -0.40836  -0.40517  -0.40336  -0.40101  -0.39321
 Alpha  occ. eigenvalues --   -0.39157  -0.38943  -0.38850  -0.38689  -0.38514
 Alpha  occ. eigenvalues --   -0.38116  -0.37880  -0.37639  -0.37490  -0.36962
 Alpha  occ. eigenvalues --   -0.36420  -0.35933  -0.35653  -0.34713  -0.33647
 Alpha  occ. eigenvalues --   -0.32627  -0.31982  -0.31536  -0.31413  -0.30982
 Alpha  occ. eigenvalues --   -0.29147  -0.27803  -0.24904  -0.19260
 Alpha virt. eigenvalues --   -0.06422  -0.01112   0.02377   0.05831   0.06887
 Alpha virt. eigenvalues --    0.08752   0.09688   0.10082   0.11075   0.11513
 Alpha virt. eigenvalues --    0.11850   0.12387   0.12824   0.13096   0.13142

 Mulliken charges:
               1
     1  O   -0.535686
     2  O   -0.545576
     3  O   -0.577789
     4  O   -0.548711
     5  C    0.143797
     6  C    0.285673
     7  C   -0.022451
     8  C   -0.222452
     9  C   -0.149291
    10  C    0.080121
    11  C   -0.308946
    12  C   -0.153228
    13  C   -0.316888
    14  C   -0.281267
    15  C   -0.053532
    16  C    0.111802
    17  C   -0.381243
    18  C   -0.116979
    19  C   -0.079223
    20  C    0.047339
    21  C    0.238155
    22  C   -0.195646
    23  C    0.168613
    24  C   -0.189012
    25  C   -0.014452
    26  C   -0.299199
    27  C   -0.297883
    28  C   -0.305663
    29  C   -0.128215
    30  C    0.085506
    31  C    0.087952
    32  C   -0.261721
    33  C   -0.372327
    34  C   -0.070126
    35  C    0.120445
    36  C   -0.377968
    37  C   -0.104530
    38  C   -0.114198
    39  C   -0.100342
    40  C   -0.092858
    41  C   -0.093731
    42  C   -0.087817
    43  C    0.067184
    44  C   -0.369354
    45  H    0.126716
    46  H    0.119209
    47  H    0.111295
    48  H    0.120856
    49  H    0.091428
    50  H    0.080302
    51  H    0.112052
    52  H    0.127213
    53  H    0.128907
    54  H    0.130904
    55  H    0.096726
    56  H    0.109670
    57  H    0.126295
    58  H    0.092903
    59  H    0.083334
    60  H    0.297221
    61  H    0.083385
    62  H    0.109426
    63  H    0.138468
    64  H    0.111689
    65  H    0.090101
    66  H    0.076971
    67  H    0.084072
    68  H    0.079548
    69  H    0.070201
    70  H    0.112538
    71  H    0.126859
    72  H    0.105082
    73  H    0.066463
    74  H    0.107110
    75  H    0.112457
    76  H    0.094935
    77  H    0.083980
    78  H    0.082215
    79  H    0.113101
    80  H    0.130014
    81  H    0.080212
    82  H    0.289042
    83  H    0.313103
    84  H    0.085501
    85  H    0.107434
    86  H    0.121761
    87  H    0.099570
    88  H    0.066378
    89  H    0.086246
    90  H    0.137494
    91  H    0.138539
    92  H    0.075208
    93  H    0.096534
    94  H    0.084495
    95  H    0.084186
    96  H    0.086306
    97  H    0.069134
    98  H    0.112856
    99  H    0.131406
   100  H    0.132662
 Sum of Mulliken charges =  -0.00000

 Dipole moment (field-independent basis, Debye):
    X=              2.3909    Y=             -0.5106    Z=              1.7499  Tot=              3.0066
 Quadrupole moment (field-independent basis, Debye-Ang):
   XX=           -259.8657   YY=           -267.4691   ZZ=           -280.5923
   XY=             -3.9472   XZ=             32.0103   YZ=             -1.9189

 Normal termination of Gaussian 16 at Thu Aug  1 05:01:00 2019.
