 Gaussian 16, Revision A.03,
 Gaussian 16:  ES64L-G16RevA.03 25-Dec-2016

 -------------------------------------
 # td=(NStates=1) CAM-B3LYP/6-31G(d,p)
 -------------------------------------

 --
 TD
 --
 Symbolic Z-matrix:
 Charge =  0 Multiplicity = 1

                         Standard orientation:
 ---------------------------------------------------------------------
 Center     Atomic      Atomic             Coordinates (Angstroms)
 Number     Number       Type             X           Y           Z
 ---------------------------------------------------------------------
      1          8           0      -11.693060    0.292643   -1.412725
      2          8           0      -12.866965   -2.573978    1.233779
      3          8           0       10.518039   -0.998219   -2.096038
      4          8           0       14.366342   -1.149725   -0.247594
      5          6           0      -11.007511   -0.166789   -0.258306
      6          6           0      -11.647278   -1.147642   -1.280282
      7          6           0      -11.774183    0.216764    0.947927
      8          6           0      -12.938383   -1.706695   -1.089171
      9          6           0      -13.234847   -0.158632    0.938481
     10          6           0      -13.523495   -1.598506    0.288691
     11          6           0      -10.664017   -1.797753   -2.258109
     12          6           0       -9.567993    0.037023   -0.368672
     13          6           0      -10.988534   -0.467050    2.230546
     14          6           0      -11.564834    1.789946    1.215628
     15          6           0       -8.578285   -0.716262    0.079320
     16          6           0       -7.166883   -0.543550    0.068982
     17          6           0       -6.251127   -1.642223    0.516419
     18          6           0       -6.619887    0.762615   -0.101533
     19          6           0       -5.199945    1.019915   -0.160573
     20          6           0       11.884307   -0.132263    1.354293
     21          6           0       11.606115   -0.613288   -1.219988
     22          6           0       12.576927   -1.433664    1.401488
     23          6           0       13.209514   -1.919824    0.117267
     24          6           0       12.292765   -1.927848   -1.020635
     25          6           0       10.986065   -0.022492    0.049641
     26          6           0       10.945202    0.075500    2.470621
     27          6           0       12.868647    1.092293    1.344616
     28          6           0       12.533460    0.470248   -2.052479
     29          6           0       -4.759928    2.259129   -0.299456
     30          6           0        9.852436    0.432310   -0.049143
     31          6           0       -3.320674    2.605489   -0.388472
     32          6           0        8.665452    1.047318   -0.075777
     33          6           0       -3.008638    4.041768   -0.651245
     34          6           0       -2.307657    1.664049   -0.225296
     35          6           0        7.392871    0.271628    0.238123
     36          6           0        7.583087   -1.248846    0.320617
     37          6           0        6.192209    0.834094    0.097289
     38          6           0       -1.004614    1.912440   -0.305601
     39          6           0        4.900684    0.249172    0.209242
     40          6           0        0.052635    0.991195   -0.133302
     41          6           0        3.770511    0.932848    0.010556
     42          6           0        1.394890    1.344659   -0.252621
     43          6           0        2.426776    0.421803   -0.058513
     44          6           0        2.248592   -1.042930    0.077492
     45          1           0      -12.958113   -2.918908   -1.113471
     46          1           0      -13.644705   -1.299320   -1.987754
     47          1           0      -13.665491   -0.022209    1.914153
     48          1           0      -13.790982    0.432497    0.180213
     49          1           0      -14.593500   -1.934550    0.314134
     50          1           0      -10.295974   -2.751383   -1.822376
     51          1           0      -11.242982   -2.026052   -3.142639
     52          1           0       -9.776581   -1.097761   -2.533691
     53          1           0       -9.320178    1.122859   -0.860134
     54          1           0       -9.935119   -0.198211    2.335193
     55          1           0      -11.464939   -0.184485    3.222144
     56          1           0      -11.055367   -1.570225    2.303714
     57          1           0      -11.851144    2.290415    0.325867
     58          1           0      -12.076151    2.156452    2.083179
     59          1           0      -10.647167    1.994547    1.407516
     60          1           0      -11.988297   -2.680812    1.081719
     61          1           0       -8.982749   -1.672003    0.541383
     62          1           0       -5.471184   -1.919513   -0.222031
     63          1           0       -5.554369   -1.237533    1.317445
     64          1           0       -6.696468   -2.641980    0.582842
     65          1           0       -7.256064    1.597935   -0.370703
     66          1           0       -4.608423    0.109925   -0.028074
     67          1           0       13.435955   -1.342492    2.161683
     68          1           0       11.935943   -2.277816    1.834523
     69          1           0       13.536580   -2.994690    0.380937
     70          1           0       12.716695   -2.284210   -1.933263
     71          1           0       11.410687   -2.667386   -0.826429
     72          1           0       11.469238   -0.048023    3.274292
     73          1           0       10.573261    1.046419    2.562355
     74          1           0       10.234247   -0.780874    2.601216
     75          1           0       13.478275    1.242445    0.557212
     76          1           0       12.323020    1.946268    1.325171
     77          1           0       13.391316    1.199778    2.265129
     78          1           0       12.740936    0.089672   -3.021844
     79          1           0       11.901629    1.485934   -2.009966
     80          1           0       13.433937    0.417404   -1.356955
     81          1           0       -5.463760    3.133333   -0.488412
     82          1           0        9.907872   -0.150228   -2.228645
     83          1           0       14.888687   -0.959349    0.502877
     84          1           0        8.516907    2.126813   -0.381378
     85          1           0       -2.258961    4.380731    0.103065
     86          1           0       -2.478911    4.108529   -1.528247
     87          1           0       -3.791711    4.620009   -0.547145
     88          1           0       -2.667556    0.744841   -0.080645
     89          1           0        6.684395   -1.707519    0.422854
     90          1           0        8.359644   -1.610148   -0.319458
     91          1           0        8.102036   -1.173247    1.459123
     92          1           0        6.189325    2.000670   -0.050421
     93          1           0       -0.554660    3.023395   -0.543548
     94          1           0        4.706668   -0.806893    0.469201
     95          1           0       -0.218244    0.056013    0.119046
     96          1           0        4.042144    2.025123   -0.208430
     97          1           0        1.647831    2.394009   -0.448050
     98          1           0        1.191305   -1.570574   -0.036197
     99          1           0        2.921173   -1.382835   -0.754872
    100          1           0        2.448591   -1.516255    1.008825
 ---------------------------------------------------------------------

 SCF Done:  E(RCAM-B3LYP) =  -1857.38788399     A.U. after   15 cycles

 Excitation energies and oscillator strengths:

 Excited State   1:      Singlet-A      2.2423 eV  552.93 nm  f=2.9059  <S**2>=0.000
     163 ->166         0.13286
     164 ->165         0.69448
 This state for optimization and/or second-order correction.
 Total Energy, E(TD-HF/TD-DFT) =  -1857.30547987
 Copying the excited state density for this state as the 1-particle RhoCI density.

 The electronic state is 1-A.
 Alpha  occ. eigenvalues --  -19.22025 -19.21619 -19.20183 -19.19501 -10.31954
 Alpha  occ. eigenvalues --  -10.31937 -10.31542 -10.31437 -10.31238 -10.28332
 Alpha  occ. eigenvalues --  -10.28028 -10.27998 -10.27966 -10.27944 -10.27701
 Alpha  occ. eigenvalues --  -10.27386 -10.27307 -10.27196 -10.27056 -10.26884
 Alpha  occ. eigenvalues --  -10.26772 -10.26672 -10.26657 -10.26615 -10.26546
 Alpha  occ. eigenvalues --  -10.26364 -10.26159 -10.25981 -10.25954 -10.25896
 Alpha  occ. eigenvalues --  -10.25862 -10.25678 -10.25608 -10.25345 -10.25341
 Alpha  occ. eigenvalues --  -10.25157 -10.25015 -10.24865 -10.24634 -10.24341
 Alpha  occ. eigenvalues --  -10.23603 -10.23272 -10.22880 -10.22571  -1.15133
 Alpha  occ. eigenvalues --   -1.10939  -1.07961  -1.06905  -0.94089  -0.92648
 Alpha  occ. eigenvalues --   -0.91953  -0.91129  -0.90101  -0.89490  -0.87993
 Alpha  occ. eigenvalues --   -0.87506  -0.87116  -0.86369  -0.85129  -0.83430
 Alpha  occ. eigenvalues --   -0.82520  -0.80642  -0.80511  -0.79590  -0.78590
 Alpha  occ. eigenvalues --   -0.77321  -0.76730  -0.76459  -0.75928  -0.75575
 Alpha  occ. eigenvalues --   -0.75401  -0.74609  -0.73292  -0.71123  -0.70400
 Alpha  occ. eigenvalues --   -0.68847  -0.67019  -0.65497  -0.64787  -0.64178
 Alpha  occ. eigenvalues --   -0.63530  -0.62543  -0.61077  -0.60218  -0.59900
 Alpha  occ. eigenvalues --   -0.58964  -0.58353  -0.58184  -0.57109  -0.56970
 Alpha  occ. eigenvalues --   -0.55685  -0.55512  -0.55105  -0.54814  -0.54336
 Alpha  occ. eigenvalues --   -0.53758  -0.53334  -0.53190  -0.52171  -0.51512
 Alpha  occ. eigenvalues --   -0.51290  -0.50772  -0.50597  -0.50296  -0.49706
 Alpha  occ. eigenvalues --   -0.49628  -0.49226  -0.49069  -0.48395  -0.48286
 Alpha  occ. eigenvalues --   -0.48061  -0.47594  -0.47151  -0.47024  -0.46901
 Alpha  occ. eigenvalues --   -0.46739  -0.46516  -0.46135  -0.45885  -0.45593
 Alpha  occ. eigenvalues --   -0.45407  -0.45080  -0.44982  -0.44586  -0.44287
 Alpha  occ. eigenvalues --   -0.43957  -0.43644  -0.43525  -0.43234  -0.43020
 Alpha  occ. eigenvalues --   -0.42563  -0.42312  -0.42169  -0.41543  -0.41496
 Alpha  occ. eigenvalues --   -0.41180  -0.40835  -0.40273  -0.40073  -0.39949
 Alpha  occ. eigenvalues --   -0.39830  -0.39494  -0.39271  -0.39060  -0.38758
 Alpha  occ. eigenvalues --   -0.38618  -0.38350  -0.38240  -0.38044  -0.37562
 Alpha  occ. eigenvalues --   -0.36750  -0.36596  -0.35327  -0.33914  -0.33466
 Alpha  occ. eigenvalues --   -0.33221  -0.32081  -0.31800  -0.30990  -0.30523
 Alpha  occ. eigenvalues --   -0.30322  -0.27293  -0.24617  -0.19570
 Alpha virt. eigenvalues --   -0.05628  -0.00314   0.03214   0.07058   0.08007
 Alpha virt. eigenvalues --    0.10214   0.10469   0.10991   0.11736   0.12391
 Alpha virt. eigenvalues --    0.12646   0.13175   0.13628   0.13920   0.14124

 Mulliken charges:
               1
     1  O   -0.514045
     2  O   -0.561312
     3  O   -0.585724
     4  O   -0.543318
     5  C    0.211316
     6  C    0.247254
     7  C    0.031763
     8  C   -0.218434
     9  C   -0.177392
    10  C    0.139860
    11  C   -0.322946
    12  C   -0.112270
    13  C   -0.334987
    14  C   -0.314957
    15  C   -0.073076
    16  C    0.089754
    17  C   -0.399728
    18  C   -0.120709
    19  C   -0.043875
    20  C    0.044778
    21  C    0.225194
    22  C   -0.210377
    23  C    0.158642
    24  C   -0.175512
    25  C   -0.114721
    26  C   -0.300630
    27  C   -0.324368
    28  C   -0.308460
    29  C   -0.130491
    30  C    0.205737
    31  C    0.054153
    32  C   -0.278450
    33  C   -0.365274
    34  C   -0.065866
    35  C    0.075564
    36  C   -0.337700
    37  C   -0.121511
    38  C   -0.093086
    39  C   -0.082366
    40  C   -0.062168
    41  C   -0.109622
    42  C   -0.116616
    43  C    0.096972
    44  C   -0.385202
    45  H    0.101384
    46  H    0.110334
    47  H    0.108890
    48  H    0.102640
    49  H    0.109581
    50  H    0.103153
    51  H    0.110549
    52  H    0.127821
    53  H    0.085778
    54  H    0.113386
    55  H    0.090501
    56  H    0.086024
    57  H    0.117485
    58  H    0.101634
    59  H    0.114650
    60  H    0.290380
    61  H    0.070395
    62  H    0.121470
    63  H    0.132781
    64  H    0.115331
    65  H    0.083158
    66  H    0.089334
    67  H    0.078501
    68  H    0.100678
    69  H    0.072295
    70  H    0.124108
    71  H    0.110058
    72  H    0.100134
    73  H    0.116798
    74  H    0.100118
    75  H    0.120788
    76  H    0.113746
    77  H    0.096138
    78  H    0.121811
    79  H    0.072083
    80  H    0.138369
    81  H    0.090375
    82  H    0.301499
    83  H    0.303544
    84  H    0.108813
    85  H    0.117152
    86  H    0.137330
    87  H    0.109172
    88  H    0.061348
    89  H    0.112713
    90  H    0.149036
    91  H    0.084806
    92  H    0.065580
    93  H    0.063290
    94  H    0.082081
    95  H    0.068125
    96  H    0.071375
    97  H    0.084962
    98  H    0.098142
    99  H    0.129213
   100  H    0.133366
 Sum of Mulliken charges =  -0.00000

 Dipole moment (field-independent basis, Debye):
    X=              2.9600    Y=              0.0215    Z=              2.0401  Tot=              3.5950
 Quadrupole moment (field-independent basis, Debye-Ang):
   XX=           -271.3447   YY=           -258.7084   ZZ=           -277.6606
   XY=              3.3720   XZ=             41.3059   YZ=             -1.4663

 Normal termination of Gaussian 16 at Wed Jul 31 15:02:28 2019.
