 Gaussian 16, Revision A.03,
 Gaussian 16:  ES64L-G16RevA.03 25-Dec-2016

 -------------------------------------
 # td=(NStates=1) CAM-B3LYP/6-31G(d,p)
 -------------------------------------

 --
 TD
 --
 Symbolic Z-matrix:
 Charge =  0 Multiplicity = 1

                         Standard orientation:
 ---------------------------------------------------------------------
 Center     Atomic      Atomic             Coordinates (Angstroms)
 Number     Number       Type             X           Y           Z
 ---------------------------------------------------------------------
      1          8           0      -11.826990    0.758595   -1.062093
      2          8           0      -12.976001   -2.776580    0.667795
      3          8           0       10.567440   -0.860935   -2.205073
      4          8           0       14.479230   -0.735061   -0.289819
      5          6           0      -11.049081   -0.102146   -0.234860
      6          6           0      -11.708671   -0.729838   -1.429767
      7          6           0      -11.759745    0.020473    1.260496
      8          6           0      -13.047020   -1.435745   -1.323905
      9          6           0      -13.261205   -0.284731    1.179250
     10          6           0      -13.493043   -1.541416    0.160369
     11          6           0      -10.905386   -1.127115   -2.633471
     12          6           0       -9.540685    0.120307   -0.341304
     13          6           0      -11.043858   -0.891459    2.258700
     14          6           0      -11.669666    1.472088    1.673217
     15          6           0       -8.646249   -0.789308    0.038795
     16          6           0       -7.168836   -0.590453    0.023401
     17          6           0       -6.287594   -1.829195   -0.011794
     18          6           0       -6.565017    0.628630   -0.011361
     19          6           0       -5.167952    0.839384   -0.327562
     20          6           0       11.875226   -0.187850    1.384251
     21          6           0       11.599939   -0.532207   -1.326695
     22          6           0       12.608218   -1.593688    1.264169
     23          6           0       13.451595   -1.796938    0.039522
     24          6           0       12.548413   -1.756705   -1.204613
     25          6           0       11.057794   -0.103807    0.028537
     26          6           0       10.910148   -0.345009    2.509823
     27          6           0       12.784719    1.075044    1.510068
     28          6           0       12.378995    0.706072   -1.921076
     29          6           0       -4.658823    2.161819   -0.248543
     30          6           0        9.887246    0.544281   -0.041306
     31          6           0       -3.331206    2.573921   -0.322814
     32          6           0        8.719987    1.050999   -0.120446
     33          6           0       -3.025809    4.093387   -0.437876
     34          6           0       -2.295455    1.693843   -0.119475
     35          6           0        7.412893    0.186853   -0.047692
     36          6           0        7.714739   -1.285475    0.311392
     37          6           0        6.253157    0.806501   -0.001947
     38          6           0       -0.950740    1.974117   -0.190268
     39          6           0        5.013137    0.173305    0.117443
     40          6           0        0.023615    1.022414    0.095254
     41          6           0        3.682942    0.853931    0.031085
     42          6           0        1.382654    1.256479    0.009825
     43          6           0        2.442346    0.321068    0.042584
     44          6           0        2.356832   -1.204246    0.419055
     45          1           0      -13.084936   -2.519388   -1.790407
     46          1           0      -13.687054   -0.854325   -2.008416
     47          1           0      -13.730806   -0.356462    2.224168
     48          1           0      -14.050213    0.352498    0.700924
     49          1           0      -14.614472   -1.726321   -0.003254
     50          1           0      -10.268311   -2.005562   -2.448719
     51          1           0      -11.379751   -1.092160   -3.575460
     52          1           0       -9.906445   -0.437657   -2.683047
     53          1           0       -9.257572    0.962379   -0.470897
     54          1           0      -10.031098   -0.513127    2.570010
     55          1           0      -11.337563   -0.932092    3.302328
     56          1           0      -11.004436   -2.013015    1.884130
     57          1           0      -12.064424    2.060329    0.904325
     58          1           0      -12.143624    1.663841    2.710526
     59          1           0      -10.779896    1.871331    1.755237
     60          1           0      -12.078189   -2.960788    0.434563
     61          1           0       -9.184672   -1.705732    0.335537
     62          1           0       -5.760946   -1.945807   -0.766215
     63          1           0       -5.537182   -1.645488    0.771763
     64          1           0       -6.998692   -2.628181    0.457005
     65          1           0       -7.189063    1.603052    0.107456
     66          1           0       -4.480973    0.154878   -0.638198
     67          1           0       13.335671   -1.370707    2.149817
     68          1           0       12.025733   -2.510875    1.546038
     69          1           0       13.950390   -2.746817    0.155125
     70          1           0       13.044925   -1.982091   -2.120772
     71          1           0       11.751844   -2.741161   -0.995367
     72          1           0       11.349128   -0.324267    3.426379
     73          1           0       10.212545    0.352455    2.273634
     74          1           0       10.248254   -1.214961    2.363714
     75          1           0       13.588367    1.445942    0.767983
     76          1           0       12.156493    1.913479    1.976746
     77          1           0       13.424751    0.739181    2.562466
     78          1           0       12.877940    0.366762   -2.795941
     79          1           0       11.825276    1.599054   -1.951880
     80          1           0       13.329620    0.805352   -1.129617
     81          1           0       -5.503338    2.930219   -0.389243
     82          1           0       10.151570    0.071385   -2.362187
     83          1           0       15.047768   -0.914140    0.379655
     84          1           0        8.650822    1.966487   -0.180054
     85          1           0       -2.799357    4.715056    0.596652
     86          1           0       -2.293876    4.273806   -1.110722
     87          1           0       -3.970370    4.348405   -0.707039
     88          1           0       -2.595322    0.602591   -0.002114
     89          1           0        6.796734   -1.797980   -0.004646
     90          1           0        8.360650   -1.688003   -0.271742
     91          1           0        7.974131   -1.506489    1.309457
     92          1           0        6.282127    1.800456   -0.063031
     93          1           0       -0.526663    2.837217   -0.234045
     94          1           0        5.017068   -0.861601    0.232468
     95          1           0       -0.404897    0.051601    0.494723
     96          1           0        3.901337    2.023370   -0.207148
     97          1           0        1.503122    2.244331   -0.206907
     98          1           0        1.215826   -1.273394    0.508255
     99          1           0        2.645901   -1.871581   -0.492837
    100          1           0        2.875392   -1.388946    1.459583
 ---------------------------------------------------------------------

 SCF Done:  E(RCAM-B3LYP) =  -1857.19385391     A.U. after   15 cycles

 Excitation energies and oscillator strengths:

 Excited State   1:      Singlet-A      2.0088 eV  617.20 nm  f=3.0540  <S**2>=0.000
     163 ->166         0.12605
     164 ->165         0.70106
     164 <-165        -0.12040
 This state for optimization and/or second-order correction.
 Total Energy, E(TD-HF/TD-DFT) =  -1857.12003067
 Copying the excited state density for this state as the 1-particle RhoCI density.

 The electronic state is 1-A.
 Alpha  occ. eigenvalues --  -19.22054 -19.21619 -19.21236 -19.20251 -10.32631
 Alpha  occ. eigenvalues --  -10.32255 -10.31874 -10.31688 -10.31560 -10.29237
 Alpha  occ. eigenvalues --  -10.28352 -10.28300 -10.28217 -10.28034 -10.27751
 Alpha  occ. eigenvalues --  -10.27540 -10.27465 -10.27153 -10.27123 -10.27104
 Alpha  occ. eigenvalues --  -10.26993 -10.26801 -10.26719 -10.26634 -10.26606
 Alpha  occ. eigenvalues --  -10.26543 -10.26541 -10.26498 -10.26339 -10.26314
 Alpha  occ. eigenvalues --  -10.26209 -10.26111 -10.25829 -10.25226 -10.25220
 Alpha  occ. eigenvalues --  -10.25117 -10.24984 -10.24712 -10.24487 -10.24082
 Alpha  occ. eigenvalues --  -10.23917 -10.23404 -10.23184 -10.22574  -1.12378
 Alpha  occ. eigenvalues --   -1.10558  -1.09666  -1.08667  -0.92890  -0.92705
 Alpha  occ. eigenvalues --   -0.91737  -0.91134  -0.90379  -0.89182  -0.87648
 Alpha  occ. eigenvalues --   -0.86369  -0.86322  -0.85874  -0.85430  -0.82752
 Alpha  occ. eigenvalues --   -0.82175  -0.80632  -0.80430  -0.79176  -0.77163
 Alpha  occ. eigenvalues --   -0.76679  -0.76590  -0.76373  -0.75729  -0.75710
 Alpha  occ. eigenvalues --   -0.74946  -0.74053  -0.72709  -0.70518  -0.69593
 Alpha  occ. eigenvalues --   -0.68960  -0.67348  -0.66172  -0.64561  -0.64267
 Alpha  occ. eigenvalues --   -0.63808  -0.62148  -0.61414  -0.61156  -0.60185
 Alpha  occ. eigenvalues --   -0.59408  -0.58450  -0.58236  -0.57406  -0.56451
 Alpha  occ. eigenvalues --   -0.56106  -0.55922  -0.55345  -0.54360  -0.54155
 Alpha  occ. eigenvalues --   -0.52987  -0.52657  -0.52547  -0.51933  -0.51871
 Alpha  occ. eigenvalues --   -0.51734  -0.51031  -0.50788  -0.50426  -0.50198
 Alpha  occ. eigenvalues --   -0.49585  -0.49284  -0.49182  -0.49126  -0.48889
 Alpha  occ. eigenvalues --   -0.48705  -0.48606  -0.47643  -0.47399  -0.47206
 Alpha  occ. eigenvalues --   -0.46999  -0.46721  -0.45923  -0.45344  -0.45308
 Alpha  occ. eigenvalues --   -0.45117  -0.44921  -0.44758  -0.44245  -0.44006
 Alpha  occ. eigenvalues --   -0.43677  -0.43060  -0.42965  -0.42684  -0.42208
 Alpha  occ. eigenvalues --   -0.41939  -0.41668  -0.41186  -0.41001  -0.40596
 Alpha  occ. eigenvalues --   -0.40505  -0.40352  -0.40144  -0.40084  -0.39756
 Alpha  occ. eigenvalues --   -0.39636  -0.39508  -0.39243  -0.38699  -0.38454
 Alpha  occ. eigenvalues --   -0.38189  -0.38025  -0.37941  -0.37567  -0.37065
 Alpha  occ. eigenvalues --   -0.36233  -0.35972  -0.35251  -0.34678  -0.33745
 Alpha  occ. eigenvalues --   -0.33253  -0.32071  -0.31504  -0.31303  -0.30540
 Alpha  occ. eigenvalues --   -0.28979  -0.28358  -0.24540  -0.19069
 Alpha virt. eigenvalues --   -0.06815  -0.00513   0.04055   0.06494   0.07278
 Alpha virt. eigenvalues --    0.09892   0.10142   0.10422   0.11901   0.12120
 Alpha virt. eigenvalues --    0.12536   0.13137   0.13287   0.13551   0.13930

 Mulliken charges:
               1
     1  O   -0.516765
     2  O   -0.551582
     3  O   -0.548420
     4  O   -0.532258
     5  C    0.169979
     6  C    0.237599
     7  C    0.052380
     8  C   -0.222349
     9  C   -0.166673
    10  C    0.154806
    11  C   -0.351214
    12  C   -0.048475
    13  C   -0.304829
    14  C   -0.313064
    15  C   -0.072586
    16  C    0.048875
    17  C   -0.350506
    18  C   -0.115187
    19  C   -0.075310
    20  C    0.024649
    21  C    0.240309
    22  C   -0.187592
    23  C    0.118652
    24  C   -0.171167
    25  C   -0.043139
    26  C   -0.302817
    27  C   -0.286031
    28  C   -0.317075
    29  C   -0.134292
    30  C    0.124004
    31  C    0.064670
    32  C   -0.257607
    33  C   -0.338379
    34  C   -0.104416
    35  C    0.059141
    36  C   -0.360948
    37  C   -0.044960
    38  C   -0.058257
    39  C   -0.115501
    40  C   -0.090205
    41  C   -0.110316
    42  C   -0.107799
    43  C    0.087836
    44  C   -0.357093
    45  H    0.109201
    46  H    0.122287
    47  H    0.101668
    48  H    0.104953
    49  H    0.084186
    50  H    0.122424
    51  H    0.126203
    52  H    0.106140
    53  H    0.053919
    54  H    0.102568
    55  H    0.105395
    56  H    0.072136
    57  H    0.133562
    58  H    0.086975
    59  H    0.102277
    60  H    0.298033
    61  H    0.067103
    62  H    0.131659
    63  H    0.119539
    64  H    0.100889
    65  H    0.082265
    66  H    0.089875
    67  H    0.067284
    68  H    0.117028
    69  H    0.099282
    70  H    0.115035
    71  H    0.061238
    72  H    0.106908
    73  H    0.119436
    74  H    0.103651
    75  H    0.140347
    76  H    0.109917
    77  H    0.042828
    78  H    0.112546
    79  H    0.096321
    80  H    0.116495
    81  H    0.080793
    82  H    0.311254
    83  H    0.297032
    84  H    0.074368
    85  H    0.097189
    86  H    0.127933
    87  H    0.116030
    88  H    0.072060
    89  H    0.096592
    90  H    0.142660
    91  H    0.126338
    92  H    0.070914
    93  H    0.069520
    94  H    0.079760
    95  H    0.076055
    96  H    0.062540
    97  H    0.080765
    98  H    0.105736
    99  H    0.125724
   100  H    0.129078
 Sum of Mulliken charges =  -0.00000

 Dipole moment (field-independent basis, Debye):
    X=              4.1567    Y=             -0.6753    Z=              1.3913  Tot=              4.4351
 Quadrupole moment (field-independent basis, Debye-Ang):
   XX=           -274.6689   YY=           -261.7135   ZZ=           -272.6711
   XY=             -6.1228   XZ=             36.3845   YZ=             -0.4440

 Normal termination of Gaussian 16 at Tue Jul 30 13:44:58 2019.
