 Gaussian 16, Revision A.03,
 Gaussian 16:  ES64L-G16RevA.03 25-Dec-2016

 -------------------------------------
 # td=(NStates=1) CAM-B3LYP/6-31G(d,p)
 -------------------------------------

 --
 TD
 --
 Symbolic Z-matrix:
 Charge =  0 Multiplicity = 1

                         Standard orientation:
 ---------------------------------------------------------------------
 Center     Atomic      Atomic             Coordinates (Angstroms)
 Number     Number       Type             X           Y           Z
 ---------------------------------------------------------------------
      1          8           0      -11.636822   -0.018455   -1.626692
      2          8           0      -12.988884   -2.228627    1.670548
      3          8           0       10.673488   -1.051295   -2.085022
      4          8           0       14.465217   -1.127235    0.065800
      5          6           0      -11.019620   -0.116370   -0.323473
      6          6           0      -11.614602   -1.330897   -1.101785
      7          6           0      -11.858947    0.517398    0.677006
      8          6           0      -12.962951   -1.956157   -0.792289
      9          6           0      -13.335211   -0.005805    0.665633
     10          6           0      -13.544783   -1.435118    0.539799
     11          6           0      -10.806359   -2.221394   -1.993542
     12          6           0       -9.563103   -0.008323   -0.311375
     13          6           0      -11.154961    0.276987    2.191437
     14          6           0      -11.758707    1.999240    0.492245
     15          6           0       -8.678048   -0.836349    0.214542
     16          6           0       -7.234324   -0.641613    0.112146
     17          6           0       -6.410348   -1.818578    0.564588
     18          6           0       -6.650562    0.596879   -0.030756
     19          6           0       -5.314708    0.933321   -0.028996
     20          6           0       11.883846    0.117740    1.275436
     21          6           0       11.757677   -0.689478   -1.198304
     22          6           0       12.618437   -1.222606    1.571742
     23          6           0       13.368760   -1.861450    0.417706
     24          6           0       12.413266   -2.047223   -0.817098
     25          6           0       11.080145    0.056326    0.011061
     26          6           0       11.032283    0.495978    2.498792
     27          6           0       12.918610    1.244224    1.182019
     28          6           0       12.603344    0.304965   -2.043599
     29          6           0       -4.796229    2.154955   -0.440907
     30          6           0        9.914583    0.504673   -0.064947
     31          6           0       -3.345122    2.522142   -0.414512
     32          6           0        8.658876    1.031746   -0.239795
     33          6           0       -3.128150    3.969733   -0.629516
     34          6           0       -2.294762    1.628738   -0.233751
     35          6           0        7.491496    0.276913   -0.028907
     36          6           0        7.733607   -1.248990    0.287765
     37          6           0        6.220343    0.740367   -0.258911
     38          6           0       -0.946580    1.866299   -0.261204
     39          6           0        4.957025    0.067474   -0.076866
     40          6           0        0.032495    0.994947    0.020008
     41          6           0        3.771012    0.736140   -0.271063
     42          6           0        1.387430    1.274516   -0.262220
     43          6           0        2.452022    0.330344   -0.026142
     44          6           0        2.172727   -1.066908    0.439432
     45          1           0      -12.682553   -3.060352   -0.836333
     46          1           0      -13.782957   -1.750151   -1.684189
     47          1           0      -13.715922    0.364353    1.650027
     48          1           0      -13.865053    0.513117   -0.147537
     49          1           0      -14.402529   -1.666246    0.674169
     50          1           0      -10.676769   -3.090807   -1.698792
     51          1           0      -11.417632   -2.406162   -2.927398
     52          1           0       -9.859770   -1.782458   -2.083225
     53          1           0       -9.356169    0.886015   -0.927235
     54          1           0      -10.030022    0.666788    2.133388
     55          1           0      -11.700427    0.726693    2.917142
     56          1           0      -10.943212   -0.804969    2.361663
     57          1           0      -12.022262    2.127749   -0.681035
     58          1           0      -12.632554    2.437389    1.186524
     59          1           0      -10.821313    2.474209    0.770399
     60          1           0      -12.225936   -2.427352    1.707013
     61          1           0       -9.046913   -1.704289    0.841815
     62          1           0       -5.995765   -2.353967   -0.248372
     63          1           0       -5.530644   -1.470873    1.120297
     64          1           0       -6.885619   -2.679036    1.072468
     65          1           0       -7.347443    1.432230   -0.500970
     66          1           0       -4.529356    0.043060    0.113036
     67          1           0       13.249173   -1.215473    2.401235
     68          1           0       11.828232   -1.907897    1.749422
     69          1           0       13.734350   -2.849268    0.591238
     70          1           0       12.934828   -2.373662   -1.609769
     71          1           0       11.727454   -2.710136   -0.659348
     72          1           0       11.574405    0.592203    3.357113
     73          1           0       10.615306    1.422959    2.338097
     74          1           0       10.251223   -0.429799    2.575349
     75          1           0       13.759693    1.145557    0.238297
     76          1           0       12.422630    2.210127    1.073662
     77          1           0       13.375919    1.480689    2.247910
     78          1           0       12.900002   -0.297200   -2.891472
     79          1           0       12.141575    1.187998   -2.397564
     80          1           0       13.497402    0.420921   -1.684958
     81          1           0       -5.424625    2.935392   -0.605933
     82          1           0       10.179892   -0.325595   -2.398112
     83          1           0       15.162949   -1.235129    0.813474
     84          1           0        8.470208    1.997397   -0.523670
     85          1           0       -2.544965    4.450165    0.131473
     86          1           0       -2.405272    3.871687   -1.516019
     87          1           0       -3.800917    4.576138   -0.787126
     88          1           0       -2.618528    0.672501    0.095139
     89          1           0        6.822481   -1.939422    0.443429
     90          1           0        8.360986   -1.602338   -0.697950
     91          1           0        8.572840   -1.390363    1.075009
     92          1           0        6.252956    1.835926   -0.416879
     93          1           0       -0.723809    2.742053   -0.758666
     94          1           0        4.888734   -0.895635    0.304541
     95          1           0       -0.217577    0.016570    0.303689
     96          1           0        3.967222    1.744234   -0.639071
     97          1           0        1.707838    2.122253   -0.611142
     98          1           0        1.072630   -1.140402    0.907013
     99          1           0        2.328235   -1.691193   -0.397629
    100          1           0        3.003926   -1.300013    1.070910
 ---------------------------------------------------------------------

 SCF Done:  E(RCAM-B3LYP) =  -1857.25821450     A.U. after   15 cycles

 Excitation energies and oscillator strengths:

 Excited State   1:      Singlet-A      2.2131 eV  560.23 nm  f=3.1529  <S**2>=0.000
     163 ->166         0.14363
     164 ->165         0.69069
 This state for optimization and/or second-order correction.
 Total Energy, E(TD-HF/TD-DFT) =  -1857.17688497
 Copying the excited state density for this state as the 1-particle RhoCI density.

 The electronic state is 1-A.
 Alpha  occ. eigenvalues --  -19.22411 -19.21636 -19.19508 -19.17932 -10.32551
 Alpha  occ. eigenvalues --  -10.31353 -10.31158 -10.30593 -10.29160 -10.28028
 Alpha  occ. eigenvalues --  -10.27763 -10.27707 -10.27523 -10.27476 -10.27376
 Alpha  occ. eigenvalues --  -10.27220 -10.27167 -10.27072 -10.26856 -10.26659
 Alpha  occ. eigenvalues --  -10.26622 -10.26531 -10.26524 -10.26316 -10.26090
 Alpha  occ. eigenvalues --  -10.26050 -10.26044 -10.25886 -10.25848 -10.25676
 Alpha  occ. eigenvalues --  -10.25490 -10.25421 -10.25418 -10.25401 -10.25201
 Alpha  occ. eigenvalues --  -10.25043 -10.24817 -10.24663 -10.24568 -10.24256
 Alpha  occ. eigenvalues --  -10.23835 -10.23804 -10.22694 -10.22553  -1.14971
 Alpha  occ. eigenvalues --   -1.11468  -1.10558  -1.08851  -0.93335  -0.92470
 Alpha  occ. eigenvalues --   -0.91987  -0.91257  -0.90830  -0.89961  -0.88225
 Alpha  occ. eigenvalues --   -0.87535  -0.86429  -0.85906  -0.85030  -0.83653
 Alpha  occ. eigenvalues --   -0.82974  -0.82130  -0.80683  -0.79372  -0.77851
 Alpha  occ. eigenvalues --   -0.76917  -0.76644  -0.76320  -0.75155  -0.74825
 Alpha  occ. eigenvalues --   -0.74682  -0.74592  -0.73342  -0.72434  -0.70563
 Alpha  occ. eigenvalues --   -0.69278  -0.67766  -0.65721  -0.65601  -0.64855
 Alpha  occ. eigenvalues --   -0.64182  -0.63916  -0.61287  -0.60321  -0.60118
 Alpha  occ. eigenvalues --   -0.59302  -0.58942  -0.58216  -0.58058  -0.57024
 Alpha  occ. eigenvalues --   -0.56276  -0.55981  -0.55576  -0.54935  -0.54611
 Alpha  occ. eigenvalues --   -0.54588  -0.53390  -0.53038  -0.52809  -0.52784
 Alpha  occ. eigenvalues --   -0.51574  -0.51224  -0.50566  -0.50272  -0.50098
 Alpha  occ. eigenvalues --   -0.49422  -0.48991  -0.48722  -0.48560  -0.48250
 Alpha  occ. eigenvalues --   -0.48070  -0.47975  -0.47799  -0.47392  -0.47367
 Alpha  occ. eigenvalues --   -0.47096  -0.46924  -0.46310  -0.46059  -0.45665
 Alpha  occ. eigenvalues --   -0.45468  -0.44956  -0.44806  -0.44754  -0.44371
 Alpha  occ. eigenvalues --   -0.44171  -0.43670  -0.43485  -0.43144  -0.43016
 Alpha  occ. eigenvalues --   -0.42992  -0.42491  -0.42108  -0.41887  -0.41712
 Alpha  occ. eigenvalues --   -0.40953  -0.40657  -0.40299  -0.40180  -0.39756
 Alpha  occ. eigenvalues --   -0.39579  -0.39283  -0.39087  -0.38849  -0.38607
 Alpha  occ. eigenvalues --   -0.38496  -0.37710  -0.37478  -0.36855  -0.36608
 Alpha  occ. eigenvalues --   -0.36163  -0.35707  -0.34924  -0.34265  -0.33392
 Alpha  occ. eigenvalues --   -0.32420  -0.32027  -0.31973  -0.31390  -0.30939
 Alpha  occ. eigenvalues --   -0.30693  -0.27425  -0.24104  -0.19367
 Alpha virt. eigenvalues --   -0.05557  -0.00995   0.03236   0.06757   0.08244
 Alpha virt. eigenvalues --    0.09491   0.10057   0.10530   0.12024   0.12085
 Alpha virt. eigenvalues --    0.12353   0.13000   0.13729   0.14367   0.14719

 Mulliken charges:
               1
     1  O   -0.507716
     2  O   -0.550689
     3  O   -0.572381
     4  O   -0.536884
     5  C    0.203579
     6  C    0.216911
     7  C    0.025858
     8  C   -0.220989
     9  C   -0.198077
    10  C    0.235310
    11  C   -0.313641
    12  C   -0.089794
    13  C   -0.309703
    14  C   -0.304204
    15  C   -0.088234
    16  C    0.080750
    17  C   -0.394355
    18  C   -0.104693
    19  C   -0.064043
    20  C    0.000183
    21  C    0.235845
    22  C   -0.165299
    23  C    0.131647
    24  C   -0.170472
    25  C   -0.098184
    26  C   -0.287608
    27  C   -0.296072
    28  C   -0.311110
    29  C   -0.113461
    30  C    0.172738
    31  C    0.065098
    32  C   -0.255352
    33  C   -0.352957
    34  C   -0.116814
    35  C    0.140327
    36  C   -0.373274
    37  C   -0.141619
    38  C   -0.060937
    39  C   -0.077356
    40  C   -0.075679
    41  C   -0.109520
    42  C   -0.086609
    43  C    0.082592
    44  C   -0.369906
    45  H    0.100146
    46  H    0.090926
    47  H    0.102252
    48  H    0.114407
    49  H    0.086533
    50  H    0.109242
    51  H    0.106493
    52  H    0.114728
    53  H    0.109622
    54  H    0.091188
    55  H    0.114427
    56  H    0.082387
    57  H    0.106620
    58  H    0.081577
    59  H    0.114402
    60  H    0.252146
    61  H    0.092411
    62  H    0.131379
    63  H    0.122424
    64  H    0.109270
    65  H    0.077021
    66  H    0.080971
    67  H    0.084810
    68  H    0.093354
    69  H    0.073781
    70  H    0.115412
    71  H    0.123996
    72  H    0.104856
    73  H    0.116000
    74  H    0.082320
    75  H    0.107971
    76  H    0.097118
    77  H    0.072288
    78  H    0.108277
    79  H    0.104759
    80  H    0.129343
    81  H    0.081371
    82  H    0.298205
    83  H    0.314661
    84  H    0.100875
    85  H    0.126574
    86  H    0.114698
    87  H    0.106936
    88  H    0.063990
    89  H    0.100544
    90  H    0.118915
    91  H    0.105774
    92  H    0.070961
    93  H    0.070834
    94  H    0.073991
    95  H    0.074622
    96  H    0.074951
    97  H    0.063225
    98  H    0.102665
    99  H    0.138659
   100  H    0.119483
 Sum of Mulliken charges =  -0.00000

 Dipole moment (field-independent basis, Debye):
    X=              4.0335    Y=             -0.4098    Z=              1.4287  Tot=              4.2986
 Quadrupole moment (field-independent basis, Debye-Ang):
   XX=           -243.6244   YY=           -254.3835   ZZ=           -277.9382
   XY=             -4.5556   XZ=             25.5461   YZ=             -4.0940

 Normal termination of Gaussian 16 at Tue Jul 30 06:58:12 2019.
