 Gaussian 16, Revision A.03,
 Gaussian 16:  ES64L-G16RevA.03 25-Dec-2016

 -------------------------------------
 # td=(NStates=1) CAM-B3LYP/6-31G(d,p)
 -------------------------------------

 --
 TD
 --
 Symbolic Z-matrix:
 Charge =  0 Multiplicity = 1

                         Standard orientation:
 ---------------------------------------------------------------------
 Center     Atomic      Atomic             Coordinates (Angstroms)
 Number     Number       Type             X           Y           Z
 ---------------------------------------------------------------------
      1          8           0      -11.600625    0.066144   -1.611209
      2          8           0      -13.115814   -2.174604    1.698980
      3          8           0       10.443511   -1.027111   -2.012174
      4          8           0       14.413105   -0.911594   -0.151520
      5          6           0      -10.975709   -0.174443   -0.326385
      6          6           0      -11.666965   -1.301908   -1.072216
      7          6           0      -11.693371    0.444179    0.891777
      8          6           0      -13.087134   -1.739217   -0.834030
      9          6           0      -13.187468    0.148359    0.908178
     10          6           0      -13.573691   -1.351160    0.671344
     11          6           0      -10.849914   -2.268976   -1.813599
     12          6           0       -9.488996    0.016718   -0.392979
     13          6           0      -11.006882    0.118841    2.266551
     14          6           0      -11.477245    2.042112    0.705758
     15          6           0       -8.568230   -0.884159    0.003287
     16          6           0       -7.185212   -0.659482   -0.138829
     17          6           0       -6.351893   -1.873950    0.079613
     18          6           0       -6.615313    0.578695   -0.204853
     19          6           0       -5.224986    0.747066   -0.375314
     20          6           0       11.848232    0.037643    1.373784
     21          6           0       11.528784   -0.587741   -1.244286
     22          6           0       12.649506   -1.318832    1.485950
     23          6           0       13.344271   -1.766008    0.191663
     24          6           0       12.438181   -1.831062   -0.971951
     25          6           0       11.102536    0.009996    0.133398
     26          6           0       10.958485    0.058009    2.650949
     27          6           0       12.861531    1.230706    1.453917
     28          6           0       12.319966    0.491191   -1.981801
     29          6           0       -4.683892    2.135108   -0.193965
     30          6           0        9.916024    0.477517    0.120093
     31          6           0       -3.384037    2.575245   -0.320756
     32          6           0        8.692390    0.954551   -0.038706
     33          6           0       -3.067425    4.065349   -0.735731
     34          6           0       -2.289189    1.571625   -0.239408
     35          6           0        7.444476    0.174198    0.023583
     36          6           0        7.665688   -1.295656    0.262252
     37          6           0        6.259774    0.743544   -0.173047
     38          6           0       -0.931596    1.805386   -0.444734
     39          6           0        4.966405    0.129054   -0.054697
     40          6           0        0.038943    0.904524   -0.217991
     41          6           0        3.783429    0.759096   -0.205270
     42          6           0        1.431459    1.266471   -0.270657
     43          6           0        2.429768    0.343422   -0.011283
     44          6           0        2.184875   -1.138234    0.306745
     45          1           0      -13.287300   -2.895292   -0.902154
     46          1           0      -14.003325   -1.139312   -1.540344
     47          1           0      -13.517903    0.443048    1.859326
     48          1           0      -13.534604    0.803859    0.171323
     49          1           0      -14.650241   -1.616356    0.797001
     50          1           0      -10.699963   -3.246324   -1.310081
     51          1           0      -11.220575   -2.504758   -2.823869
     52          1           0       -9.750589   -1.861401   -2.311725
     53          1           0       -9.304275    0.876774   -0.633745
     54          1           0      -10.091371    0.685453    2.482322
     55          1           0      -11.757070    0.394532    2.984888
     56          1           0      -10.664332   -0.895655    2.514920
     57          1           0      -11.903935    2.607309   -0.075158
     58          1           0      -11.958219    2.560939    1.715862
     59          1           0      -10.408069    2.094442    0.759056
     60          1           0      -12.153228   -2.317302    1.820009
     61          1           0       -8.747486   -1.845809    0.333024
     62          1           0       -5.319507   -2.012208   -0.583659
     63          1           0       -5.933402   -1.859780    1.256680
     64          1           0       -6.924041   -2.879811   -0.257956
     65          1           0       -7.242580    1.461566   -0.322598
     66          1           0       -4.688803   -0.188893   -0.422747
     67          1           0       13.385418   -1.223886    2.021544
     68          1           0       11.877055   -2.066700    1.931932
     69          1           0       13.726627   -2.766478    0.369984
     70          1           0       13.199046   -1.925879   -1.904548
     71          1           0       11.668088   -2.693335   -0.829342
     72          1           0       11.441746    0.007098    3.601540
     73          1           0       10.113080    0.922038    2.590918
     74          1           0       10.285102   -0.703604    2.629166
     75          1           0       13.497143    0.996804    0.478272
     76          1           0       12.294561    2.168579    1.354488
     77          1           0       13.616574    1.201117    2.274863
     78          1           0       12.501784    0.292502   -3.054726
     79          1           0       11.735975    1.211918   -2.071109
     80          1           0       13.258376    0.777697   -1.573563
     81          1           0       -5.566388    2.969358   -0.280285
     82          1           0        9.933829   -0.237836   -2.127892
     83          1           0       15.084424   -0.880682    0.579796
     84          1           0        8.718185    2.110839   -0.094338
     85          1           0       -2.183799    4.533669   -0.165262
     86          1           0       -2.644690    3.995073   -1.691369
     87          1           0       -4.123677    4.667752   -0.710085
     88          1           0       -2.535977    0.493005   -0.186355
     89          1           0        6.841360   -2.113198    0.259781
     90          1           0        8.499195   -1.607157   -0.229788
     91          1           0        7.841934   -1.330659    1.288876
     92          1           0        6.274949    1.773707   -0.237301
     93          1           0       -0.497687    2.969491   -0.964540
     94          1           0        4.979488   -0.907076    0.011456
     95          1           0       -0.170678    0.009373   -0.039929
     96          1           0        3.921175    1.718260   -0.321525
     97          1           0        1.769617    2.209349   -0.630750
     98          1           0        1.215106   -1.407782    0.105876
     99          1           0        2.837153   -1.744821   -0.277152
    100          1           0        2.511839   -1.532880    1.390250
 ---------------------------------------------------------------------

 SCF Done:  E(RCAM-B3LYP) =  -1857.25043642     A.U. after   15 cycles

 Excitation energies and oscillator strengths:

 Excited State   1:      Singlet-A      2.0052 eV  618.31 nm  f=2.5239  <S**2>=0.000
     163 ->166        -0.11340
     164 ->165         0.70562
     164 <-165        -0.12372
 This state for optimization and/or second-order correction.
 Total Energy, E(TD-HF/TD-DFT) =  -1857.17674605
 Copying the excited state density for this state as the 1-particle RhoCI density.

 The electronic state is 1-A.
 Alpha  occ. eigenvalues --  -19.22946 -19.21932 -19.21708 -19.20963 -10.32319
 Alpha  occ. eigenvalues --  -10.32014 -10.31773 -10.31273 -10.30710 -10.29481
 Alpha  occ. eigenvalues --  -10.28633 -10.28468 -10.28382 -10.28270 -10.28070
 Alpha  occ. eigenvalues --  -10.27988 -10.27752 -10.27517 -10.27514 -10.27488
 Alpha  occ. eigenvalues --  -10.27346 -10.27200 -10.26541 -10.26451 -10.26283
 Alpha  occ. eigenvalues --  -10.26223 -10.26143 -10.26048 -10.25846 -10.25766
 Alpha  occ. eigenvalues --  -10.25665 -10.25664 -10.25384 -10.25162 -10.25130
 Alpha  occ. eigenvalues --  -10.25064 -10.24748 -10.24575 -10.24448 -10.24444
 Alpha  occ. eigenvalues --  -10.24194 -10.24145 -10.23748 -10.21960  -1.13246
 Alpha  occ. eigenvalues --   -1.11908  -1.10998  -1.09284  -0.93913  -0.92635
 Alpha  occ. eigenvalues --   -0.92203  -0.91123  -0.90120  -0.89532  -0.87514
 Alpha  occ. eigenvalues --   -0.86199  -0.85943  -0.85528  -0.84866  -0.83474
 Alpha  occ. eigenvalues --   -0.81468  -0.81006  -0.79997  -0.78331  -0.77887
 Alpha  occ. eigenvalues --   -0.77415  -0.76630  -0.75934  -0.75891  -0.75595
 Alpha  occ. eigenvalues --   -0.75120  -0.74035  -0.73605  -0.71010  -0.70524
 Alpha  occ. eigenvalues --   -0.68758  -0.67478  -0.67046  -0.65777  -0.63900
 Alpha  occ. eigenvalues --   -0.63310  -0.62173  -0.61753  -0.60804  -0.59489
 Alpha  occ. eigenvalues --   -0.59313  -0.59228  -0.58438  -0.58075  -0.56325
 Alpha  occ. eigenvalues --   -0.55644  -0.55081  -0.54813  -0.54569  -0.53875
 Alpha  occ. eigenvalues --   -0.53600  -0.53103  -0.52812  -0.52581  -0.51918
 Alpha  occ. eigenvalues --   -0.51753  -0.50596  -0.50470  -0.50011  -0.49921
 Alpha  occ. eigenvalues --   -0.49622  -0.49103  -0.48998  -0.48634  -0.48228
 Alpha  occ. eigenvalues --   -0.47931  -0.47607  -0.47579  -0.47237  -0.46922
 Alpha  occ. eigenvalues --   -0.46672  -0.46296  -0.46117  -0.45752  -0.45235
 Alpha  occ. eigenvalues --   -0.45029  -0.44566  -0.44290  -0.43884  -0.43767
 Alpha  occ. eigenvalues --   -0.43732  -0.43473  -0.42721  -0.42625  -0.42589
 Alpha  occ. eigenvalues --   -0.42156  -0.41971  -0.41651  -0.41532  -0.41204
 Alpha  occ. eigenvalues --   -0.41160  -0.40964  -0.40748  -0.40648  -0.39926
 Alpha  occ. eigenvalues --   -0.39779  -0.39526  -0.39037  -0.38988  -0.38891
 Alpha  occ. eigenvalues --   -0.38314  -0.38275  -0.38021  -0.37520  -0.37283
 Alpha  occ. eigenvalues --   -0.37230  -0.35699  -0.35170  -0.34435  -0.33822
 Alpha  occ. eigenvalues --   -0.33601  -0.32329  -0.31836  -0.31324  -0.30317
 Alpha  occ. eigenvalues --   -0.29910  -0.28127  -0.24232  -0.19103
 Alpha virt. eigenvalues --   -0.06376  -0.00288   0.03472   0.06242   0.07375
 Alpha virt. eigenvalues --    0.09776   0.09788   0.10036   0.10855   0.11509
 Alpha virt. eigenvalues --    0.12457   0.12673   0.13440   0.13498   0.13660

 Mulliken charges:
               1
     1  O   -0.513718
     2  O   -0.556672
     3  O   -0.544802
     4  O   -0.546486
     5  C    0.210650
     6  C    0.264748
     7  C   -0.005322
     8  C   -0.216339
     9  C   -0.178798
    10  C    0.166966
    11  C   -0.350413
    12  C   -0.052810
    13  C   -0.316175
    14  C   -0.307027
    15  C   -0.052851
    16  C    0.089562
    17  C   -0.376245
    18  C   -0.085704
    19  C   -0.073065
    20  C   -0.010689
    21  C    0.246977
    22  C   -0.146692
    23  C    0.148032
    24  C   -0.189463
    25  C   -0.042866
    26  C   -0.310834
    27  C   -0.307220
    28  C   -0.302107
    29  C   -0.143354
    30  C    0.156310
    31  C    0.082375
    32  C   -0.312985
    33  C   -0.358167
    34  C   -0.130312
    35  C    0.120876
    36  C   -0.380751
    37  C   -0.114686
    38  C   -0.059180
    39  C   -0.078863
    40  C   -0.038752
    41  C   -0.101043
    42  C   -0.123739
    43  C    0.114941
    44  C   -0.372532
    45  H    0.098634
    46  H    0.094266
    47  H    0.099670
    48  H    0.115287
    49  H    0.097912
    50  H    0.103687
    51  H    0.120218
    52  H    0.094919
    53  H    0.075327
    54  H    0.108798
    55  H    0.116517
    56  H    0.084381
    57  H    0.128218
    58  H    0.068755
    59  H    0.104368
    60  H    0.304241
    61  H    0.075480
    62  H    0.096085
    63  H    0.111854
    64  H    0.098210
    65  H    0.082820
    66  H    0.085306
    67  H    0.068751
    68  H    0.090115
    69  H    0.085149
    70  H    0.099346
    71  H    0.105196
    72  H    0.105069
    73  H    0.080465
    74  H    0.113042
    75  H    0.109765
    76  H    0.103215
    77  H    0.092346
    78  H    0.097578
    79  H    0.093962
    80  H    0.136832
    81  H    0.070044
    82  H    0.305619
    83  H    0.312088
    84  H    0.112478
    85  H    0.119496
    86  H    0.144960
    87  H    0.098342
    88  H    0.089577
    89  H    0.101282
    90  H    0.137983
    91  H    0.133093
    92  H    0.067344
    93  H    0.045969
    94  H    0.064849
    95  H    0.058106
    96  H    0.058080
    97  H    0.085970
    98  H    0.116644
    99  H    0.128681
   100  H    0.102834
 Sum of Mulliken charges =  -0.00000

 Dipole moment (field-independent basis, Debye):
    X=              4.0978    Y=             -0.7807    Z=              2.1738  Tot=              4.7040
 Quadrupole moment (field-independent basis, Debye-Ang):
   XX=           -261.5541   YY=           -258.4927   ZZ=           -279.2214
   XY=             -0.0580   XZ=             24.1956   YZ=             -5.9043

 Normal termination of Gaussian 16 at Wed Jul 31 20:26:17 2019.
