 Gaussian 16, Revision A.03,
 Gaussian 16:  ES64L-G16RevA.03 25-Dec-2016

 -------------------------------------
 # td=(NStates=1) CAM-B3LYP/6-31G(d,p)
 -------------------------------------

 --
 TD
 --
 Symbolic Z-matrix:
 Charge =  0 Multiplicity = 1

                         Standard orientation:
 ---------------------------------------------------------------------
 Center     Atomic      Atomic             Coordinates (Angstroms)
 Number     Number       Type             X           Y           Z
 ---------------------------------------------------------------------
      1          8           0      -11.854093    0.529684   -1.270840
      2          8           0      -12.657550   -2.563363    1.353485
      3          8           0       10.647160   -0.896945   -2.176047
      4          8           0       14.604464   -0.955388   -0.041278
      5          6           0      -11.117684   -0.053773   -0.207401
      6          6           0      -11.805636   -0.849821   -1.177391
      7          6           0      -11.719557    0.352199    1.139764
      8          6           0      -13.096482   -1.417295   -0.891610
      9          6           0      -13.188885   -0.075500    1.175731
     10          6           0      -13.399398   -1.532887    0.656331
     11          6           0      -10.983337   -1.546256   -2.185663
     12          6           0       -9.583208    0.155766   -0.244395
     13          6           0      -10.969926   -0.312523    2.335458
     14          6           0      -11.534820    1.807094    1.278637
     15          6           0       -8.672480   -0.847639   -0.191069
     16          6           0       -7.236275   -0.707168   -0.190449
     17          6           0       -6.345682   -1.989194   -0.081646
     18          6           0       -6.549196    0.545753   -0.115316
     19          6           0       -5.229597    0.757571   -0.201784
     20          6           0       11.864406    0.074278    1.416461
     21          6           0       11.656131   -0.513319   -1.152168
     22          6           0       12.502420   -1.359634    1.597177
     23          6           0       13.394774   -1.753956    0.383447
     24          6           0       12.441111   -1.767904   -0.890825
     25          6           0       11.061248    0.070200    0.117233
     26          6           0       10.947122    0.247702    2.651414
     27          6           0       12.868708    1.234641    1.331769
     28          6           0       12.566489    0.458483   -1.970605
     29          6           0       -4.779277    2.004983   -0.450335
     30          6           0        9.855821    0.526431    0.025805
     31          6           0       -3.388490    2.406216   -0.421658
     32          6           0        8.546093    0.996760    0.027159
     33          6           0       -2.992327    3.862955   -0.586610
     34          6           0       -2.292945    1.413553   -0.379614
     35          6           0        7.432140    0.101191    0.041259
     36          6           0        7.600763   -1.391992    0.171449
     37          6           0        6.156183    0.742334   -0.038059
     38          6           0       -1.002804    1.817901   -0.347908
     39          6           0        4.937307    0.091496    0.035037
     40          6           0        0.051296    0.826672   -0.280006
     41          6           0        3.805344    0.870671   -0.236400
     42          6           0        1.360536    1.183005   -0.262854
     43          6           0        2.416740    0.337930   -0.266031
     44          6           0        2.216181   -1.269455   -0.186781
     45          1           0      -13.084972   -2.531024   -1.207713
     46          1           0      -13.915154   -0.980200   -1.474970
     47          1           0      -13.436739    0.198271    2.135164
     48          1           0      -13.779990    0.556325    0.400858
     49          1           0      -14.401080   -1.759104    0.826379
     50          1           0      -10.591711   -2.375298   -1.690374
     51          1           0      -11.390971   -1.922610   -3.266796
     52          1           0      -10.172535   -0.802681   -2.604207
     53          1           0       -9.310114    1.030964   -0.381337
     54          1           0       -9.993762    0.168187    2.516731
     55          1           0      -11.527013   -0.076272    3.152034
     56          1           0      -10.913002   -1.330003    2.311992
     57          1           0      -11.648349    2.547550    0.436287
     58          1           0      -12.279067    2.264012    2.091026
     59          1           0      -10.473866    2.092800    1.460305
     60          1           0      -11.750190   -2.618502    0.951552
     61          1           0       -8.759494   -2.003894   -0.182707
     62          1           0       -5.744670   -2.272843   -0.901592
     63          1           0       -5.701503   -2.010957    0.721668
     64          1           0       -6.929564   -2.856486    0.093798
     65          1           0       -7.156984    1.380103   -0.189504
     66          1           0       -4.481793   -0.067931   -0.237288
     67          1           0       13.108890   -1.070164    2.463337
     68          1           0       11.732405   -2.303183    1.683824
     69          1           0       13.716982   -2.843149    0.323393
     70          1           0       12.957669   -2.253967   -1.682325
     71          1           0       11.742747   -2.665277   -0.396825
     72          1           0       11.550990    0.241994    3.530935
     73          1           0       10.494045    1.321797    2.891866
     74          1           0       10.078420   -0.431035    2.818311
     75          1           0       13.854637    1.268091    0.662874
     76          1           0       12.443810    2.044142    1.086102
     77          1           0       13.154374    1.376050    2.491345
     78          1           0       12.747579   -0.040560   -3.105169
     79          1           0       11.933191    1.250895   -2.122964
     80          1           0       13.396820    0.630177   -1.419642
     81          1           0       -5.396760    2.930824   -0.521990
     82          1           0        9.936894   -0.074013   -2.040295
     83          1           0       15.171102   -0.845060    0.890310
     84          1           0        8.518124    2.004696   -0.138263
     85          1           0       -2.521902    4.442517    0.370120
     86          1           0       -2.387310    3.931248   -1.606142
     87          1           0       -3.877523    4.425966   -0.968456
     88          1           0       -2.550387    0.421633   -0.251327
     89          1           0        6.711297   -1.988599    0.022930
     90          1           0        8.194507   -1.701376   -0.857400
     91          1           0        8.147758   -1.485643    1.108247
     92          1           0        6.366491    1.875195   -0.170429
     93          1           0       -0.938264    2.995719   -0.503132
     94          1           0        4.989440   -0.949923    0.266479
     95          1           0       -0.409268   -0.213289   -0.226087
     96          1           0        3.846879    1.983363   -0.412956
     97          1           0        1.657175    2.246778   -0.348093
     98          1           0        1.008483   -1.639223   -0.085005
     99          1           0        2.759641   -1.714607   -1.028112
    100          1           0        2.626894   -1.699133    0.825378
 ---------------------------------------------------------------------

 SCF Done:  E(RCAM-B3LYP) =  -1857.26014644     A.U. after   16 cycles

 Excitation energies and oscillator strengths:

 Excited State   1:      Singlet-A      1.8431 eV  672.69 nm  f=3.1088  <S**2>=0.000
     163 ->166         0.12255
     164 ->165         0.70407
     164 <-165        -0.12528
 This state for optimization and/or second-order correction.
 Total Energy, E(TD-HF/TD-DFT) =  -1857.19241358
 Copying the excited state density for this state as the 1-particle RhoCI density.

 The electronic state is 1-A.
 Alpha  occ. eigenvalues --  -19.23138 -19.22132 -19.21617 -19.20406 -10.32127
 Alpha  occ. eigenvalues --  -10.31257 -10.31199 -10.30935 -10.30775 -10.29972
 Alpha  occ. eigenvalues --  -10.28678 -10.28595 -10.28188 -10.28149 -10.28042
 Alpha  occ. eigenvalues --  -10.27951 -10.27850 -10.27785 -10.27771 -10.27639
 Alpha  occ. eigenvalues --  -10.27362 -10.27337 -10.27106 -10.26972 -10.26803
 Alpha  occ. eigenvalues --  -10.26782 -10.26755 -10.26667 -10.26551 -10.26438
 Alpha  occ. eigenvalues --  -10.26046 -10.26021 -10.25990 -10.25910 -10.25900
 Alpha  occ. eigenvalues --  -10.25817 -10.25583 -10.25429 -10.25326 -10.25176
 Alpha  occ. eigenvalues --  -10.24569 -10.24429 -10.23146 -10.22347  -1.17745
 Alpha  occ. eigenvalues --   -1.08637  -1.05877  -1.05173  -0.93427  -0.92421
 Alpha  occ. eigenvalues --   -0.91709  -0.91293  -0.90752  -0.89506  -0.87586
 Alpha  occ. eigenvalues --   -0.87200  -0.86185  -0.85469  -0.84334  -0.83344
 Alpha  occ. eigenvalues --   -0.82085  -0.80915  -0.80320  -0.77962  -0.77722
 Alpha  occ. eigenvalues --   -0.76901  -0.76704  -0.76194  -0.75967  -0.75241
 Alpha  occ. eigenvalues --   -0.74821  -0.74534  -0.72426  -0.71338  -0.69321
 Alpha  occ. eigenvalues --   -0.68394  -0.67313  -0.66010  -0.64735  -0.64638
 Alpha  occ. eigenvalues --   -0.63335  -0.61465  -0.60751  -0.60123  -0.59952
 Alpha  occ. eigenvalues --   -0.59433  -0.57804  -0.57491  -0.57152  -0.56354
 Alpha  occ. eigenvalues --   -0.56010  -0.55371  -0.54836  -0.54461  -0.54132
 Alpha  occ. eigenvalues --   -0.53678  -0.52939  -0.52756  -0.51881  -0.51666
 Alpha  occ. eigenvalues --   -0.51209  -0.50864  -0.49938  -0.49617  -0.49304
 Alpha  occ. eigenvalues --   -0.49182  -0.48823  -0.48615  -0.48461  -0.48350
 Alpha  occ. eigenvalues --   -0.48301  -0.48008  -0.47783  -0.47040  -0.46664
 Alpha  occ. eigenvalues --   -0.46568  -0.46303  -0.46027  -0.45773  -0.45027
 Alpha  occ. eigenvalues --   -0.44793  -0.44459  -0.44281  -0.43911  -0.43850
 Alpha  occ. eigenvalues --   -0.43784  -0.42920  -0.42509  -0.42429  -0.42268
 Alpha  occ. eigenvalues --   -0.42166  -0.42059  -0.41834  -0.41579  -0.41311
 Alpha  occ. eigenvalues --   -0.41077  -0.40955  -0.40375  -0.40309  -0.39879
 Alpha  occ. eigenvalues --   -0.39390  -0.39275  -0.38910  -0.38882  -0.38696
 Alpha  occ. eigenvalues --   -0.38623  -0.38330  -0.38119  -0.37934  -0.37050
 Alpha  occ. eigenvalues --   -0.36331  -0.35945  -0.35320  -0.35229  -0.34247
 Alpha  occ. eigenvalues --   -0.32726  -0.32361  -0.32018  -0.31619  -0.31273
 Alpha  occ. eigenvalues --   -0.30062  -0.27232  -0.23631  -0.18468
 Alpha virt. eigenvalues --   -0.07004  -0.01296   0.02440   0.07059   0.07606
 Alpha virt. eigenvalues --    0.08332   0.09868   0.10024   0.11324   0.11794
 Alpha virt. eigenvalues --    0.12186   0.12718   0.13055   0.13484   0.13820

 Mulliken charges:
               1
     1  O   -0.494680
     2  O   -0.549802
     3  O   -0.576460
     4  O   -0.552375
     5  C    0.175070
     6  C    0.282436
     7  C    0.032043
     8  C   -0.248541
     9  C   -0.192508
    10  C    0.164423
    11  C   -0.329094
    12  C   -0.095317
    13  C   -0.290066
    14  C   -0.317147
    15  C   -0.047150
    16  C    0.035330
    17  C   -0.390627
    18  C   -0.100409
    19  C   -0.040564
    20  C    0.010807
    21  C    0.228834
    22  C   -0.175741
    23  C    0.126382
    24  C   -0.166770
    25  C   -0.053505
    26  C   -0.316393
    27  C   -0.301842
    28  C   -0.263748
    29  C   -0.116752
    30  C    0.048538
    31  C    0.057219
    32  C   -0.221117
    33  C   -0.393027
    34  C   -0.081862
    35  C    0.083001
    36  C   -0.356796
    37  C   -0.083197
    38  C   -0.076166
    39  C   -0.090950
    40  C   -0.105841
    41  C   -0.128633
    42  C   -0.107804
    43  C    0.095453
    44  C   -0.354992
    45  H    0.092017
    46  H    0.128805
    47  H    0.092033
    48  H    0.102530
    49  H    0.105093
    50  H    0.107272
    51  H    0.089185
    52  H    0.117662
    53  H    0.083750
    54  H    0.099555
    55  H    0.106408
    56  H    0.097540
    57  H    0.115398
    58  H    0.083462
    59  H    0.097145
    60  H    0.307605
    61  H    0.068641
    62  H    0.125576
    63  H    0.132504
    64  H    0.101521
    65  H    0.075563
    66  H    0.092344
    67  H    0.090880
    68  H    0.110712
    69  H    0.092229
    70  H    0.121213
    71  H    0.060691
    72  H    0.105178
    73  H    0.090400
    74  H    0.116837
    75  H    0.125641
    76  H    0.130898
    77  H    0.068624
    78  H    0.092009
    79  H    0.088567
    80  H    0.124550
    81  H    0.082527
    82  H    0.295980
    83  H    0.299493
    84  H    0.115450
    85  H    0.122090
    86  H    0.122077
    87  H    0.107181
    88  H    0.069891
    89  H    0.115425
    90  H    0.123870
    91  H    0.128317
    92  H    0.076442
    93  H    0.090057
    94  H    0.098857
    95  H    0.091084
    96  H    0.091582
    97  H    0.085569
    98  H    0.083239
    99  H    0.130881
   100  H    0.110294
 Sum of Mulliken charges =  -0.00000

 Dipole moment (field-independent basis, Debye):
    X=              2.2322    Y=              0.4716    Z=              2.5964  Tot=              3.4563
 Quadrupole moment (field-independent basis, Debye-Ang):
   XX=           -294.0955   YY=           -257.8739   ZZ=           -279.9867
   XY=              4.9533   XZ=             49.3775   YZ=             -0.5029

 Normal termination of Gaussian 16 at Fri Aug  2 12:56:04 2019.
