 Gaussian 16, Revision A.03,
 Gaussian 16:  ES64L-G16RevA.03 25-Dec-2016

 -------------------------------------
 # td=(NStates=1) CAM-B3LYP/6-31G(d,p)
 -------------------------------------

 --
 TD
 --
 Symbolic Z-matrix:
 Charge =  0 Multiplicity = 1

                         Standard orientation:
 ---------------------------------------------------------------------
 Center     Atomic      Atomic             Coordinates (Angstroms)
 Number     Number       Type             X           Y           Z
 ---------------------------------------------------------------------
      1          8           0      -11.762870    0.221431   -1.639788
      2          8           0      -12.855383   -2.603574    1.339564
      3          8           0       10.747497   -0.852212   -2.257577
      4          8           0       14.509186   -1.121773   -0.103781
      5          6           0      -11.113140   -0.087915   -0.374086
      6          6           0      -11.638113   -1.157111   -1.235886
      7          6           0      -11.889388    0.383200    0.929058
      8          6           0      -12.983140   -1.816886   -0.955951
      9          6           0      -13.288590   -0.177951    0.848271
     10          6           0      -13.502703   -1.593690    0.401810
     11          6           0      -10.719487   -1.828159   -2.328230
     12          6           0       -9.531748    0.118896   -0.314934
     13          6           0      -11.228501   -0.109482    2.270265
     14          6           0      -11.808963    1.932383    0.922833
     15          6           0       -8.637925   -0.723984    0.138732
     16          6           0       -7.236066   -0.601394    0.273123
     17          6           0       -6.314999   -1.797126    0.574492
     18          6           0       -6.559387    0.598608    0.007154
     19          6           0       -5.198803    0.918671   -0.073118
     20          6           0       11.810327   -0.031006    1.298627
     21          6           0       11.682661   -0.563126   -1.300588
     22          6           0       12.687061   -1.311184    1.495079
     23          6           0       13.351175   -1.878550    0.280560
     24          6           0       12.356216   -1.854253   -0.964532
     25          6           0       11.026258    0.018351    0.004049
     26          6           0       10.965143    0.042055    2.569031
     27          6           0       12.806200    1.201928    1.419535
     28          6           0       12.588565    0.445620   -2.142005
     29          6           0       -4.754615    2.200305   -0.410176
     30          6           0        9.894232    0.576192    0.011234
     31          6           0       -3.371816    2.636858   -0.435127
     32          6           0        8.627492    0.997753   -0.188661
     33          6           0       -2.982653    4.010764   -0.659281
     34          6           0       -2.293661    1.620763   -0.135791
     35          6           0        7.448539    0.119849    0.026903
     36          6           0        7.516057   -1.305449    0.228657
     37          6           0        6.196655    0.803726   -0.029298
     38          6           0       -0.971875    1.872259   -0.149436
     39          6           0        4.987259    0.174052    0.017850
     40          6           0        0.029878    0.904233   -0.046119
     41          6           0        3.762168    0.934485   -0.023196
     42          6           0        1.437510    1.174006    0.019793
     43          6           0        2.461844    0.353389   -0.011098
     44          6           0        2.434010   -1.122533    0.241451
     45          1           0      -12.902973   -2.886342   -1.202442
     46          1           0      -13.704837   -1.655781   -1.832307
     47          1           0      -13.757745    0.042106    1.844341
     48          1           0      -13.871109    0.508929    0.036039
     49          1           0      -14.492205   -2.116214    0.529692
     50          1           0      -10.416294   -2.843278   -2.043696
     51          1           0      -11.247335   -1.975824   -3.298417
     52          1           0       -9.654528   -1.283941   -2.449429
     53          1           0       -9.447161    1.158194   -1.158437
     54          1           0      -10.251423    0.222750    2.584628
     55          1           0      -11.917213    0.527916    2.917519
     56          1           0      -11.184623   -1.117886    2.618423
     57          1           0      -12.174520    2.184440   -0.070467
     58          1           0      -12.601553    2.495022    1.567061
     59          1           0      -10.819697    2.294802    1.099786
     60          1           0      -11.950415   -2.759921    0.978054
     61          1           0       -8.994160   -1.779971    0.512403
     62          1           0       -5.720852   -1.892396   -0.394545
     63          1           0       -5.663798   -1.680487    1.367894
     64          1           0       -6.771858   -2.934060    0.864029
     65          1           0       -7.131785    1.611080   -0.252971
     66          1           0       -4.352582    0.195737    0.107018
     67          1           0       13.508404   -1.341066    2.238094
     68          1           0       11.870238   -2.072543    1.893241
     69          1           0       13.590290   -3.150146    0.347146
     70          1           0       13.061784   -2.217347   -1.996108
     71          1           0       11.540097   -2.605129   -0.763207
     72          1           0       11.648162   -0.134036    3.356950
     73          1           0       10.414994    0.941190    2.872409
     74          1           0       10.300235   -0.732770    2.501729
     75          1           0       13.639907    1.190893    0.606797
     76          1           0       12.406689    2.323327    1.234674
     77          1           0       13.173487    1.276999    2.425263
     78          1           0       12.845376   -0.076948   -3.217925
     79          1           0       11.910110    1.535224   -2.091227
     80          1           0       13.451820    0.454703   -1.636138
     81          1           0       -5.476278    3.024918   -0.632866
     82          1           0       10.329091   -0.102529   -2.555788
     83          1           0       15.170946   -1.239656    0.591855
     84          1           0        8.358483    2.107627   -0.182051
     85          1           0       -2.602128    4.565525    0.051889
     86          1           0       -2.357017    4.218154   -1.709420
     87          1           0       -3.857484    4.619107   -0.841852
     88          1           0       -2.553561    0.660114   -0.079180
     89          1           0        6.628271   -1.696586   -0.020930
     90          1           0        8.309097   -1.773797   -0.396517
     91          1           0        7.772070   -1.261924    1.362753
     92          1           0        6.244379    1.880787    0.120666
     93          1           0       -0.719088    2.977886   -0.243978
     94          1           0        4.968259   -1.053662   -0.186773
     95          1           0       -0.484613    0.020499    0.037016
     96          1           0        3.958234    1.983107   -0.150031
     97          1           0        1.492695    2.361516   -0.033374
     98          1           0        1.353007   -1.576966    0.287393
     99          1           0        2.769330   -1.700575   -0.641072
    100          1           0        2.993884   -1.343005    1.213045
 ---------------------------------------------------------------------

 SCF Done:  E(RCAM-B3LYP) =  -1857.26446116     A.U. after   16 cycles

 Excitation energies and oscillator strengths:

 Excited State   1:      Singlet-A      1.8692 eV  663.31 nm  f=2.9617  <S**2>=0.000
     163 ->166         0.13002
     164 ->165         0.70006
     164 <-165        -0.11394
 This state for optimization and/or second-order correction.
 Total Energy, E(TD-HF/TD-DFT) =  -1857.19577009
 Copying the excited state density for this state as the 1-particle RhoCI density.

 The electronic state is 1-A.
 Alpha  occ. eigenvalues --  -19.23081 -19.21913 -19.20212 -19.19908 -10.33639
 Alpha  occ. eigenvalues --  -10.32486 -10.32195 -10.32069 -10.31121 -10.29147
 Alpha  occ. eigenvalues --  -10.28537 -10.28532 -10.28442 -10.28283 -10.28213
 Alpha  occ. eigenvalues --  -10.27915 -10.27593 -10.27537 -10.27520 -10.27400
 Alpha  occ. eigenvalues --  -10.27344 -10.27172 -10.27065 -10.27045 -10.27020
 Alpha  occ. eigenvalues --  -10.26996 -10.26882 -10.26830 -10.26824 -10.26388
 Alpha  occ. eigenvalues --  -10.26368 -10.26365 -10.26290 -10.26175 -10.26145
 Alpha  occ. eigenvalues --  -10.26023 -10.25975 -10.25623 -10.25602 -10.25509
 Alpha  occ. eigenvalues --  -10.25329 -10.24873 -10.23902 -10.23865  -1.14240
 Alpha  occ. eigenvalues --   -1.12323  -1.10662  -1.06158  -0.93535  -0.92427
 Alpha  occ. eigenvalues --   -0.91708  -0.91103  -0.90541  -0.90048  -0.87444
 Alpha  occ. eigenvalues --   -0.86375  -0.86087  -0.85650  -0.84704  -0.83217
 Alpha  occ. eigenvalues --   -0.81664  -0.80619  -0.79791  -0.79082  -0.77759
 Alpha  occ. eigenvalues --   -0.76167  -0.76062  -0.75912  -0.75432  -0.75332
 Alpha  occ. eigenvalues --   -0.74826  -0.74145  -0.72695  -0.70414  -0.69907
 Alpha  occ. eigenvalues --   -0.68017  -0.67039  -0.65405  -0.64838  -0.63997
 Alpha  occ. eigenvalues --   -0.63466  -0.62057  -0.61235  -0.59505  -0.59337
 Alpha  occ. eigenvalues --   -0.59050  -0.58322  -0.58104  -0.56958  -0.56903
 Alpha  occ. eigenvalues --   -0.55767  -0.54610  -0.54382  -0.54178  -0.53602
 Alpha  occ. eigenvalues --   -0.53426  -0.53101  -0.53013  -0.51679  -0.51351
 Alpha  occ. eigenvalues --   -0.51037  -0.50496  -0.50097  -0.49988  -0.49616
 Alpha  occ. eigenvalues --   -0.49507  -0.49156  -0.48800  -0.48771  -0.48263
 Alpha  occ. eigenvalues --   -0.48220  -0.47783  -0.47606  -0.46821  -0.46473
 Alpha  occ. eigenvalues --   -0.46119  -0.45512  -0.45340  -0.45196  -0.44810
 Alpha  occ. eigenvalues --   -0.44782  -0.44214  -0.44122  -0.43377  -0.43236
 Alpha  occ. eigenvalues --   -0.42898  -0.42713  -0.42600  -0.42250  -0.42025
 Alpha  occ. eigenvalues --   -0.41799  -0.41660  -0.41520  -0.41098  -0.40531
 Alpha  occ. eigenvalues --   -0.40500  -0.40229  -0.40175  -0.39733  -0.39653
 Alpha  occ. eigenvalues --   -0.39519  -0.39267  -0.39197  -0.38957  -0.38737
 Alpha  occ. eigenvalues --   -0.38407  -0.38130  -0.37891  -0.37379  -0.36845
 Alpha  occ. eigenvalues --   -0.36768  -0.36520  -0.35367  -0.34526  -0.33901
 Alpha  occ. eigenvalues --   -0.33360  -0.32326  -0.31796  -0.31399  -0.31272
 Alpha  occ. eigenvalues --   -0.30672  -0.27715  -0.23411  -0.18747
 Alpha virt. eigenvalues --   -0.06847  -0.01347   0.02705   0.06308   0.07150
 Alpha virt. eigenvalues --    0.08862   0.09247   0.10203   0.11402   0.12051
 Alpha virt. eigenvalues --    0.12538   0.12601   0.13158   0.13282   0.13698

 Mulliken charges:
               1
     1  O   -0.499673
     2  O   -0.574454
     3  O   -0.530005
     4  O   -0.529712
     5  C    0.199864
     6  C    0.219955
     7  C    0.022851
     8  C   -0.230043
     9  C   -0.175574
    10  C    0.152450
    11  C   -0.326634
    12  C   -0.113982
    13  C   -0.312872
    14  C   -0.322906
    15  C   -0.081048
    16  C    0.074638
    17  C   -0.367626
    18  C   -0.120797
    19  C   -0.046972
    20  C    0.005309
    21  C    0.255449
    22  C   -0.166599
    23  C    0.140641
    24  C   -0.176550
    25  C   -0.054907
    26  C   -0.306709
    27  C   -0.300093
    28  C   -0.297318
    29  C   -0.127004
    30  C    0.134484
    31  C    0.081283
    32  C   -0.265464
    33  C   -0.385845
    34  C   -0.096691
    35  C    0.088519
    36  C   -0.343546
    37  C   -0.102324
    38  C   -0.072155
    39  C   -0.098493
    40  C   -0.080504
    41  C   -0.136080
    42  C   -0.126144
    43  C    0.137271
    44  C   -0.374781
    45  H    0.110632
    46  H    0.119351
    47  H    0.102186
    48  H    0.093665
    49  H    0.116951
    50  H    0.093485
    51  H    0.116342
    52  H    0.116851
    53  H    0.091635
    54  H    0.105259
    55  H    0.090445
    56  H    0.117769
    57  H    0.126652
    58  H    0.091827
    59  H    0.123058
    60  H    0.296430
    61  H    0.078309
    62  H    0.125522
    63  H    0.138945
    64  H    0.077934
    65  H    0.079000
    66  H    0.083549
    67  H    0.089987
    68  H    0.086697
    69  H    0.050665
    70  H    0.078510
    71  H    0.110419
    72  H    0.105150
    73  H    0.109740
    74  H    0.106879
    75  H    0.111411
    76  H    0.076940
    77  H    0.101010
    78  H    0.102659
    79  H    0.064441
    80  H    0.137933
    81  H    0.084174
    82  H    0.295539
    83  H    0.310948
    84  H    0.103295
    85  H    0.144683
    86  H    0.099095
    87  H    0.107410
    88  H    0.064722
    89  H    0.114075
    90  H    0.131104
    91  H    0.125977
    92  H    0.080658
    93  H    0.071979
    94  H    0.082174
    95  H    0.069310
    96  H    0.086637
    97  H    0.079211
    98  H    0.095234
    99  H    0.125471
   100  H    0.130854
 Sum of Mulliken charges =  -0.00000

 Dipole moment (field-independent basis, Debye):
    X=              4.7408    Y=             -0.3805    Z=              1.6199  Tot=              5.0243
 Quadrupole moment (field-independent basis, Debye-Ang):
   XX=           -269.8960   YY=           -257.9997   ZZ=           -278.7940
   XY=             -5.7384   XZ=             38.5649   YZ=              0.8280

 Normal termination of Gaussian 16 at Thu Aug  1 05:06:53 2019.
