 Gaussian 16, Revision A.03,
 Gaussian 16:  ES64L-G16RevA.03 25-Dec-2016

 -------------------------------------
 # td=(NStates=1) CAM-B3LYP/6-31G(d,p)
 -------------------------------------

 --
 TD
 --
 Symbolic Z-matrix:
 Charge =  0 Multiplicity = 1

                         Standard orientation:
 ---------------------------------------------------------------------
 Center     Atomic      Atomic             Coordinates (Angstroms)
 Number     Number       Type             X           Y           Z
 ---------------------------------------------------------------------
      1          8           0      -11.712053    0.194200   -1.482193
      2          8           0      -13.090428   -2.413339    1.448339
      3          8           0       10.527146   -1.251294   -1.935737
      4          8           0       14.537993   -1.064216   -0.063427
      5          6           0      -11.030002   -0.141450   -0.336971
      6          6           0      -11.522924   -1.171363   -1.266777
      7          6           0      -11.820549    0.440875    0.896968
      8          6           0      -12.855501   -1.856494   -0.943227
      9          6           0      -13.357771   -0.071171    0.850907
     10          6           0      -13.551766   -1.473738    0.373367
     11          6           0      -10.710944   -1.924194   -2.235534
     12          6           0       -9.552820    0.108354   -0.321071
     13          6           0      -11.220246   -0.179578    2.235377
     14          6           0      -11.744313    1.892870    0.989985
     15          6           0       -8.703079   -0.705497    0.180706
     16          6           0       -7.192929   -0.592317    0.252793
     17          6           0       -6.339085   -1.754821    0.404788
     18          6           0       -6.653125    0.660534    0.134320
     19          6           0       -5.293456    0.977361   -0.117983
     20          6           0       11.916232    0.152937    1.377491
     21          6           0       11.606913   -0.713409   -1.261750
     22          6           0       12.566162   -1.245545    1.505563
     23          6           0       13.369940   -1.851670    0.300697
     24          6           0       12.479702   -1.976659   -0.842751
     25          6           0       11.134580    0.008003    0.102401
     26          6           0       11.038534    0.369493    2.635834
     27          6           0       12.806683    1.190192    1.143184
     28          6           0       12.515083    0.244171   -2.131026
     29          6           0       -4.762298    2.217830   -0.383344
     30          6           0        9.903882    0.577321   -0.121445
     31          6           0       -3.422922    2.591544   -0.403482
     32          6           0        8.710992    1.096056   -0.157002
     33          6           0       -3.114783    3.979803   -0.861484
     34          6           0       -2.316056    1.609257   -0.119651
     35          6           0        7.530922    0.308268   -0.032705
     36          6           0        7.721645   -1.130561    0.316172
     37          6           0        6.240570    0.881124   -0.158078
     38          6           0       -0.961169    1.800373   -0.392217
     39          6           0        5.037539    0.264231    0.032355
     40          6           0        0.027562    0.790575   -0.226296
     41          6           0        3.789462    0.775372   -0.226671
     42          6           0        1.355934    1.076094   -0.366730
     43          6           0        2.461509    0.269629   -0.006610
     44          6           0        2.377283   -1.208043    0.405910
     45          1           0      -12.783770   -2.930685   -1.024130
     46          1           0      -13.539427   -1.662433   -1.734069
     47          1           0      -13.766167   -0.128271    1.837197
     48          1           0      -14.104693    0.497325    0.253575
     49          1           0      -14.707283   -1.716753    0.252375
     50          1           0      -10.137140   -2.961499   -1.781063
     51          1           0      -11.123387   -2.346362   -3.174912
     52          1           0       -9.895600   -1.395564   -2.509669
     53          1           0       -9.126934    1.086105   -0.815105
     54          1           0      -10.211204    0.101565    2.372436
     55          1           0      -11.582431    0.123886    3.112891
     56          1           0      -11.288038   -1.321096    2.296341
     57          1           0      -12.070031    2.186660   -0.070856
     58          1           0      -12.331308    2.241975    1.670753
     59          1           0      -10.739033    2.405286    1.086277
     60          1           0      -12.132659   -2.339539    1.292682
     61          1           0       -8.869469   -1.536516    0.738878
     62          1           0       -5.551770   -1.787828   -0.380748
     63          1           0       -5.763432   -1.552999    1.483449
     64          1           0       -6.829933   -2.689381    0.441172
     65          1           0       -7.216278    1.560060    0.075051
     66          1           0       -4.504905    0.050160   -0.104484
     67          1           0       13.463153   -1.057460    2.260592
     68          1           0       11.736969   -1.938436    1.764984
     69          1           0       13.638607   -2.856983    0.567723
     70          1           0       12.946711   -2.332181   -1.748264
     71          1           0       11.745773   -2.643549   -0.434306
     72          1           0       11.676732    0.753361    3.752835
     73          1           0       10.232450    1.295613    2.486549
     74          1           0       10.440068   -0.563348    2.931932
     75          1           0       13.483929    1.283374    0.169702
     76          1           0       12.449994    2.311913    1.289638
     77          1           0       13.716194    1.194337    1.836227
     78          1           0       12.850382   -0.306719   -3.020802
     79          1           0       11.795463    0.902978   -2.394916
     80          1           0       13.372135    0.727794   -1.657127
     81          1           0       -5.591767    2.957822   -0.399069
     82          1           0        9.873916   -0.567662   -2.251116
     83          1           0       15.107501   -0.733531    0.833298
     84          1           0        8.480060    2.088648   -0.397710
     85          1           0       -2.827392    4.745455    0.074981
     86          1           0       -2.352337    4.130758   -1.755050
     87          1           0       -4.046372    4.365008   -1.367860
     88          1           0       -2.724213    0.535336    0.129413
     89          1           0        6.732082   -1.494972    0.235918
     90          1           0        8.414113   -1.647893   -0.232584
     91          1           0        7.959422   -1.530136    1.332173
     92          1           0        6.145798    1.939250   -0.407178
     93          1           0       -0.665591    2.742398   -0.716826
     94          1           0        5.110451   -0.688818    0.436182
     95          1           0       -0.390222   -0.123022    0.150183
     96          1           0        3.811193    1.813414   -0.511295
     97          1           0        1.549862    2.004990   -0.553983
     98          1           0        1.363510   -1.438740    0.534903
     99          1           0        2.850526   -1.695383   -0.534114
    100          1           0        3.032178   -1.495036    1.184986
 ---------------------------------------------------------------------

 SCF Done:  E(RCAM-B3LYP) =  -1857.31172800     A.U. after   15 cycles

 Excitation energies and oscillator strengths:

 Excited State   1:      Singlet-A      1.8909 eV  655.68 nm  f=2.9053  <S**2>=0.000
     163 ->166         0.11975
     164 ->165         0.70387
     164 <-165        -0.12584
 This state for optimization and/or second-order correction.
 Total Energy, E(TD-HF/TD-DFT) =  -1857.24223798
 Copying the excited state density for this state as the 1-particle RhoCI density.

 The electronic state is 1-A.
 Alpha  occ. eigenvalues --  -19.22853 -19.22623 -19.22478 -19.20149 -10.32819
 Alpha  occ. eigenvalues --  -10.32704 -10.32432 -10.31268 -10.30751 -10.29235
 Alpha  occ. eigenvalues --  -10.28627 -10.28540 -10.28413 -10.28021 -10.27927
 Alpha  occ. eigenvalues --  -10.27873 -10.27831 -10.27741 -10.27684 -10.27437
 Alpha  occ. eigenvalues --  -10.27186 -10.27139 -10.27021 -10.26706 -10.26480
 Alpha  occ. eigenvalues --  -10.26442 -10.26430 -10.26270 -10.26112 -10.26094
 Alpha  occ. eigenvalues --  -10.26020 -10.25854 -10.25789 -10.25568 -10.25500
 Alpha  occ. eigenvalues --  -10.25292 -10.25164 -10.25108 -10.25051 -10.24134
 Alpha  occ. eigenvalues --  -10.24002 -10.23629 -10.23511 -10.23424  -1.19221
 Alpha  occ. eigenvalues --   -1.11036  -1.07177  -1.06746  -0.94140  -0.92427
 Alpha  occ. eigenvalues --   -0.92250  -0.91229  -0.90522  -0.89821  -0.87867
 Alpha  occ. eigenvalues --   -0.86834  -0.86661  -0.86120  -0.85031  -0.83023
 Alpha  occ. eigenvalues --   -0.82391  -0.81868  -0.80582  -0.79090  -0.77447
 Alpha  occ. eigenvalues --   -0.77308  -0.77168  -0.76231  -0.76124  -0.76103
 Alpha  occ. eigenvalues --   -0.74608  -0.74466  -0.72635  -0.70119  -0.69531
 Alpha  occ. eigenvalues --   -0.68309  -0.67025  -0.66187  -0.65118  -0.64766
 Alpha  occ. eigenvalues --   -0.63680  -0.62262  -0.61435  -0.60701  -0.59911
 Alpha  occ. eigenvalues --   -0.59102  -0.58655  -0.58052  -0.57662  -0.57523
 Alpha  occ. eigenvalues --   -0.56198  -0.55760  -0.55424  -0.54805  -0.54790
 Alpha  occ. eigenvalues --   -0.53813  -0.53387  -0.53031  -0.52938  -0.52137
 Alpha  occ. eigenvalues --   -0.51726  -0.51591  -0.51387  -0.49942  -0.49745
 Alpha  occ. eigenvalues --   -0.49408  -0.48999  -0.48573  -0.48263  -0.48042
 Alpha  occ. eigenvalues --   -0.47725  -0.47523  -0.47309  -0.47271  -0.47188
 Alpha  occ. eigenvalues --   -0.46886  -0.46812  -0.46396  -0.46225  -0.46041
 Alpha  occ. eigenvalues --   -0.46005  -0.45491  -0.44995  -0.44623  -0.44144
 Alpha  occ. eigenvalues --   -0.43951  -0.43663  -0.43453  -0.42942  -0.42784
 Alpha  occ. eigenvalues --   -0.42694  -0.42363  -0.41874  -0.41216  -0.40972
 Alpha  occ. eigenvalues --   -0.40951  -0.40795  -0.40648  -0.40505  -0.40319
 Alpha  occ. eigenvalues --   -0.40012  -0.39686  -0.39178  -0.38413  -0.38343
 Alpha  occ. eigenvalues --   -0.37602  -0.37552  -0.37489  -0.37276  -0.36891
 Alpha  occ. eigenvalues --   -0.36079  -0.35915  -0.35185  -0.34669  -0.34305
 Alpha  occ. eigenvalues --   -0.33030  -0.32573  -0.32370  -0.31915  -0.31548
 Alpha  occ. eigenvalues --   -0.28755  -0.28126  -0.24406  -0.18651
 Alpha virt. eigenvalues --   -0.06895  -0.00867   0.03152   0.05750   0.07183
 Alpha virt. eigenvalues --    0.07816   0.10483   0.11228   0.11543   0.11748
 Alpha virt. eigenvalues --    0.12382   0.12500   0.13531   0.13899   0.14082

 Mulliken charges:
               1
     1  O   -0.484413
     2  O   -0.553307
     3  O   -0.552749
     4  O   -0.569639
     5  C    0.199864
     6  C    0.258566
     7  C    0.024316
     8  C   -0.214832
     9  C   -0.171167
    10  C    0.104637
    11  C   -0.340503
    12  C   -0.137519
    13  C   -0.321288
    14  C   -0.304960
    15  C   -0.018133
    16  C    0.057243
    17  C   -0.372584
    18  C   -0.105494
    19  C   -0.056605
    20  C    0.076953
    21  C    0.251617
    22  C   -0.203118
    23  C    0.181359
    24  C   -0.175441
    25  C   -0.071430
    26  C   -0.279997
    27  C   -0.307156
    28  C   -0.292576
    29  C   -0.134409
    30  C    0.116055
    31  C    0.096204
    32  C   -0.266816
    33  C   -0.370485
    34  C   -0.118896
    35  C    0.099024
    36  C   -0.375091
    37  C   -0.111375
    38  C   -0.077538
    39  C   -0.069811
    40  C   -0.076302
    41  C   -0.126435
    42  C   -0.092543
    43  C    0.081240
    44  C   -0.361482
    45  H    0.115257
    46  H    0.116408
    47  H    0.122638
    48  H    0.097775
    49  H    0.087095
    50  H    0.072956
    51  H    0.124409
    52  H    0.133084
    53  H    0.099534
    54  H    0.105388
    55  H    0.113267
    56  H    0.074698
    57  H    0.111166
    58  H    0.119271
    59  H    0.097601
    60  H    0.300194
    61  H    0.074453
    62  H    0.135483
    63  H    0.108856
    64  H    0.114792
    65  H    0.074368
    66  H    0.057544
    67  H    0.060455
    68  H    0.106551
    69  H    0.095047
    70  H    0.108488
    71  H    0.106403
    72  H    0.061304
    73  H    0.099816
    74  H    0.107305
    75  H    0.116927
    76  H    0.097021
    77  H    0.069345
    78  H    0.104243
    79  H    0.094305
    80  H    0.128744
    81  H    0.081821
    82  H    0.315704
    83  H    0.302241
    84  H    0.098390
    85  H    0.103207
    86  H    0.110461
    87  H    0.112812
    88  H    0.071024
    89  H    0.100426
    90  H    0.136647
    91  H    0.108606
    92  H    0.073958
    93  H    0.083934
    94  H    0.071884
    95  H    0.082347
    96  H    0.066692
    97  H    0.071452
    98  H    0.113721
    99  H    0.119948
   100  H    0.129550
 Sum of Mulliken charges =  -0.00000

 Dipole moment (field-independent basis, Debye):
    X=              2.3058    Y=              0.4002    Z=              0.8548  Tot=              2.4914
 Quadrupole moment (field-independent basis, Debye-Ang):
   XX=           -283.2441   YY=           -262.9332   ZZ=           -274.5749
   XY=             -0.2846   XZ=             31.1882   YZ=             -0.4934

 Normal termination of Gaussian 16 at Thu Aug  1 00:46:56 2019.
