 Gaussian 16, Revision A.03,
 Gaussian 16:  ES64L-G16RevA.03 25-Dec-2016

 -------------------------------------
 # td=(NStates=1) CAM-B3LYP/6-31G(d,p)
 -------------------------------------

 --
 TD
 --
 Symbolic Z-matrix:
 Charge =  0 Multiplicity = 1

                         Standard orientation:
 ---------------------------------------------------------------------
 Center     Atomic      Atomic             Coordinates (Angstroms)
 Number     Number       Type             X           Y           Z
 ---------------------------------------------------------------------
      1          8           0      -11.783758    0.435133   -1.412918
      2          8           0      -12.922024   -2.457298    1.295763
      3          8           0       10.479857   -1.090397   -1.982322
      4          8           0       14.455484   -0.986210   -0.139041
      5          6           0      -11.111613   -0.069477   -0.279369
      6          6           0      -11.781355   -0.979675   -1.222082
      7          6           0      -11.756440    0.317766    1.101628
      8          6           0      -13.187011   -1.642806   -0.970052
      9          6           0      -13.272661   -0.011095    1.070123
     10          6           0      -13.556533   -1.499375    0.475888
     11          6           0      -11.019584   -1.882593   -2.337305
     12          6           0       -9.574594    0.206368   -0.316137
     13          6           0      -11.153835   -0.354685    2.293015
     14          6           0      -11.666385    1.918514    1.126315
     15          6           0       -8.692722   -0.739321   -0.068138
     16          6           0       -7.247657   -0.652354    0.139582
     17          6           0       -6.491991   -1.908546    0.575660
     18          6           0       -6.540266    0.497597   -0.102422
     19          6           0       -5.165263    0.751411   -0.211981
     20          6           0       11.943536    0.094726    1.380913
     21          6           0       11.590061   -0.665773   -1.124693
     22          6           0       12.710081   -1.337814    1.555594
     23          6           0       13.451889   -1.877625    0.281243
     24          6           0       12.408304   -1.982960   -0.869712
     25          6           0       11.100941   -0.041169    0.097686
     26          6           0       11.093399    0.361925    2.616180
     27          6           0       13.018842    1.115258    1.260609
     28          6           0       12.471718    0.267631   -1.997070
     29          6           0       -4.649041    2.057798   -0.291456
     30          6           0        9.898617    0.549382    0.048423
     31          6           0       -3.360674    2.503008   -0.365693
     32          6           0        8.687406    1.020007   -0.233199
     33          6           0       -3.005509    3.966283   -0.514817
     34          6           0       -2.273298    1.461833   -0.251792
     35          6           0        7.498993    0.263938    0.079889
     36          6           0        7.646272   -1.192012    0.467849
     37          6           0        6.346930    0.937606   -0.097466
     38          6           0       -0.930822    1.768254   -0.450396
     39          6           0        4.993711    0.360663   -0.076742
     40          6           0        0.031041    0.846304   -0.360737
     41          6           0        3.809966    1.035282   -0.306902
     42          6           0        1.425694    1.222760   -0.486171
     43          6           0        2.510273    0.340634   -0.274936
     44          6           0        2.490418   -1.107211    0.075360
     45          1           0      -13.091420   -2.563654   -1.341468
     46          1           0      -13.802799   -1.003080   -1.668375
     47          1           0      -13.983485   -0.046008    1.963988
     48          1           0      -13.992167    0.555842    0.246743
     49          1           0      -14.605330   -1.792733    0.724930
     50          1           0      -10.826924   -2.802451   -2.021549
     51          1           0      -11.508914   -1.998869   -3.238853
     52          1           0      -10.102407   -1.379896   -2.626255
     53          1           0       -9.407815    1.213982   -0.700512
     54          1           0      -10.258452    0.018240    2.589700
     55          1           0      -11.545688    0.134941    3.286021
     56          1           0      -11.267472   -1.600820    2.397610
     57          1           0      -12.415791    2.171747    0.305372
     58          1           0      -12.005391    2.302125    2.214405
     59          1           0      -10.560832    2.211057    0.915122
     60          1           0      -12.061840   -2.357928    1.194839
     61          1           0       -9.175504   -1.535100    0.221430
     62          1           0       -6.262584   -2.515545   -0.390997
     63          1           0       -5.648292   -1.698158    1.171875
     64          1           0       -7.030334   -2.589194    1.176818
     65          1           0       -7.371295    1.186288   -0.438558
     66          1           0       -4.406148    0.056339   -0.185803
     67          1           0       13.327763   -1.203910    2.326472
     68          1           0       11.749721   -1.977882    1.783794
     69          1           0       13.814507   -2.876057    0.429229
     70          1           0       12.751048   -2.335605   -1.728666
     71          1           0       11.584605   -2.664768   -0.704724
     72          1           0       11.607141    0.440824    3.709924
     73          1           0       10.440312    1.365156    2.435999
     74          1           0       10.382272   -0.608226    2.527141
     75          1           0       13.764420    0.979268    0.354267
     76          1           0       12.611509    1.907925    1.313216
     77          1           0       13.444482    1.110929    2.195140
     78          1           0       12.732944   -0.390370   -2.893958
     79          1           0       12.032436    1.238876   -2.277567
     80          1           0       13.499067    0.677530   -1.570109
     81          1           0       -5.269527    2.763596   -0.392796
     82          1           0        9.806644   -0.308485   -2.077613
     83          1           0       15.064966   -1.117967    0.567736
     84          1           0        8.395439    2.139412   -0.341622
     85          1           0       -2.479567    4.078397    0.388623
     86          1           0       -2.425213    4.144033   -1.468896
     87          1           0       -3.844231    4.701135   -0.621771
     88          1           0       -2.727951    0.490116    0.108103
     89          1           0        6.707953   -1.749749    0.511756
     90          1           0        8.092108   -1.869914   -0.456967
     91          1           0        8.421177   -1.383389    1.435231
     92          1           0        6.509354    1.874433   -0.322385
     93          1           0       -0.405410    2.749045   -0.761518
     94          1           0        5.120704   -0.735932    0.104031
     95          1           0       -0.239350   -0.162491   -0.272309
     96          1           0        3.818030    2.235758   -0.570377
     97          1           0        1.622943    2.224161   -0.824974
     98          1           0        1.415664   -1.619979   -0.055130
     99          1           0        3.228822   -1.746365   -0.449419
    100          1           0        2.794607   -1.069198    1.091687
 ---------------------------------------------------------------------

 SCF Done:  E(RCAM-B3LYP) =  -1857.23419822     A.U. after   15 cycles

 Excitation energies and oscillator strengths:

 Excited State   1:      Singlet-A      2.0780 eV  596.66 nm  f=2.6126  <S**2>=0.000
     163 ->166         0.11682
     164 ->165         0.70252
     164 <-165        -0.11347
 This state for optimization and/or second-order correction.
 Total Energy, E(TD-HF/TD-DFT) =  -1857.15783445
 Copying the excited state density for this state as the 1-particle RhoCI density.

 The electronic state is 1-A.
 Alpha  occ. eigenvalues --  -19.22758 -19.22738 -19.20568 -19.19804 -10.32746
 Alpha  occ. eigenvalues --  -10.32422 -10.31812 -10.31774 -10.30470 -10.28657
 Alpha  occ. eigenvalues --  -10.28379 -10.28244 -10.28212 -10.28038 -10.27932
 Alpha  occ. eigenvalues --  -10.27717 -10.27649 -10.27539 -10.27325 -10.27278
 Alpha  occ. eigenvalues --  -10.27235 -10.27082 -10.27029 -10.27003 -10.26917
 Alpha  occ. eigenvalues --  -10.26687 -10.26678 -10.26512 -10.26249 -10.26101
 Alpha  occ. eigenvalues --  -10.26050 -10.26046 -10.25907 -10.25769 -10.25614
 Alpha  occ. eigenvalues --  -10.25236 -10.25109 -10.25085 -10.24839 -10.24732
 Alpha  occ. eigenvalues --  -10.24366 -10.23993 -10.23947 -10.21339  -1.16334
 Alpha  occ. eigenvalues --   -1.12635  -1.11766  -1.06887  -0.93107  -0.92213
 Alpha  occ. eigenvalues --   -0.91815  -0.91175  -0.90386  -0.89459  -0.87806
 Alpha  occ. eigenvalues --   -0.86327  -0.86172  -0.85265  -0.84797  -0.82382
 Alpha  occ. eigenvalues --   -0.81755  -0.80577  -0.79875  -0.78665  -0.77437
 Alpha  occ. eigenvalues --   -0.76799  -0.76208  -0.76192  -0.75391  -0.75168
 Alpha  occ. eigenvalues --   -0.75107  -0.73798  -0.73123  -0.70996  -0.69629
 Alpha  occ. eigenvalues --   -0.69220  -0.67374  -0.66222  -0.64592  -0.64365
 Alpha  occ. eigenvalues --   -0.64023  -0.62614  -0.61350  -0.60136  -0.59955
 Alpha  occ. eigenvalues --   -0.59243  -0.58846  -0.57958  -0.57219  -0.56994
 Alpha  occ. eigenvalues --   -0.55392  -0.55140  -0.54568  -0.54536  -0.53993
 Alpha  occ. eigenvalues --   -0.53534  -0.53181  -0.52412  -0.52385  -0.51525
 Alpha  occ. eigenvalues --   -0.51309  -0.50840  -0.50644  -0.50110  -0.49785
 Alpha  occ. eigenvalues --   -0.49410  -0.49310  -0.49107  -0.48968  -0.48504
 Alpha  occ. eigenvalues --   -0.48358  -0.47989  -0.47819  -0.47245  -0.46918
 Alpha  occ. eigenvalues --   -0.46563  -0.46022  -0.45591  -0.45499  -0.45196
 Alpha  occ. eigenvalues --   -0.44931  -0.44786  -0.44661  -0.43707  -0.43585
 Alpha  occ. eigenvalues --   -0.43346  -0.43284  -0.42947  -0.42734  -0.42342
 Alpha  occ. eigenvalues --   -0.42170  -0.42110  -0.41931  -0.41878  -0.41514
 Alpha  occ. eigenvalues --   -0.40987  -0.40766  -0.40647  -0.40194  -0.40025
 Alpha  occ. eigenvalues --   -0.39720  -0.39312  -0.38789  -0.38557  -0.38318
 Alpha  occ. eigenvalues --   -0.38008  -0.37925  -0.37728  -0.37582  -0.37078
 Alpha  occ. eigenvalues --   -0.36188  -0.35679  -0.35163  -0.34780  -0.34501
 Alpha  occ. eigenvalues --   -0.33249  -0.32374  -0.32069  -0.31275  -0.30166
 Alpha  occ. eigenvalues --   -0.29014  -0.28168  -0.24437  -0.19264
 Alpha virt. eigenvalues --   -0.06048  -0.00280   0.03632   0.05456   0.06802
 Alpha virt. eigenvalues --    0.09432   0.10533   0.11229   0.11832   0.12109
 Alpha virt. eigenvalues --    0.12626   0.12898   0.13458   0.13690   0.14085

 Mulliken charges:
               1
     1  O   -0.490276
     2  O   -0.523421
     3  O   -0.592231
     4  O   -0.508663
     5  C    0.178064
     6  C    0.203640
     7  C    0.019785
     8  C   -0.178487
     9  C   -0.186311
    10  C    0.122218
    11  C   -0.356838
    12  C   -0.112740
    13  C   -0.310109
    14  C   -0.299928
    15  C   -0.044398
    16  C    0.056873
    17  C   -0.367744
    18  C   -0.101503
    19  C   -0.065949
    20  C   -0.019136
    21  C    0.231009
    22  C   -0.177448
    23  C    0.124565
    24  C   -0.184374
    25  C   -0.005708
    26  C   -0.297275
    27  C   -0.255104
    28  C   -0.287881
    29  C   -0.071111
    30  C    0.121920
    31  C    0.053052
    32  C   -0.318655
    33  C   -0.364847
    34  C   -0.141240
    35  C    0.155812
    36  C   -0.367248
    37  C   -0.087310
    38  C   -0.075754
    39  C   -0.101790
    40  C   -0.055542
    41  C   -0.114963
    42  C   -0.147086
    43  C    0.108203
    44  C   -0.370895
    45  H    0.110042
    46  H    0.119951
    47  H    0.109609
    48  H    0.075921
    49  H    0.091776
    50  H    0.120023
    51  H    0.120909
    52  H    0.119162
    53  H    0.112514
    54  H    0.120320
    55  H    0.089590
    56  H    0.091376
    57  H    0.134424
    58  H    0.088515
    59  H    0.094863
    60  H    0.278293
    61  H    0.064266
    62  H    0.109316
    63  H    0.119403
    64  H    0.111411
    65  H    0.070334
    66  H    0.075694
    67  H    0.082464
    68  H    0.081063
    69  H    0.093384
    70  H    0.110897
    71  H    0.114258
    72  H    0.093391
    73  H    0.102963
    74  H    0.090111
    75  H    0.125468
    76  H    0.089849
    77  H    0.081944
    78  H    0.105707
    79  H    0.090121
    80  H    0.106971
    81  H    0.050133
    82  H    0.311525
    83  H    0.307101
    84  H    0.105912
    85  H    0.145358
    86  H    0.123439
    87  H    0.108855
    88  H    0.094985
    89  H    0.109820
    90  H    0.113615
    91  H    0.102966
    92  H    0.053700
    93  H    0.088029
    94  H    0.075366
    95  H    0.077715
    96  H    0.084517
    97  H    0.083726
    98  H    0.100139
    99  H    0.128807
   100  H    0.144814
 Sum of Mulliken charges =  -0.00000

 Dipole moment (field-independent basis, Debye):
    X=              3.8538    Y=             -0.2126    Z=              2.0127  Tot=              4.3529
 Quadrupole moment (field-independent basis, Debye-Ang):
   XX=           -270.0213   YY=           -259.5946   ZZ=           -276.1744
   XY=             -5.0768   XZ=             33.5282   YZ=             -0.5874

 Normal termination of Gaussian 16 at Thu Aug  1 02:53:28 2019.
