 Gaussian 16, Revision A.03,
 Gaussian 16:  ES64L-G16RevA.03 25-Dec-2016

 -------------------------------------
 # td=(NStates=1) CAM-B3LYP/6-31G(d,p)
 -------------------------------------

 --
 TD
 --
 Symbolic Z-matrix:
 Charge =  0 Multiplicity = 1

                         Standard orientation:
 ---------------------------------------------------------------------
 Center     Atomic      Atomic             Coordinates (Angstroms)
 Number     Number       Type             X           Y           Z
 ---------------------------------------------------------------------
      1          8           0      -11.899715    0.598296   -1.391027
      2          8           0      -12.982001   -2.457241    1.239273
      3          8           0       10.616766   -1.118956   -2.066158
      4          8           0       14.643565   -0.736638   -0.148467
      5          6           0      -11.125015   -0.052285   -0.325006
      6          6           0      -11.799959   -0.856853   -1.366160
      7          6           0      -11.745388    0.242093    1.038720
      8          6           0      -13.189155   -1.526091   -1.034396
      9          6           0      -13.197774   -0.063699    1.061674
     10          6           0      -13.491985   -1.411422    0.557020
     11          6           0      -11.008920   -1.492263   -2.447872
     12          6           0       -9.685129    0.140936   -0.417440
     13          6           0      -11.065807   -0.370711    2.296150
     14          6           0      -11.425493    1.773653    1.279089
     15          6           0       -8.756136   -0.781965   -0.016857
     16          6           0       -7.310720   -0.608626    0.166079
     17          6           0       -6.559817   -1.866251    0.297785
     18          6           0       -6.769514    0.562198   -0.158901
     19          6           0       -5.360218    0.846353   -0.216949
     20          6           0       11.976067    0.063096    1.243634
     21          6           0       11.699622   -0.556537   -1.275180
     22          6           0       12.848836   -1.194588    1.390415
     23          6           0       13.561227   -1.645134    0.087984
     24          6           0       12.624353   -1.795555   -1.020764
     25          6           0       11.068995    0.028276    0.040315
     26          6           0       11.234607    0.236496    2.595812
     27          6           0       12.897024    1.295193    1.334865
     28          6           0       12.371938    0.562513   -2.072659
     29          6           0       -4.795638    2.090157   -0.481359
     30          6           0        9.894236    0.512220    0.047832
     31          6           0       -3.358990    2.431251   -0.463802
     32          6           0        8.641467    0.886187   -0.042030
     33          6           0       -2.935361    3.864521   -0.638591
     34          6           0       -2.271860    1.513308   -0.315726
     35          6           0        7.455696    0.014487    0.078514
     36          6           0        7.644514   -1.432058    0.388624
     37          6           0        6.301974    0.668632   -0.157357
     38          6           0       -0.908209    1.752575   -0.184071
     39          6           0        5.000572    0.088288   -0.001944
     40          6           0        0.071440    0.765834    0.002806
     41          6           0        3.747059    0.704676   -0.150934
     42          6           0        1.355595    0.962195   -0.021711
     43          6           0        2.470341    0.145485    0.069615
     44          6           0        2.287417   -1.405589    0.252841
     45          1           0      -13.310540   -2.635740   -1.283852
     46          1           0      -13.968924   -0.828771   -1.694223
     47          1           0      -13.570073   -0.186413    2.189401
     48          1           0      -13.881308    0.615241    0.499452
     49          1           0      -14.699904   -1.433961    0.708726
     50          1           0      -10.806079   -2.695565   -2.265542
     51          1           0      -11.831472   -1.492220   -3.357050
     52          1           0      -10.138345   -1.020340   -2.764355
     53          1           0       -9.287417    1.094471   -0.684246
     54          1           0       -9.997370   -0.082788    2.421600
     55          1           0      -11.306086    0.169818    3.235687
     56          1           0      -11.260038   -1.455675    2.318488
     57          1           0      -12.088494    2.302717    0.382840
     58          1           0      -12.161774    2.201095    2.176780
     59          1           0      -10.428947    2.071256    1.386238
     60          1           0      -12.100004   -2.507296    1.156116
     61          1           0       -9.082204   -1.717166    0.457609
     62          1           0       -5.997844   -2.128033   -0.605796
     63          1           0       -5.791431   -1.825547    0.935642
     64          1           0       -6.980931   -2.822008    0.554479
     65          1           0       -7.392911    1.678078   -0.336673
     66          1           0       -4.531348   -0.062134   -0.134122
     67          1           0       13.764238   -0.912811    2.062170
     68          1           0       12.195827   -2.158823    1.607648
     69          1           0       14.046161   -2.633019    0.296268
     70          1           0       12.928801   -2.098316   -1.991661
     71          1           0       11.755330   -2.462191   -0.794390
     72          1           0       11.814896    0.161874    3.467770
     73          1           0       10.376111    0.995232    2.535060
     74          1           0       10.702974   -0.635264    2.588238
     75          1           0       13.518710    1.623536    0.504928
     76          1           0       12.163285    2.245310    1.415683
     77          1           0       13.466190    1.232864    2.134509
     78          1           0       12.725172    0.375194   -3.040149
     79          1           0       11.813913    1.556318   -2.074406
     80          1           0       13.270706    0.755721   -1.484928
     81          1           0       -5.619679    2.805119   -0.399686
     82          1           0       10.002570   -0.444586   -2.388966
     83          1           0       15.031901   -0.396778    0.756858
     84          1           0        8.516591    1.852845   -0.116680
     85          1           0       -2.523638    4.183905    0.201237
     86          1           0       -2.156473    4.117434   -1.357855
     87          1           0       -3.801008    4.565389   -1.154953
     88          1           0       -2.554117    0.602671   -0.091239
     89          1           0        6.742354   -2.261657    0.598531
     90          1           0        8.316096   -1.930688   -0.348749
     91          1           0        8.175130   -1.264797    1.519569
     92          1           0        6.219034    1.867563   -0.690663
     93          1           0       -0.567165    2.907991   -0.098408
     94          1           0        5.046522   -0.990768    0.297412
     95          1           0       -0.328600   -0.177013    0.224919
     96          1           0        3.814949    1.620199   -0.090292
     97          1           0        1.601310    1.996106   -0.135474
     98          1           0        1.237530   -1.555400    0.611305
     99          1           0        2.641438   -1.937210   -0.503772
    100          1           0        2.896106   -1.674634    1.053617
 ---------------------------------------------------------------------

 SCF Done:  E(RCAM-B3LYP) =  -1857.23980244     A.U. after   15 cycles

 Excitation energies and oscillator strengths:

 Excited State   1:      Singlet-A      2.0906 eV  593.06 nm  f=3.1515  <S**2>=0.000
     163 ->166        -0.12730
     164 ->165         0.69880
     164 <-165        -0.10666
 This state for optimization and/or second-order correction.
 Total Energy, E(TD-HF/TD-DFT) =  -1857.16297510
 Copying the excited state density for this state as the 1-particle RhoCI density.

 The electronic state is 1-A.
 Alpha  occ. eigenvalues --  -19.22124 -19.21941 -19.21876 -19.20628 -10.32685
 Alpha  occ. eigenvalues --  -10.32388 -10.31546 -10.31536 -10.31257 -10.29278
 Alpha  occ. eigenvalues --  -10.28800 -10.28741 -10.28334 -10.28314 -10.28207
 Alpha  occ. eigenvalues --  -10.28184 -10.28006 -10.27813 -10.27728 -10.27707
 Alpha  occ. eigenvalues --  -10.27672 -10.27593 -10.27499 -10.27147 -10.27016
 Alpha  occ. eigenvalues --  -10.26938 -10.26842 -10.26524 -10.26362 -10.26313
 Alpha  occ. eigenvalues --  -10.26127 -10.25591 -10.25519 -10.25283 -10.25236
 Alpha  occ. eigenvalues --  -10.25230 -10.25208 -10.24856 -10.24799 -10.24692
 Alpha  occ. eigenvalues --  -10.24564 -10.24523 -10.23911 -10.23799  -1.14537
 Alpha  occ. eigenvalues --   -1.13575  -1.08837  -1.08328  -0.93752  -0.92677
 Alpha  occ. eigenvalues --   -0.92478  -0.91698  -0.91069  -0.90112  -0.87699
 Alpha  occ. eigenvalues --   -0.87004  -0.86155  -0.85576  -0.84765  -0.83714
 Alpha  occ. eigenvalues --   -0.82483  -0.81141  -0.80880  -0.79460  -0.77930
 Alpha  occ. eigenvalues --   -0.77667  -0.77028  -0.76810  -0.76191  -0.75396
 Alpha  occ. eigenvalues --   -0.75174  -0.74115  -0.73365  -0.71284  -0.70513
 Alpha  occ. eigenvalues --   -0.69354  -0.67466  -0.66010  -0.65315  -0.64358
 Alpha  occ. eigenvalues --   -0.63642  -0.62669  -0.61874  -0.60741  -0.59834
 Alpha  occ. eigenvalues --   -0.58712  -0.58496  -0.58367  -0.57391  -0.56671
 Alpha  occ. eigenvalues --   -0.56080  -0.55715  -0.55118  -0.54513  -0.54165
 Alpha  occ. eigenvalues --   -0.54111  -0.53229  -0.52705  -0.52405  -0.52100
 Alpha  occ. eigenvalues --   -0.51860  -0.51739  -0.50640  -0.50387  -0.50072
 Alpha  occ. eigenvalues --   -0.49828  -0.49352  -0.49102  -0.48846  -0.48824
 Alpha  occ. eigenvalues --   -0.48637  -0.48374  -0.47906  -0.47755  -0.47358
 Alpha  occ. eigenvalues --   -0.46925  -0.46794  -0.46219  -0.46019  -0.45780
 Alpha  occ. eigenvalues --   -0.44910  -0.44738  -0.44503  -0.44355  -0.44295
 Alpha  occ. eigenvalues --   -0.44134  -0.43935  -0.43430  -0.42885  -0.42266
 Alpha  occ. eigenvalues --   -0.42189  -0.42078  -0.41831  -0.41551  -0.41274
 Alpha  occ. eigenvalues --   -0.40459  -0.40190  -0.39920  -0.39780  -0.39552
 Alpha  occ. eigenvalues --   -0.39303  -0.39250  -0.39116  -0.38815  -0.38523
 Alpha  occ. eigenvalues --   -0.38244  -0.38140  -0.37556  -0.37170  -0.36291
 Alpha  occ. eigenvalues --   -0.36164  -0.35731  -0.35134  -0.34471  -0.34033
 Alpha  occ. eigenvalues --   -0.33037  -0.32538  -0.32351  -0.31643  -0.31071
 Alpha  occ. eigenvalues --   -0.30694  -0.28181  -0.25190  -0.19413
 Alpha virt. eigenvalues --   -0.06593  -0.00977   0.02820   0.06523   0.07047
 Alpha virt. eigenvalues --    0.08499   0.09996   0.10268   0.10833   0.11298
 Alpha virt. eigenvalues --    0.11864   0.11901   0.12516   0.13332   0.13483

 Mulliken charges:
               1
     1  O   -0.514779
     2  O   -0.493153
     3  O   -0.579982
     4  O   -0.567482
     5  C    0.204109
     6  C    0.260841
     7  C    0.037133
     8  C   -0.212423
     9  C   -0.174761
    10  C    0.143913
    11  C   -0.310582
    12  C   -0.114095
    13  C   -0.313300
    14  C   -0.316278
    15  C   -0.078087
    16  C    0.093948
    17  C   -0.391456
    18  C   -0.115333
    19  C   -0.064168
    20  C    0.012983
    21  C    0.235834
    22  C   -0.203140
    23  C    0.186680
    24  C   -0.197868
    25  C   -0.104844
    26  C   -0.301728
    27  C   -0.290456
    28  C   -0.326674
    29  C   -0.125418
    30  C    0.181871
    31  C    0.071395
    32  C   -0.250378
    33  C   -0.377231
    34  C   -0.086667
    35  C    0.116657
    36  C   -0.353242
    37  C   -0.097470
    38  C   -0.092586
    39  C   -0.109719
    40  C   -0.068507
    41  C   -0.080384
    42  C   -0.104065
    43  C    0.081731
    44  C   -0.364706
    45  H    0.104086
    46  H    0.098205
    47  H    0.092928
    48  H    0.112186
    49  H    0.072230
    50  H    0.086845
    51  H    0.089425
    52  H    0.133657
    53  H    0.102305
    54  H    0.104858
    55  H    0.112774
    56  H    0.077283
    57  H    0.099714
    58  H    0.077939
    59  H    0.118398
    60  H    0.294543
    61  H    0.066972
    62  H    0.131595
    63  H    0.131655
    64  H    0.115691
    65  H    0.075471
    66  H    0.069886
    67  H    0.064607
    68  H    0.093551
    69  H    0.081502
    70  H    0.125827
    71  H    0.129093
    72  H    0.107119
    73  H    0.103750
    74  H    0.104265
    75  H    0.108081
    76  H    0.077198
    77  H    0.101760
    78  H    0.116040
    79  H    0.086736
    80  H    0.136712
    81  H    0.086263
    82  H    0.307556
    83  H    0.311285
    84  H    0.103972
    85  H    0.139708
    86  H    0.125432
    87  H    0.085428
    88  H    0.060012
    89  H    0.103599
    90  H    0.150515
    91  H    0.100941
    92  H    0.064446
    93  H    0.069747
    94  H    0.069710
    95  H    0.076706
    96  H    0.060282
    97  H    0.069193
    98  H    0.104399
    99  H    0.136234
   100  H    0.123551
 Sum of Mulliken charges =  -0.00000

 Dipole moment (field-independent basis, Debye):
    X=              3.7460    Y=             -0.7495    Z=              2.3701  Tot=              4.4957
 Quadrupole moment (field-independent basis, Debye-Ang):
   XX=           -298.0775   YY=           -262.1378   ZZ=           -276.0614
   XY=              8.6274   XZ=             21.9369   YZ=             -1.0461

 Normal termination of Gaussian 16 at Fri Aug  2 05:46:09 2019.
