 Gaussian 16, Revision A.03,
 Gaussian 16:  ES64L-G16RevA.03 25-Dec-2016

 -------------------------------------
 # td=(NStates=1) CAM-B3LYP/6-31G(d,p)
 -------------------------------------

 --
 TD
 --
 Symbolic Z-matrix:
 Charge =  0 Multiplicity = 1

                         Standard orientation:
 ---------------------------------------------------------------------
 Center     Atomic      Atomic             Coordinates (Angstroms)
 Number     Number       Type             X           Y           Z
 ---------------------------------------------------------------------
      1          8           0      -11.586144    0.135632   -1.613446
      2          8           0      -12.963559   -2.415758    1.403785
      3          8           0       10.521154   -1.009567   -2.034779
      4          8           0       14.562765   -1.074691   -0.236808
      5          6           0      -10.990207   -0.168663   -0.337620
      6          6           0      -11.602815   -1.190503   -1.164107
      7          6           0      -11.769333    0.438820    0.824580
      8          6           0      -12.949004   -1.742473   -0.932987
      9          6           0      -13.207376    0.015479    0.783069
     10          6           0      -13.522218   -1.469861    0.477070
     11          6           0      -10.682289   -2.106202   -2.049914
     12          6           0       -9.535668   -0.025650   -0.283828
     13          6           0      -11.044845    0.028338    2.221947
     14          6           0      -11.764701    1.975074    0.621402
     15          6           0       -8.577814   -0.863825    0.040780
     16          6           0       -7.207031   -0.616536    0.181385
     17          6           0       -6.340022   -1.906087    0.536683
     18          6           0       -6.576190    0.619578   -0.099784
     19          6           0       -5.193570    0.905182   -0.035805
     20          6           0       11.902000    0.059714    1.292795
     21          6           0       11.705357   -0.535167   -1.334354
     22          6           0       12.644519   -1.227468    1.392039
     23          6           0       13.393864   -1.774794    0.182579
     24          6           0       12.409391   -1.817899   -0.993167
     25          6           0       11.062146   -0.014184    0.045327
     26          6           0       11.102812    0.341631    2.516726
     27          6           0       12.897146    1.292087    1.147674
     28          6           0       12.552043    0.301238   -2.106993
     29          6           0       -4.741149    2.186198   -0.437715
     30          6           0        9.850006    0.508214    0.037960
     31          6           0       -3.368052    2.605351   -0.509702
     32          6           0        8.606409    0.866343   -0.058567
     33          6           0       -3.018511    4.041363   -0.792342
     34          6           0       -2.398213    1.642731   -0.218656
     35          6           0        7.397384    0.117253    0.179494
     36          6           0        7.686446   -1.388269    0.320105
     37          6           0        6.133117    0.662101    0.043281
     38          6           0       -1.016780    2.014985   -0.245012
     39          6           0        4.847344    0.080296    0.178612
     40          6           0       -0.027845    0.952340   -0.039708
     41          6           0        3.734955    0.859595    0.021007
     42          6           0        1.360617    1.185424   -0.057419
     43          6           0        2.381142    0.284270    0.046376
     44          6           0        2.125886   -1.100405    0.397107
     45          1           0      -13.062477   -2.990810   -1.104910
     46          1           0      -13.694859   -1.328446   -1.578625
     47          1           0      -13.804843    0.244637    1.759321
     48          1           0      -13.792974    0.698679    0.138543
     49          1           0      -14.527879   -1.680781    0.476819
     50          1           0      -10.490378   -3.060852   -1.392920
     51          1           0      -11.300151   -2.387380   -2.812573
     52          1           0       -9.776828   -1.697485   -2.307879
     53          1           0       -9.241655    0.980658   -0.681832
     54          1           0      -10.082102    0.370060    2.108595
     55          1           0      -11.624903    0.719824    3.083911
     56          1           0      -11.274602   -1.065926    2.467023
     57          1           0      -12.271944    2.169550   -0.485894
     58          1           0      -12.551420    2.285006    1.405522
     59          1           0      -10.856699    2.431807    0.760357
     60          1           0      -12.045199   -2.411707    1.217783
     61          1           0       -8.953145   -1.826535    0.327673
     62          1           0       -5.659936   -2.340177   -0.260941
     63          1           0       -5.586325   -1.826310    1.476597
     64          1           0       -6.973226   -2.736626    0.874137
     65          1           0       -7.175399    1.572172   -0.416636
     66          1           0       -4.312111    0.213490    0.484940
     67          1           0       13.565125   -1.225185    2.182419
     68          1           0       12.053444   -2.079115    1.671493
     69          1           0       13.680469   -2.762965    0.476488
     70          1           0       12.875197   -2.138861   -1.989111
     71          1           0       11.533336   -2.606736   -0.809467
     72          1           0       11.792277    0.456366    3.377403
     73          1           0       10.422921    1.140851    2.714261
     74          1           0       10.540016   -0.505131    2.699385
     75          1           0       13.658797    0.739840    0.401933
     76          1           0       12.426079    2.214221    0.953167
     77          1           0       13.377296    1.636416    2.141504
     78          1           0       12.751935   -0.123850   -3.148840
     79          1           0       12.058039    1.406180   -2.277339
     80          1           0       13.445604    0.624271   -1.658566
     81          1           0       -5.420461    2.900525   -0.738947
     82          1           0       10.042600   -0.199641   -2.376931
     83          1           0       15.233889   -1.141458    0.478843
     84          1           0        8.468669    1.985684   -0.200743
     85          1           0       -2.473323    4.609160   -0.025378
     86          1           0       -2.517068    4.209174   -1.760611
     87          1           0       -3.844370    4.744173   -0.829517
     88          1           0       -2.671086    0.628711    0.052352
     89          1           0        6.783186   -1.890962    0.315008
     90          1           0        8.350722   -1.533352   -0.516860
     91          1           0        7.977981   -1.713275    1.352108
     92          1           0        6.131658    1.748850    0.030340
     93          1           0       -0.796025    2.917775   -0.420337
     94          1           0        4.780372   -0.955325    0.624009
     95          1           0       -0.403889    0.014385    0.073122
     96          1           0        3.716680    1.885692   -0.096296
     97          1           0        1.597909    2.224903   -0.551177
     98          1           0        1.127877   -1.390386    0.218528
     99          1           0        2.582052   -1.812450   -0.164830
    100          1           0        2.383699   -1.639968    1.371661
 ---------------------------------------------------------------------

 SCF Done:  E(RCAM-B3LYP) =  -1857.37924469     A.U. after   15 cycles

 Excitation energies and oscillator strengths:

 Excited State   1:      Singlet-A      2.1169 eV  585.70 nm  f=2.8305  <S**2>=0.000
     163 ->166         0.13344
     164 ->165         0.69585
 This state for optimization and/or second-order correction.
 Total Energy, E(TD-HF/TD-DFT) =  -1857.30145173
 Copying the excited state density for this state as the 1-particle RhoCI density.

 The electronic state is 1-A.
 Alpha  occ. eigenvalues --  -19.23037 -19.21868 -19.21065 -19.20984 -10.31805
 Alpha  occ. eigenvalues --  -10.31486 -10.31430 -10.31187 -10.30117 -10.28245
 Alpha  occ. eigenvalues --  -10.28096 -10.27929 -10.27663 -10.27533 -10.27532
 Alpha  occ. eigenvalues --  -10.27483 -10.27414 -10.27345 -10.26775 -10.26743
 Alpha  occ. eigenvalues --  -10.26724 -10.26665 -10.26595 -10.26572 -10.26523
 Alpha  occ. eigenvalues --  -10.26443 -10.26290 -10.26226 -10.26163 -10.26134
 Alpha  occ. eigenvalues --  -10.26066 -10.26035 -10.26014 -10.25948 -10.25696
 Alpha  occ. eigenvalues --  -10.25634 -10.25416 -10.25405 -10.25385 -10.25045
 Alpha  occ. eigenvalues --  -10.24690 -10.24345 -10.23966 -10.23049  -1.16367
 Alpha  occ. eigenvalues --   -1.10788  -1.09895  -1.08544  -0.93557  -0.92340
 Alpha  occ. eigenvalues --   -0.91819  -0.91180  -0.90327  -0.89932  -0.87323
 Alpha  occ. eigenvalues --   -0.87027  -0.86348  -0.85680  -0.84430  -0.83440
 Alpha  occ. eigenvalues --   -0.81917  -0.81127  -0.80109  -0.79290  -0.77083
 Alpha  occ. eigenvalues --   -0.76828  -0.76334  -0.76168  -0.75834  -0.75160
 Alpha  occ. eigenvalues --   -0.74936  -0.74509  -0.73124  -0.71298  -0.70295
 Alpha  occ. eigenvalues --   -0.69146  -0.67254  -0.65532  -0.65370  -0.64841
 Alpha  occ. eigenvalues --   -0.64361  -0.62189  -0.61760  -0.60681  -0.59974
 Alpha  occ. eigenvalues --   -0.58833  -0.58353  -0.57969  -0.57731  -0.56501
 Alpha  occ. eigenvalues --   -0.56242  -0.55233  -0.54961  -0.54594  -0.54317
 Alpha  occ. eigenvalues --   -0.53600  -0.53316  -0.53147  -0.52698  -0.52494
 Alpha  occ. eigenvalues --   -0.51613  -0.50710  -0.50308  -0.49665  -0.49468
 Alpha  occ. eigenvalues --   -0.49340  -0.49008  -0.48785  -0.48532  -0.48395
 Alpha  occ. eigenvalues --   -0.47986  -0.47825  -0.47394  -0.47241  -0.47097
 Alpha  occ. eigenvalues --   -0.46672  -0.46277  -0.46212  -0.45994  -0.45638
 Alpha  occ. eigenvalues --   -0.44936  -0.44571  -0.44372  -0.44180  -0.43749
 Alpha  occ. eigenvalues --   -0.43458  -0.42960  -0.42893  -0.42633  -0.42373
 Alpha  occ. eigenvalues --   -0.42293  -0.42106  -0.41970  -0.41910  -0.41203
 Alpha  occ. eigenvalues --   -0.40979  -0.40455  -0.40272  -0.40194  -0.39946
 Alpha  occ. eigenvalues --   -0.39665  -0.39346  -0.39272  -0.38800  -0.38494
 Alpha  occ. eigenvalues --   -0.38350  -0.38216  -0.37438  -0.37341  -0.36905
 Alpha  occ. eigenvalues --   -0.36536  -0.36273  -0.35533  -0.34772  -0.34433
 Alpha  occ. eigenvalues --   -0.33430  -0.32402  -0.32001  -0.31872  -0.31183
 Alpha  occ. eigenvalues --   -0.28951  -0.27699  -0.24076  -0.19617
 Alpha virt. eigenvalues --   -0.06139  -0.00842   0.02951   0.06412   0.06903
 Alpha virt. eigenvalues --    0.09752   0.10249   0.10447   0.11657   0.12297
 Alpha virt. eigenvalues --    0.13116   0.13343   0.13456   0.13601   0.14040

 Mulliken charges:
               1
     1  O   -0.501503
     2  O   -0.537578
     3  O   -0.568971
     4  O   -0.539413
     5  C    0.212766
     6  C    0.227096
     7  C    0.014112
     8  C   -0.223169
     9  C   -0.200245
    10  C    0.143490
    11  C   -0.305772
    12  C   -0.119587
    13  C   -0.299612
    14  C   -0.303058
    15  C   -0.060691
    16  C    0.075433
    17  C   -0.371569
    18  C   -0.131568
    19  C   -0.051375
    20  C    0.016408
    21  C    0.269415
    22  C   -0.177362
    23  C    0.136153
    24  C   -0.185031
    25  C   -0.055835
    26  C   -0.312610
    27  C   -0.308783
    28  C   -0.311222
    29  C   -0.119071
    30  C    0.169963
    31  C    0.089887
    32  C   -0.317143
    33  C   -0.398950
    34  C   -0.100502
    35  C    0.106727
    36  C   -0.367527
    37  C   -0.118670
    38  C   -0.054502
    39  C   -0.093666
    40  C   -0.087383
    41  C   -0.093647
    42  C   -0.141335
    43  C    0.133752
    44  C   -0.397208
    45  H    0.078113
    46  H    0.124509
    47  H    0.088733
    48  H    0.105679
    49  H    0.102990
    50  H    0.075349
    51  H    0.120584
    52  H    0.128177
    53  H    0.093069
    54  H    0.128215
    55  H    0.074518
    56  H    0.102903
    57  H    0.110386
    58  H    0.092807
    59  H    0.107439
    60  H    0.299705
    61  H    0.072442
    62  H    0.122054
    63  H    0.094337
    64  H    0.111243
    65  H    0.091636
    66  H    0.086691
    67  H    0.053535
    68  H    0.113197
    69  H    0.094887
    70  H    0.098695
    71  H    0.110682
    72  H    0.089201
    73  H    0.115620
    74  H    0.102133
    75  H    0.114563
    76  H    0.111220
    77  H    0.077563
    78  H    0.116791
    79  H    0.064410
    80  H    0.151960
    81  H    0.077792
    82  H    0.306030
    83  H    0.312055
    84  H    0.093175
    85  H    0.128005
    86  H    0.128193
    87  H    0.112924
    88  H    0.081887
    89  H    0.101347
    90  H    0.148830
    91  H    0.109328
    92  H    0.076205
    93  H    0.064682
    94  H    0.094856
    95  H    0.078737
    96  H    0.084756
    97  H    0.076559
    98  H    0.111848
    99  H    0.132129
   100  H    0.113983
 Sum of Mulliken charges =  -0.00000

 Dipole moment (field-independent basis, Debye):
    X=              4.1646    Y=              0.4204    Z=              1.3206  Tot=              4.3891
 Quadrupole moment (field-independent basis, Debye-Ang):
   XX=           -266.6174   YY=           -256.3040   ZZ=           -279.5213
   XY=             -9.6037   XZ=             25.8603   YZ=             -4.2002

 Normal termination of Gaussian 16 at Wed Jul 31 13:34:52 2019.
