 Gaussian 16, Revision A.03,
 Gaussian 16:  ES64L-G16RevA.03 25-Dec-2016

 -------------------------------------
 # td=(NStates=1) CAM-B3LYP/6-31G(d,p)
 -------------------------------------

 --
 TD
 --
 Symbolic Z-matrix:
 Charge =  0 Multiplicity = 1

                         Standard orientation:
 ---------------------------------------------------------------------
 Center     Atomic      Atomic             Coordinates (Angstroms)
 Number     Number       Type             X           Y           Z
 ---------------------------------------------------------------------
      1          8           0      -11.693613    0.155539   -1.534556
      2          8           0      -12.863896   -2.563551    1.337174
      3          8           0       10.663446   -1.196384   -1.989449
      4          8           0       14.536726   -1.086795   -0.005731
      5          6           0      -11.119132   -0.148972   -0.219170
      6          6           0      -11.689014   -1.210761   -1.162925
      7          6           0      -11.880269    0.343101    0.964412
      8          6           0      -13.024978   -1.761433   -0.952456
      9          6           0      -13.285417   -0.167594    0.900106
     10          6           0      -13.512796   -1.600788    0.468915
     11          6           0      -10.778208   -1.974968   -2.094864
     12          6           0       -9.662956    0.147217   -0.210034
     13          6           0      -11.203898   -0.092223    2.288713
     14          6           0      -11.818216    1.831698    0.836526
     15          6           0       -8.706580   -0.657719    0.205002
     16          6           0       -7.188708   -0.506738    0.240431
     17          6           0       -6.448805   -1.735533    0.514728
     18          6           0       -6.654309    0.629662    0.028994
     19          6           0       -5.299561    0.951458   -0.106503
     20          6           0       11.998298    0.035711    1.347747
     21          6           0       11.717602   -0.686894   -1.180669
     22          6           0       12.626146   -1.327892    1.568104
     23          6           0       13.417037   -1.850321    0.374041
     24          6           0       12.436679   -1.935583   -0.852701
     25          6           0       11.116536    0.042839    0.041545
     26          6           0       10.987819    0.302303    2.475465
     27          6           0       12.952443    1.277776    1.316849
     28          6           0       12.490956    0.269716   -2.082026
     29          6           0       -4.777452    2.195866   -0.344013
     30          6           0        9.929225    0.561764   -0.052180
     31          6           0       -3.400635    2.596644   -0.327850
     32          6           0        8.713590    1.065673   -0.121923
     33          6           0       -3.113756    4.021057   -0.748219
     34          6           0       -2.357103    1.706267   -0.203972
     35          6           0        7.495823    0.202041    0.015491
     36          6           0        7.656415   -1.280040    0.393363
     37          6           0        6.276015    0.776699   -0.270251
     38          6           0       -0.933991    1.955119   -0.308039
     39          6           0        4.947241    0.154819   -0.227612
     40          6           0        0.049593    0.933043   -0.261036
     41          6           0        3.782824    0.855855   -0.226912
     42          6           0        1.406622    1.263328   -0.310456
     43          6           0        2.548246    0.439358   -0.061436
     44          6           0        2.335773   -1.142116   -0.061075
     45          1           0      -12.774578   -2.862463   -1.211458
     46          1           0      -13.799479   -1.333510   -1.671489
     47          1           0      -13.905095   -0.125172    1.911354
     48          1           0      -13.718894    0.514414    0.059953
     49          1           0      -14.546161   -1.703249    0.353725
     50          1           0      -10.496752   -3.099205   -1.920937
     51          1           0      -11.280590   -1.933878   -3.116074
     52          1           0       -9.918075   -1.359745   -2.704686
     53          1           0       -9.619683    1.149746   -0.813307
     54          1           0      -10.185237    0.440525    2.136688
     55          1           0      -11.817266    0.012704    3.287212
     56          1           0      -11.192783   -1.290047    2.372138
     57          1           0      -12.167801    2.021931   -0.182366
     58          1           0      -12.129816    2.360261    1.905449
     59          1           0      -10.735069    2.182298    0.800984
     60          1           0      -11.911061   -2.433115    1.244975
     61          1           0       -8.985224   -1.705912    0.464547
     62          1           0       -6.053247   -2.143432   -0.632452
     63          1           0       -5.548147   -1.399019    1.130576
     64          1           0       -6.960221   -2.473029    0.920414
     65          1           0       -7.371836    1.532508   -0.010587
     66          1           0       -4.685296    0.108150   -0.033658
     67          1           0       13.120436   -1.554243    2.698789
     68          1           0       11.875216   -2.013775    1.708506
     69          1           0       13.773309   -2.936648    0.600773
     70          1           0       12.973282   -2.425873   -1.680687
     71          1           0       11.655148   -2.837672   -0.747227
     72          1           0       11.607539    0.522637    3.411936
     73          1           0       10.691433    1.280167    2.404892
     74          1           0       10.093498   -0.284113    2.648319
     75          1           0       13.591195    1.316943    0.548973
     76          1           0       12.357342    2.279510    1.479819
     77          1           0       13.556353    1.234992    2.186451
     78          1           0       12.861766   -0.220637   -3.051685
     79          1           0       11.923638    1.237831   -2.131635
     80          1           0       13.510579    0.690198   -1.656404
     81          1           0       -5.443058    2.989924   -0.588360
     82          1           0        9.947465   -0.475814   -2.014345
     83          1           0       15.162881   -0.922189    0.772320
     84          1           0        8.675091    1.988064   -0.850559
     85          1           0       -2.440997    4.374507    0.070678
     86          1           0       -2.670815    4.221853   -1.781551
     87          1           0       -3.830420    4.735652   -0.547245
     88          1           0       -2.559216    0.657045    0.193986
     89          1           0        6.759346   -1.880858    0.065152
     90          1           0        8.587480   -1.786619    0.045664
     91          1           0        7.836313   -1.342327    1.393145
     92          1           0        6.365046    1.844406   -0.471072
     93          1           0       -0.469833    3.064914   -0.426352
     94          1           0        4.878724   -0.970731    0.065094
     95          1           0       -0.381039   -0.017724   -0.078053
     96          1           0        3.982844    1.937026   -0.219900
     97          1           0        1.502379    2.385063   -0.269785
     98          1           0        1.278979   -1.522257    0.347756
     99          1           0        2.399772   -1.734738   -1.083763
    100          1           0        3.314742   -1.642410    0.641215
 ---------------------------------------------------------------------

 SCF Done:  E(RCAM-B3LYP) =  -1857.31233999     A.U. after   15 cycles

 Excitation energies and oscillator strengths:

 Excited State   1:      Singlet-A      2.2535 eV  550.19 nm  f=3.0902  <S**2>=0.000
     163 ->166        -0.13246
     164 ->165         0.69516
 This state for optimization and/or second-order correction.
 Total Energy, E(TD-HF/TD-DFT) =  -1857.22952615
 Copying the excited state density for this state as the 1-particle RhoCI density.

 The electronic state is 1-A.
 Alpha  occ. eigenvalues --  -19.22522 -19.22145 -19.21564 -19.20110 -10.32277
 Alpha  occ. eigenvalues --  -10.32058 -10.31744 -10.31276 -10.30291 -10.29311
 Alpha  occ. eigenvalues --  -10.28839 -10.28616 -10.28535 -10.28500 -10.27994
 Alpha  occ. eigenvalues --  -10.27882 -10.27532 -10.27458 -10.27452 -10.27331
 Alpha  occ. eigenvalues --  -10.27218 -10.27136 -10.27123 -10.27108 -10.27056
 Alpha  occ. eigenvalues --  -10.27015 -10.26975 -10.26878 -10.26767 -10.26547
 Alpha  occ. eigenvalues --  -10.26510 -10.26428 -10.26075 -10.26016 -10.26007
 Alpha  occ. eigenvalues --  -10.25991 -10.25641 -10.25525 -10.25357 -10.25198
 Alpha  occ. eigenvalues --  -10.25166 -10.25089 -10.24440 -10.23944  -1.15415
 Alpha  occ. eigenvalues --   -1.09534  -1.09209  -1.08550  -0.93331  -0.92806
 Alpha  occ. eigenvalues --   -0.92527  -0.92095  -0.90947  -0.89956  -0.88174
 Alpha  occ. eigenvalues --   -0.87489  -0.85732  -0.85398  -0.84943  -0.83220
 Alpha  occ. eigenvalues --   -0.81794  -0.81211  -0.80308  -0.78102  -0.77434
 Alpha  occ. eigenvalues --   -0.77348  -0.76403  -0.76063  -0.75539  -0.75333
 Alpha  occ. eigenvalues --   -0.74809  -0.74315  -0.73007  -0.71361  -0.70190
 Alpha  occ. eigenvalues --   -0.69312  -0.67682  -0.64664  -0.64429  -0.63937
 Alpha  occ. eigenvalues --   -0.63315  -0.62379  -0.60952  -0.59876  -0.59720
 Alpha  occ. eigenvalues --   -0.59035  -0.58440  -0.57743  -0.56517  -0.56355
 Alpha  occ. eigenvalues --   -0.55889  -0.55291  -0.54995  -0.54680  -0.54421
 Alpha  occ. eigenvalues --   -0.54247  -0.53178  -0.52583  -0.52523  -0.51672
 Alpha  occ. eigenvalues --   -0.51405  -0.50917  -0.50860  -0.50276  -0.50234
 Alpha  occ. eigenvalues --   -0.49593  -0.49279  -0.49223  -0.48539  -0.48264
 Alpha  occ. eigenvalues --   -0.48007  -0.47803  -0.47498  -0.46641  -0.45976
 Alpha  occ. eigenvalues --   -0.45859  -0.45782  -0.45684  -0.45494  -0.45360
 Alpha  occ. eigenvalues --   -0.44816  -0.44247  -0.44023  -0.43821  -0.43683
 Alpha  occ. eigenvalues --   -0.43344  -0.43127  -0.42828  -0.42642  -0.42591
 Alpha  occ. eigenvalues --   -0.42364  -0.42133  -0.41798  -0.41753  -0.40660
 Alpha  occ. eigenvalues --   -0.40430  -0.40065  -0.39953  -0.39858  -0.39543
 Alpha  occ. eigenvalues --   -0.39148  -0.39124  -0.38952  -0.38902  -0.38617
 Alpha  occ. eigenvalues --   -0.38255  -0.37992  -0.37258  -0.37158  -0.37108
 Alpha  occ. eigenvalues --   -0.36616  -0.35831  -0.35256  -0.34469  -0.33787
 Alpha  occ. eigenvalues --   -0.32958  -0.32401  -0.32163  -0.31583  -0.31176
 Alpha  occ. eigenvalues --   -0.30368  -0.28793  -0.25230  -0.20147
 Alpha virt. eigenvalues --   -0.06296  -0.00694   0.03206   0.05879   0.06876
 Alpha virt. eigenvalues --    0.09333   0.10064   0.10201   0.10856   0.11198
 Alpha virt. eigenvalues --    0.11653   0.12013   0.12986   0.13243   0.13618

 Mulliken charges:
               1
     1  O   -0.518805
     2  O   -0.555265
     3  O   -0.572005
     4  O   -0.547365
     5  C    0.168686
     6  C    0.271357
     7  C    0.027622
     8  C   -0.212006
     9  C   -0.182278
    10  C    0.158000
    11  C   -0.355710
    12  C   -0.099290
    13  C   -0.291446
    14  C   -0.314056
    15  C   -0.082694
    16  C    0.107876
    17  C   -0.353008
    18  C   -0.099252
    19  C   -0.069733
    20  C    0.031759
    21  C    0.279479
    22  C   -0.188837
    23  C    0.158853
    24  C   -0.197544
    25  C   -0.097566
    26  C   -0.316579
    27  C   -0.309846
    28  C   -0.292650
    29  C   -0.114988
    30  C    0.175818
    31  C    0.086996
    32  C   -0.307789
    33  C   -0.377369
    34  C   -0.131893
    35  C    0.095778
    36  C   -0.377886
    37  C   -0.118454
    38  C   -0.094108
    39  C   -0.094280
    40  C   -0.054496
    41  C   -0.071775
    42  C   -0.125112
    43  C    0.089565
    44  C   -0.341289
    45  H    0.099536
    46  H    0.114407
    47  H    0.089731
    48  H    0.093054
    49  H    0.111435
    50  H    0.104999
    51  H    0.113102
    52  H    0.110227
    53  H    0.118951
    54  H    0.111066
    55  H    0.107805
    56  H    0.062168
    57  H    0.134916
    58  H    0.092733
    59  H    0.093986
    60  H    0.308448
    61  H    0.071076
    62  H    0.091337
    63  H    0.117152
    64  H    0.121165
    65  H    0.071588
    66  H    0.079303
    67  H    0.062302
    68  H    0.121065
    69  H    0.060984
    70  H    0.116837
    71  H    0.102523
    72  H    0.076380
    73  H    0.118667
    74  H    0.111114
    75  H    0.128809
    76  H    0.091516
    77  H    0.098480
    78  H    0.112653
    79  H    0.088529
    80  H    0.103020
    81  H    0.082581
    82  H    0.303118
    83  H    0.312778
    84  H    0.113109
    85  H    0.115758
    86  H    0.128211
    87  H    0.117210
    88  H    0.084809
    89  H    0.114234
    90  H    0.127020
    91  H    0.134639
    92  H    0.082047
    93  H    0.080974
    94  H    0.073105
    95  H    0.083440
    96  H    0.079511
    97  H    0.082420
    98  H    0.096650
    99  H    0.118854
   100  H    0.072045
 Sum of Mulliken charges =  -0.00000

 Dipole moment (field-independent basis, Debye):
    X=              1.2586    Y=              0.6601    Z=              1.9223  Tot=              2.3906
 Quadrupole moment (field-independent basis, Debye-Ang):
   XX=           -274.4483   YY=           -261.6272   ZZ=           -278.3001
   XY=              1.1612   XZ=             35.5427   YZ=             -1.7911

 Normal termination of Gaussian 16 at Mon Jul 29 16:52:40 2019.
