 Gaussian 16, Revision A.03,
 Gaussian 16:  ES64L-G16RevA.03 25-Dec-2016

 -------------------------------------
 # td=(NStates=1) CAM-B3LYP/6-31G(d,p)
 -------------------------------------

 --
 TD
 --
 Symbolic Z-matrix:
 Charge =  0 Multiplicity = 1

                         Standard orientation:
 ---------------------------------------------------------------------
 Center     Atomic      Atomic             Coordinates (Angstroms)
 Number     Number       Type             X           Y           Z
 ---------------------------------------------------------------------
      1          8           0      -11.654514    0.310950   -1.449125
      2          8           0      -12.900251   -2.638202    1.246863
      3          8           0       10.645316   -1.132498   -2.066102
      4          8           0       14.562480   -1.027492   -0.032923
      5          6           0      -11.001517   -0.157215   -0.323582
      6          6           0      -11.627828   -1.039140   -1.326387
      7          6           0      -11.786163    0.310285    1.056062
      8          6           0      -13.025131   -1.640573   -1.005595
      9          6           0      -13.249728   -0.144892    1.074916
     10          6           0      -13.448481   -1.521757    0.499294
     11          6           0      -10.822411   -1.775495   -2.341359
     12          6           0       -9.549196    0.054732   -0.402900
     13          6           0      -11.083625   -0.271599    2.252608
     14          6           0      -11.636870    1.771599    1.079986
     15          6           0       -8.545860   -0.708058    0.225443
     16          6           0       -7.125266   -0.484266    0.172379
     17          6           0       -6.247838   -1.657401    0.466738
     18          6           0       -6.640238    0.625739   -0.144071
     19          6           0       -5.195986    0.923325   -0.192517
     20          6           0       11.928749    0.147418    1.304502
     21          6           0       11.669203   -0.607490   -1.254006
     22          6           0       12.604461   -1.216895    1.594944
     23          6           0       13.318648   -1.812884    0.339106
     24          6           0       12.500412   -1.859944   -0.883741
     25          6           0       11.050035   -0.021884   -0.035948
     26          6           0       10.959484    0.359494    2.462974
     27          6           0       12.869816    1.336240    1.296178
     28          6           0       12.419756    0.432776   -2.063692
     29          6           0       -4.727338    2.191596   -0.428822
     30          6           0        9.834223    0.393318   -0.024301
     31          6           0       -3.377281    2.617091   -0.471032
     32          6           0        8.579493    0.880021   -0.091620
     33          6           0       -3.063911    3.982168   -0.817147
     34          6           0       -2.345354    1.651449   -0.253715
     35          6           0        7.398676    0.058635    0.058908
     36          6           0        7.659777   -1.452079    0.072787
     37          6           0        6.184517    0.663339   -0.050175
     38          6           0       -1.002470    1.909845   -0.237410
     39          6           0        4.849736    0.059910    0.088163
     40          6           0        0.034205    0.988814   -0.099230
     41          6           0        3.627841    0.817716    0.033083
     42          6           0        1.339016    1.213290   -0.146879
     43          6           0        2.418897    0.321179   -0.007154
     44          6           0        2.172044   -1.221250    0.130651
     45          1           0      -13.057097   -2.695176   -1.273094
     46          1           0      -13.660058   -1.129632   -1.775239
     47          1           0      -13.677062   -0.021958    1.999182
     48          1           0      -13.674349    0.454007    0.368375
     49          1           0      -14.581564   -1.740500    0.449897
     50          1           0      -10.738710   -2.990104   -2.148097
     51          1           0      -11.185104   -1.937077   -3.304067
     52          1           0       -9.895335   -1.283866   -2.431226
     53          1           0       -9.473086    0.833369   -1.021086
     54          1           0      -10.115229   -0.042304    2.247691
     55          1           0      -11.629485    0.243552    3.183816
     56          1           0      -11.221950   -1.267465    2.396538
     57          1           0      -12.026535    2.396875    0.396538
     58          1           0      -11.942177    2.255939    2.106198
     59          1           0      -10.552933    2.169000    0.912145
     60          1           0      -11.917465   -2.380251    1.148738
     61          1           0       -8.814499   -1.606501    0.734749
     62          1           0       -5.840958   -2.119323   -0.431914
     63          1           0       -5.391511   -1.664899    1.237653
     64          1           0       -6.883215   -2.351842    1.116287
     65          1           0       -7.173366    1.580590   -0.115170
     66          1           0       -4.622581   -0.063620   -0.121722
     67          1           0       13.299119   -1.291662    2.518377
     68          1           0       11.693576   -1.974096    1.712570
     69          1           0       13.695784   -2.693772    0.581472
     70          1           0       13.113058   -1.962928   -1.855395
     71          1           0       11.917942   -2.677994   -0.845882
     72          1           0       11.559605    0.441725    3.406350
     73          1           0       10.547270    1.404651    2.374937
     74          1           0       10.254112   -0.498690    2.345916
     75          1           0       13.677864    1.175295    0.555049
     76          1           0       12.292379    2.046822    0.939157
     77          1           0       13.489756    1.428616    2.254389
     78          1           0       12.852199   -0.166874   -2.948183
     79          1           0       11.839058    1.313639   -2.508052
     80          1           0       13.303915    1.034490   -1.639169
     81          1           0       -5.441119    3.008173   -0.409338
     82          1           0        9.987047   -0.304769   -2.398338
     83          1           0       14.995138   -0.846960    0.924297
     84          1           0        8.479235    1.913895   -0.295877
     85          1           0       -2.408063    4.418008   -0.058504
     86          1           0       -2.509660    4.118793   -1.750345
     87          1           0       -3.854890    4.630285   -0.847819
     88          1           0       -2.564122    0.514576    0.008256
     89          1           0        6.720082   -2.025275    0.096434
     90          1           0        8.357340   -1.818892   -0.588491
     91          1           0        8.106831   -1.762809    1.025107
     92          1           0        6.161008    1.768669    0.032576
     93          1           0       -0.621471    2.925988   -0.640604
     94          1           0        4.876457   -0.973950    0.523113
     95          1           0       -0.337176   -0.043212    0.237999
     96          1           0        3.684163    1.878631   -0.066820
     97          1           0        1.687568    2.185983   -0.266131
     98          1           0        1.154829   -1.355924    0.351328
     99          1           0        2.584228   -1.766130   -0.763870
    100          1           0        2.757982   -1.488117    1.084954
 ---------------------------------------------------------------------

 SCF Done:  E(RCAM-B3LYP) =  -1857.37166920     A.U. after   16 cycles

 Excitation energies and oscillator strengths:

 Excited State   1:      Singlet-A      1.9493 eV  636.04 nm  f=3.1703  <S**2>=0.000
     163 ->166         0.11824
     164 ->165         0.70419
     164 <-165        -0.13049
 This state for optimization and/or second-order correction.
 Total Energy, E(TD-HF/TD-DFT) =  -1857.30003277
 Copying the excited state density for this state as the 1-particle RhoCI density.

 The electronic state is 1-A.
 Alpha  occ. eigenvalues --  -19.22723 -19.21998 -19.21863 -19.21572 -10.32071
 Alpha  occ. eigenvalues --  -10.31802 -10.31612 -10.31098 -10.30003 -10.28091
 Alpha  occ. eigenvalues --  -10.27955 -10.27827 -10.27676 -10.27564 -10.27532
 Alpha  occ. eigenvalues --  -10.27417 -10.26998 -10.26869 -10.26856 -10.26827
 Alpha  occ. eigenvalues --  -10.26681 -10.26635 -10.26624 -10.26563 -10.26492
 Alpha  occ. eigenvalues --  -10.26377 -10.26333 -10.26134 -10.26100 -10.25983
 Alpha  occ. eigenvalues --  -10.25932 -10.25653 -10.25432 -10.25201 -10.25159
 Alpha  occ. eigenvalues --  -10.24936 -10.24871 -10.24795 -10.24688 -10.24673
 Alpha  occ. eigenvalues --  -10.24613 -10.24008 -10.23704 -10.23464  -1.19944
 Alpha  occ. eigenvalues --   -1.08903  -1.08309  -1.05583  -0.93189  -0.92951
 Alpha  occ. eigenvalues --   -0.92744  -0.91659  -0.91267  -0.90544  -0.87587
 Alpha  occ. eigenvalues --   -0.86494  -0.86088  -0.85255  -0.84873  -0.82975
 Alpha  occ. eigenvalues --   -0.82181  -0.81341  -0.80605  -0.79029  -0.77623
 Alpha  occ. eigenvalues --   -0.77425  -0.77199  -0.76972  -0.76966  -0.76345
 Alpha  occ. eigenvalues --   -0.75698  -0.74951  -0.73167  -0.70586  -0.69891
 Alpha  occ. eigenvalues --   -0.69217  -0.67062  -0.65692  -0.65118  -0.64135
 Alpha  occ. eigenvalues --   -0.63087  -0.61702  -0.60550  -0.60112  -0.60010
 Alpha  occ. eigenvalues --   -0.59452  -0.58530  -0.57546  -0.57472  -0.56707
 Alpha  occ. eigenvalues --   -0.56260  -0.55342  -0.54998  -0.54517  -0.54387
 Alpha  occ. eigenvalues --   -0.54328  -0.53591  -0.53443  -0.52858  -0.52409
 Alpha  occ. eigenvalues --   -0.52101  -0.51810  -0.51431  -0.50664  -0.50633
 Alpha  occ. eigenvalues --   -0.50191  -0.49658  -0.49336  -0.49240  -0.48894
 Alpha  occ. eigenvalues --   -0.48652  -0.47774  -0.47594  -0.47128  -0.46994
 Alpha  occ. eigenvalues --   -0.46580  -0.46303  -0.46130  -0.45588  -0.45221
 Alpha  occ. eigenvalues --   -0.45022  -0.44947  -0.44835  -0.44442  -0.44112
 Alpha  occ. eigenvalues --   -0.43787  -0.43419  -0.43074  -0.42809  -0.42737
 Alpha  occ. eigenvalues --   -0.42421  -0.42322  -0.42051  -0.41672  -0.41570
 Alpha  occ. eigenvalues --   -0.41307  -0.40828  -0.40745  -0.40323  -0.39855
 Alpha  occ. eigenvalues --   -0.39662  -0.39446  -0.39069  -0.39051  -0.38790
 Alpha  occ. eigenvalues --   -0.38418  -0.38198  -0.38038  -0.37893  -0.37443
 Alpha  occ. eigenvalues --   -0.36877  -0.36255  -0.35501  -0.34693  -0.33997
 Alpha  occ. eigenvalues --   -0.33029  -0.32632  -0.32187  -0.31825  -0.30892
 Alpha  occ. eigenvalues --   -0.30468  -0.27964  -0.25047  -0.18667
 Alpha virt. eigenvalues --   -0.06959  -0.00491   0.02957   0.06209   0.07396
 Alpha virt. eigenvalues --    0.09271   0.10475   0.10796   0.10886   0.12152
 Alpha virt. eigenvalues --    0.12708   0.13438   0.13706   0.13862   0.14181

 Mulliken charges:
               1
     1  O   -0.477868
     2  O   -0.540673
     3  O   -0.579147
     4  O   -0.569411
     5  C    0.139294
     6  C    0.255935
     7  C    0.012592
     8  C   -0.214288
     9  C   -0.157092
    10  C    0.118851
    11  C   -0.333194
    12  C   -0.093840
    13  C   -0.295291
    14  C   -0.311728
    15  C   -0.095961
    16  C    0.123393
    17  C   -0.396709
    18  C   -0.115541
    19  C   -0.064377
    20  C    0.015117
    21  C    0.274681
    22  C   -0.205779
    23  C    0.166765
    24  C   -0.185394
    25  C   -0.125965
    26  C   -0.276586
    27  C   -0.303790
    28  C   -0.307945
    29  C   -0.138622
    30  C    0.173197
    31  C    0.101639
    32  C   -0.269235
    33  C   -0.389524
    34  C   -0.109432
    35  C    0.121186
    36  C   -0.382380
    37  C   -0.120659
    38  C   -0.085510
    39  C   -0.127331
    40  C   -0.088380
    41  C   -0.123385
    42  C   -0.113982
    43  C    0.131894
    44  C   -0.355163
    45  H    0.109591
    46  H    0.108368
    47  H    0.109709
    48  H    0.116917
    49  H    0.088890
    50  H    0.078900
    51  H    0.126245
    52  H    0.118833
    53  H    0.106808
    54  H    0.119054
    55  H    0.079392
    56  H    0.097501
    57  H    0.127208
    58  H    0.083948
    59  H    0.086174
    60  H    0.304675
    61  H    0.078143
    62  H    0.138033
    63  H    0.115344
    64  H    0.098173
    65  H    0.079695
    66  H    0.088122
    67  H    0.085060
    68  H    0.084426
    69  H    0.097869
    70  H    0.114695
    71  H    0.125412
    72  H    0.088089
    73  H    0.097160
    74  H    0.103936
    75  H    0.120124
    76  H    0.112320
    77  H    0.089557
    78  H    0.104979
    79  H    0.087709
    80  H    0.121132
    81  H    0.081672
    82  H    0.310292
    83  H    0.293670
    84  H    0.109623
    85  H    0.125438
    86  H    0.131430
    87  H    0.115591
    88  H    0.077723
    89  H    0.103213
    90  H    0.147952
    91  H    0.114778
    92  H    0.080478
    93  H    0.071594
    94  H    0.092764
    95  H    0.070226
    96  H    0.080312
    97  H    0.071472
    98  H    0.112278
    99  H    0.128797
   100  H    0.108140
 Sum of Mulliken charges =  -0.00000

 Dipole moment (field-independent basis, Debye):
    X=              2.5822    Y=              1.2654    Z=              1.4249  Tot=              3.2093
 Quadrupole moment (field-independent basis, Debye-Ang):
   XX=           -291.6589   YY=           -260.1489   ZZ=           -273.6691
   XY=             -6.9459   XZ=             31.8830   YZ=             -2.7947

 Normal termination of Gaussian 16 at Fri Aug  2 00:54:17 2019.
