 Gaussian 16, Revision A.03,
 Gaussian 16:  ES64L-G16RevA.03 25-Dec-2016

 -------------------------------------
 # td=(NStates=1) CAM-B3LYP/6-31G(d,p)
 -------------------------------------

 --
 TD
 --
 Symbolic Z-matrix:
 Charge =  0 Multiplicity = 1

                         Standard orientation:
 ---------------------------------------------------------------------
 Center     Atomic      Atomic             Coordinates (Angstroms)
 Number     Number       Type             X           Y           Z
 ---------------------------------------------------------------------
      1          8           0      -11.742775    0.129610   -1.596340
      2          8           0      -13.080135   -2.160590    1.593941
      3          8           0       10.607540   -1.154989   -2.042729
      4          8           0       14.570631   -0.680578   -0.029766
      5          6           0      -10.973608   -0.153413   -0.336438
      6          6           0      -11.695942   -1.231088   -1.164103
      7          6           0      -11.757547    0.563161    0.845351
      8          6           0      -13.091718   -1.691143   -0.817690
      9          6           0      -13.272130    0.123821    0.856282
     10          6           0      -13.602437   -1.280459    0.671640
     11          6           0      -11.016339   -2.183991   -2.023980
     12          6           0       -9.595949    0.051501   -0.392466
     13          6           0      -11.045444    0.324877    2.199003
     14          6           0      -11.686158    2.007663    0.612999
     15          6           0       -8.644982   -0.792568    0.214156
     16          6           0       -7.230862   -0.556128    0.259646
     17          6           0       -6.347344   -1.844817    0.649295
     18          6           0       -6.617233    0.578035   -0.152525
     19          6           0       -5.286783    0.858404   -0.094648
     20          6           0       11.874529    0.152398    1.343652
     21          6           0       11.668855   -0.636131   -1.250500
     22          6           0       12.774870   -1.109691    1.566907
     23          6           0       13.524459   -1.616590    0.361209
     24          6           0       12.559641   -1.851452   -0.769724
     25          6           0       11.077595   -0.042554    0.087982
     26          6           0       11.054704    0.368478    2.582925
     27          6           0       12.881722    1.367449    1.269304
     28          6           0       12.430164    0.335426   -2.043041
     29          6           0       -4.713960    2.043782   -0.507509
     30          6           0        9.858018    0.352538    0.035549
     31          6           0       -3.335448    2.441825   -0.455286
     32          6           0        8.619598    0.989712   -0.183184
     33          6           0       -2.943964    3.810678   -0.798996
     34          6           0       -2.342979    1.381049   -0.301913
     35          6           0        7.373387    0.097278   -0.014533
     36          6           0        7.694967   -1.236661    0.338487
     37          6           0        6.176281    0.609030   -0.222933
     38          6           0       -0.915528    1.653643   -0.414801
     39          6           0        4.916977   -0.056170   -0.129450
     40          6           0        0.034260    0.716821   -0.174460
     41          6           0        3.728287    0.686322   -0.147956
     42          6           0        1.413599    1.037337   -0.220051
     43          6           0        2.490780    0.123180   -0.099287
     44          6           0        2.243638   -1.362229    0.213424
     45          1           0      -13.185365   -2.676624   -0.919662
     46          1           0      -13.891508   -1.397914   -1.461134
     47          1           0      -13.650233    0.516450    1.865762
     48          1           0      -13.849598    0.672294    0.208071
     49          1           0      -14.652190   -1.326478    0.669702
     50          1           0      -11.229395   -3.373830   -1.439164
     51          1           0      -11.515890   -2.302677   -2.980443
     52          1           0       -9.862236   -1.794477   -2.258473
     53          1           0       -9.014837    1.021337   -0.873771
     54          1           0       -9.902080    0.388689    2.001860
     55          1           0      -11.334169    1.089883    3.034049
     56          1           0      -11.249964   -0.699044    2.670860
     57          1           0      -12.182935    2.356859   -0.368541
     58          1           0      -12.210501    2.639535    1.446659
     59          1           0      -10.580880    2.365415    0.662760
     60          1           0      -12.152610   -2.155855    1.558806
     61          1           0       -9.030962   -1.778305    0.567052
     62          1           0       -5.715005   -1.982690   -0.336696
     63          1           0       -5.754950   -1.496543    1.735120
     64          1           0       -7.108757   -2.979672    0.827615
     65          1           0       -7.215094    1.479351   -0.393510
     66          1           0       -4.656124    0.028512    0.159274
     67          1           0       13.587760   -0.658313    2.135210
     68          1           0       12.336847   -1.926506    2.002535
     69          1           0       14.013011   -2.529002    0.520954
     70          1           0       13.147536   -2.062268   -1.608683
     71          1           0       11.865780   -2.646988   -0.633371
     72          1           0       11.581252    0.480517    3.393663
     73          1           0       10.584543    1.607772    2.626682
     74          1           0       10.207287   -0.323968    2.570104
     75          1           0       13.485382    1.279860    0.476298
     76          1           0       12.296978    2.268856    0.923442
     77          1           0       13.406149    1.432444    2.042031
     78          1           0       13.099163   -0.147148   -2.825314
     79          1           0       11.681431    1.083514   -2.386210
     80          1           0       13.120325    0.975794   -1.375695
     81          1           0       -5.376446    2.755257   -0.754595
     82          1           0       10.112630   -0.307778   -2.447630
     83          1           0       15.178828   -0.481315    0.675243
     84          1           0        8.475272    1.952805   -0.686766
     85          1           0       -1.981724    4.091432    0.016377
     86          1           0       -2.629126    4.003534   -1.813367
     87          1           0       -3.797824    4.479485   -0.741346
     88          1           0       -2.545734    0.498548    0.026930
     89          1           0        6.584287   -1.841936    0.542761
     90          1           0        8.128537   -1.827624   -0.457926
     91          1           0        8.277331   -1.471800    1.346500
     92          1           0        6.228133    1.665999   -0.662758
     93          1           0       -0.528619    2.617806   -0.806670
     94          1           0        4.867053   -1.098845    0.124563
     95          1           0       -0.185540   -0.366606    0.157348
     96          1           0        3.741932    1.795670   -0.516585
     97          1           0        1.626628    2.067449   -0.606067
     98          1           0        1.181785   -1.537198    0.355699
     99          1           0        2.529278   -2.043302   -0.757616
    100          1           0        3.123233   -1.623919    1.013175
 ---------------------------------------------------------------------

 SCF Done:  E(RCAM-B3LYP) =  -1857.24719970     A.U. after   15 cycles

 Excitation energies and oscillator strengths:

 Excited State   1:      Singlet-A      2.0737 eV  597.90 nm  f=3.0150  <S**2>=0.000
     163 ->166         0.13607
     164 ->165         0.69442
 This state for optimization and/or second-order correction.
 Total Energy, E(TD-HF/TD-DFT) =  -1857.17099383
 Copying the excited state density for this state as the 1-particle RhoCI density.

 The electronic state is 1-A.
 Alpha  occ. eigenvalues --  -19.22063 -19.21588 -19.21200 -19.20527 -10.32268
 Alpha  occ. eigenvalues --  -10.31981 -10.31920 -10.31304 -10.30963 -10.29614
 Alpha  occ. eigenvalues --  -10.28446 -10.28171 -10.28105 -10.28017 -10.27926
 Alpha  occ. eigenvalues --  -10.27870 -10.27649 -10.27532 -10.27522 -10.27372
 Alpha  occ. eigenvalues --  -10.27289 -10.27144 -10.26936 -10.26583 -10.26573
 Alpha  occ. eigenvalues --  -10.26517 -10.26503 -10.26465 -10.26436 -10.26307
 Alpha  occ. eigenvalues --  -10.25979 -10.25903 -10.25862 -10.25842 -10.25588
 Alpha  occ. eigenvalues --  -10.25570 -10.25539 -10.25332 -10.25318 -10.25081
 Alpha  occ. eigenvalues --  -10.24681 -10.23890 -10.23441 -10.22539  -1.12865
 Alpha  occ. eigenvalues --   -1.11066  -1.09641  -1.08850  -0.93537  -0.92480
 Alpha  occ. eigenvalues --   -0.92103  -0.90971  -0.90538  -0.89738  -0.87475
 Alpha  occ. eigenvalues --   -0.86952  -0.86621  -0.85710  -0.85228  -0.82873
 Alpha  occ. eigenvalues --   -0.82314  -0.81001  -0.80635  -0.78151  -0.77549
 Alpha  occ. eigenvalues --   -0.77020  -0.76107  -0.75810  -0.75725  -0.75584
 Alpha  occ. eigenvalues --   -0.74051  -0.73646  -0.72994  -0.70216  -0.69733
 Alpha  occ. eigenvalues --   -0.68620  -0.67130  -0.65727  -0.65010  -0.63248
 Alpha  occ. eigenvalues --   -0.63155  -0.62120  -0.61567  -0.59665  -0.59542
 Alpha  occ. eigenvalues --   -0.58763  -0.58429  -0.57758  -0.57536  -0.56797
 Alpha  occ. eigenvalues --   -0.55678  -0.55477  -0.55275  -0.54217  -0.53720
 Alpha  occ. eigenvalues --   -0.53579  -0.53429  -0.52817  -0.52633  -0.52359
 Alpha  occ. eigenvalues --   -0.51153  -0.50923  -0.50860  -0.50365  -0.50116
 Alpha  occ. eigenvalues --   -0.49671  -0.48961  -0.48811  -0.48401  -0.48173
 Alpha  occ. eigenvalues --   -0.48139  -0.48081  -0.47812  -0.47564  -0.47153
 Alpha  occ. eigenvalues --   -0.46478  -0.46167  -0.45962  -0.45617  -0.45204
 Alpha  occ. eigenvalues --   -0.45020  -0.44918  -0.44596  -0.43851  -0.43692
 Alpha  occ. eigenvalues --   -0.43533  -0.43047  -0.42448  -0.42139  -0.41884
 Alpha  occ. eigenvalues --   -0.41824  -0.41637  -0.41317  -0.41259  -0.40794
 Alpha  occ. eigenvalues --   -0.40765  -0.40227  -0.39940  -0.39810  -0.39684
 Alpha  occ. eigenvalues --   -0.39547  -0.39504  -0.39278  -0.38749  -0.38088
 Alpha  occ. eigenvalues --   -0.37851  -0.37635  -0.37591  -0.37314  -0.37061
 Alpha  occ. eigenvalues --   -0.36937  -0.35212  -0.34657  -0.33875  -0.33769
 Alpha  occ. eigenvalues --   -0.33404  -0.33033  -0.31523  -0.31166  -0.30300
 Alpha  occ. eigenvalues --   -0.29962  -0.27782  -0.23874  -0.19356
 Alpha virt. eigenvalues --   -0.06173  -0.01128   0.03113   0.06025   0.06808
 Alpha virt. eigenvalues --    0.09492   0.09695   0.09977   0.10399   0.10832
 Alpha virt. eigenvalues --    0.11271   0.11640   0.11887   0.12529   0.13073

 Mulliken charges:
               1
     1  O   -0.514290
     2  O   -0.527540
     3  O   -0.572999
     4  O   -0.568399
     5  C    0.194406
     6  C    0.286738
     7  C    0.037255
     8  C   -0.220513
     9  C   -0.169629
    10  C    0.148365
    11  C   -0.325812
    12  C   -0.129618
    13  C   -0.319129
    14  C   -0.296366
    15  C   -0.090107
    16  C    0.061616
    17  C   -0.329142
    18  C   -0.091917
    19  C   -0.058314
    20  C    0.011973
    21  C    0.261859
    22  C   -0.177295
    23  C    0.165085
    24  C   -0.201939
    25  C   -0.078194
    26  C   -0.268786
    27  C   -0.305781
    28  C   -0.288282
    29  C   -0.110504
    30  C    0.109328
    31  C    0.079586
    32  C   -0.234451
    33  C   -0.366340
    34  C   -0.079210
    35  C    0.140137
    36  C   -0.377845
    37  C   -0.103158
    38  C   -0.105864
    39  C   -0.109091
    40  C   -0.066403
    41  C   -0.109764
    42  C   -0.143320
    43  C    0.133090
    44  C   -0.351701
    45  H    0.098797
    46  H    0.109781
    47  H    0.083234
    48  H    0.110149
    49  H    0.097097
    50  H    0.061613
    51  H    0.133896
    52  H    0.105478
    53  H    0.100031
    54  H    0.109646
    55  H    0.097071
    56  H    0.082993
    57  H    0.115735
    58  H    0.087715
    59  H    0.087283
    60  H    0.301224
    61  H    0.082586
    62  H    0.131094
    63  H    0.107247
    64  H    0.069413
    65  H    0.078451
    66  H    0.077675
    67  H    0.068905
    68  H    0.103237
    69  H    0.094553
    70  H    0.109376
    71  H    0.124034
    72  H    0.111969
    73  H    0.050975
    74  H    0.108346
    75  H    0.128030
    76  H    0.093371
    77  H    0.099921
    78  H    0.118266
    79  H    0.079491
    80  H    0.116554
    81  H    0.066039
    82  H    0.312113
    83  H    0.306064
    84  H    0.103729
    85  H    0.093948
    86  H    0.135508
    87  H    0.112561
    88  H    0.071051
    89  H    0.049806
    90  H    0.152924
    91  H    0.110718
    92  H    0.069670
    93  H    0.087750
    94  H    0.088977
    95  H    0.075992
    96  H    0.080009
    97  H    0.077725
    98  H    0.115422
    99  H    0.106405
   100  H    0.110615
 Sum of Mulliken charges =  -0.00000

 Dipole moment (field-independent basis, Debye):
    X=              5.7672    Y=              0.1965    Z=              0.7207  Tot=              5.8154
 Quadrupole moment (field-independent basis, Debye-Ang):
   XX=           -254.4442   YY=           -261.7740   ZZ=           -277.0236
   XY=             -1.4086   XZ=             24.9327   YZ=             -4.6892

 Normal termination of Gaussian 16 at Wed Jul 31 11:25:47 2019.
