 Gaussian 16, Revision A.03,
 Gaussian 16:  ES64L-G16RevA.03 25-Dec-2016

 -------------------------------------
 # td=(NStates=1) CAM-B3LYP/6-31G(d,p)
 -------------------------------------

 --
 TD
 --
 Symbolic Z-matrix:
 Charge =  0 Multiplicity = 1

                         Standard orientation:
 ---------------------------------------------------------------------
 Center     Atomic      Atomic             Coordinates (Angstroms)
 Number     Number       Type             X           Y           Z
 ---------------------------------------------------------------------
      1          8           0      -11.758318    0.069056   -1.503513
      2          8           0      -12.817786   -2.592514    1.540354
      3          8           0       10.565848   -1.275975   -1.967587
      4          8           0       14.453365   -0.997965   -0.024610
      5          6           0      -10.959464   -0.070459   -0.342926
      6          6           0      -11.613967   -1.221094   -1.088397
      7          6           0      -11.715030    0.458077    0.895124
      8          6           0      -12.913541   -1.893495   -0.747190
      9          6           0      -13.234552   -0.180674    0.945194
     10          6           0      -13.379985   -1.687864    0.654683
     11          6           0      -10.673101   -2.091240   -2.176719
     12          6           0       -9.590335    0.202999   -0.501593
     13          6           0      -10.957723   -0.104116    2.105464
     14          6           0      -11.875897    2.001546    0.789022
     15          6           0       -8.660780   -0.577763    0.081236
     16          6           0       -7.199282   -0.409752    0.135482
     17          6           0       -6.354345   -1.686262    0.540016
     18          6           0       -6.652601    0.812090   -0.142285
     19          6           0       -5.310696    1.080103   -0.166279
     20          6           0       11.872384    0.173149    1.371822
     21          6           0       11.598845   -0.731445   -1.120682
     22          6           0       12.694261   -1.241742    1.623968
     23          6           0       13.351205   -1.788503    0.415809
     24          6           0       12.415233   -1.983991   -0.806093
     25          6           0       11.061991    0.014046    0.085493
     26          6           0       10.902191    0.448422    2.540141
     27          6           0       12.833954    1.391774    1.205971
     28          6           0       12.388744    0.239233   -2.061821
     29          6           0       -4.607705    2.302450   -0.336895
     30          6           0        9.849325    0.435321   -0.055033
     31          6           0       -3.346937    2.575933   -0.368263
     32          6           0        8.646574    0.865125   -0.320112
     33          6           0       -2.971336    4.064505   -0.529545
     34          6           0       -2.254146    1.683805   -0.302407
     35          6           0        7.447468    0.168127   -0.076532
     36          6           0        7.495071   -1.304186    0.409512
     37          6           0        6.206654    0.729921   -0.353074
     38          6           0       -0.989671    1.950455   -0.415588
     39          6           0        4.902778    0.133280   -0.088599
     40          6           0        0.045048    0.990568   -0.252478
     41          6           0        3.745675    0.822141   -0.167634
     42          6           0        1.420766    1.101157   -0.324778
     43          6           0        2.435342    0.233665   -0.135551
     44          6           0        2.196641   -1.206233    0.081922
     45          1           0      -12.753852   -3.003516   -1.096144
     46          1           0      -13.477697   -1.502325   -1.639357
     47          1           0      -13.603909   -0.045660    1.910023
     48          1           0      -13.898608    0.243017    0.260934
     49          1           0      -14.455713   -1.913159    0.609590
     50          1           0      -10.408105   -3.056777   -1.531187
     51          1           0      -11.259066   -2.383289   -3.013468
     52          1           0       -9.837853   -1.549412   -2.437967
     53          1           0       -9.364829    1.175054   -1.110463
     54          1           0       -9.886933    0.429003    2.270535
     55          1           0      -11.565611    0.189748    2.994433
     56          1           0      -10.873908   -1.204091    2.104477
     57          1           0      -12.757128    2.165817   -0.069013
     58          1           0      -12.470780    2.200265    1.709008
     59          1           0      -10.793598    2.417210    0.586961
     60          1           0      -11.873368   -2.630668    1.580163
     61          1           0       -9.147773   -1.443107    0.666251
     62          1           0       -5.963166   -2.381908   -0.401258
     63          1           0       -5.463887   -1.365005    1.137156
     64          1           0       -7.030498   -2.326249    1.065184
     65          1           0       -7.265629    1.627618   -0.217159
     66          1           0       -4.577319    0.123723    0.124791
     67          1           0       13.533234   -1.175568    2.402533
     68          1           0       11.894141   -2.029789    2.037977
     69          1           0       13.722067   -2.708208    0.673344
     70          1           0       13.073975   -2.392124   -1.579236
     71          1           0       11.735109   -2.820034   -0.456259
     72          1           0       11.358076    0.579343    3.457247
     73          1           0       10.555508    1.334496    2.180032
     74          1           0       10.074648   -0.259656    2.666328
     75          1           0       13.588803    1.305115    0.475517
     76          1           0       12.522317    2.249128    1.151336
     77          1           0       13.263498    1.546746    2.110861
     78          1           0       12.678221   -0.404907   -3.047372
     79          1           0       11.705953    0.803622   -2.343739
     80          1           0       13.289841    0.750141   -1.603263
     81          1           0       -5.251408    3.193800   -0.448412
     82          1           0       10.009284   -0.505791   -2.197311
     83          1           0       14.956101   -0.927980    0.926166
     84          1           0        8.552552    1.799235   -0.534841
     85          1           0       -2.023578    4.253872    0.299429
     86          1           0       -2.568733    4.224022   -1.533969
     87          1           0       -3.835031    4.818028   -0.380875
     88          1           0       -2.528355    0.807269    0.111489
     89          1           0        6.375029   -1.703088    0.473861
     90          1           0        8.142350   -2.043124   -0.263299
     91          1           0        8.186010   -1.454094    1.405442
     92          1           0        6.225627    1.713781   -0.596620
     93          1           0       -0.668076    3.017769   -0.432890
     94          1           0        5.141291   -0.952927    0.232437
     95          1           0       -0.501477    0.124636   -0.257484
     96          1           0        3.959324    1.742468   -0.172502
     97          1           0        1.708751    2.110414   -0.634282
     98          1           0        1.288381   -1.535722    0.105883
     99          1           0        2.704703   -1.522349   -0.933282
    100          1           0        2.821886   -1.520079    0.842815
 ---------------------------------------------------------------------

 SCF Done:  E(RCAM-B3LYP) =  -1857.23634425     A.U. after   16 cycles

 Excitation energies and oscillator strengths:

 Excited State   1:      Singlet-A      1.8492 eV  670.48 nm  f=2.8904  <S**2>=0.000
     163 ->166        -0.10656
     164 ->165         0.71145
     164 <-165        -0.14723
 This state for optimization and/or second-order correction.
 Total Energy, E(TD-HF/TD-DFT) =  -1857.16838827
 Copying the excited state density for this state as the 1-particle RhoCI density.

 The electronic state is 1-A.
 Alpha  occ. eigenvalues --  -19.22648 -19.21307 -19.21108 -19.20805 -10.31915
 Alpha  occ. eigenvalues --  -10.31420 -10.30715 -10.30481 -10.29799 -10.29531
 Alpha  occ. eigenvalues --  -10.28354 -10.28308 -10.28265 -10.27972 -10.27963
 Alpha  occ. eigenvalues --  -10.27688 -10.27610 -10.27480 -10.27463 -10.27264
 Alpha  occ. eigenvalues --  -10.27244 -10.27236 -10.27074 -10.27017 -10.26373
 Alpha  occ. eigenvalues --  -10.26336 -10.26268 -10.25939 -10.25863 -10.25836
 Alpha  occ. eigenvalues --  -10.25793 -10.25648 -10.25484 -10.25455 -10.25440
 Alpha  occ. eigenvalues --  -10.25222 -10.25190 -10.24949 -10.24906 -10.24381
 Alpha  occ. eigenvalues --  -10.24254 -10.23852 -10.23842 -10.22150  -1.17028
 Alpha  occ. eigenvalues --   -1.10822  -1.09409  -1.08855  -0.93599  -0.93314
 Alpha  occ. eigenvalues --   -0.92667  -0.91495  -0.91122  -0.89812  -0.88225
 Alpha  occ. eigenvalues --   -0.87067  -0.86316  -0.86088  -0.84682  -0.83914
 Alpha  occ. eigenvalues --   -0.81689  -0.81183  -0.79932  -0.79462  -0.79334
 Alpha  occ. eigenvalues --   -0.77841  -0.76723  -0.76197  -0.75870  -0.75766
 Alpha  occ. eigenvalues --   -0.75265  -0.74113  -0.73721  -0.70466  -0.70038
 Alpha  occ. eigenvalues --   -0.69098  -0.67556  -0.66253  -0.65447  -0.64240
 Alpha  occ. eigenvalues --   -0.63233  -0.62500  -0.62106  -0.60728  -0.60239
 Alpha  occ. eigenvalues --   -0.59236  -0.58726  -0.58371  -0.57585  -0.56568
 Alpha  occ. eigenvalues --   -0.56454  -0.56174  -0.55189  -0.55103  -0.54840
 Alpha  occ. eigenvalues --   -0.54489  -0.53532  -0.52947  -0.52637  -0.52127
 Alpha  occ. eigenvalues --   -0.51772  -0.51497  -0.51022  -0.50410  -0.49728
 Alpha  occ. eigenvalues --   -0.49479  -0.49443  -0.49390  -0.48690  -0.48460
 Alpha  occ. eigenvalues --   -0.48279  -0.48143  -0.47567  -0.47524  -0.47458
 Alpha  occ. eigenvalues --   -0.46738  -0.46650  -0.46520  -0.46354  -0.45295
 Alpha  occ. eigenvalues --   -0.45291  -0.44732  -0.44410  -0.44405  -0.43830
 Alpha  occ. eigenvalues --   -0.43732  -0.43438  -0.43169  -0.43114  -0.42860
 Alpha  occ. eigenvalues --   -0.42770  -0.42718  -0.42561  -0.42247  -0.41875
 Alpha  occ. eigenvalues --   -0.40678  -0.40599  -0.40539  -0.40345  -0.39845
 Alpha  occ. eigenvalues --   -0.39547  -0.39352  -0.39128  -0.38992  -0.38565
 Alpha  occ. eigenvalues --   -0.38483  -0.38149  -0.37607  -0.37261  -0.37212
 Alpha  occ. eigenvalues --   -0.36540  -0.35911  -0.35247  -0.34611  -0.33889
 Alpha  occ. eigenvalues --   -0.32817  -0.32686  -0.32328  -0.31055  -0.30453
 Alpha  occ. eigenvalues --   -0.30325  -0.28520  -0.24944  -0.18549
 Alpha virt. eigenvalues --   -0.07322  -0.00813   0.03162   0.06835   0.07223
 Alpha virt. eigenvalues --    0.08760   0.09350   0.10367   0.11650   0.12214
 Alpha virt. eigenvalues --    0.12333   0.12783   0.13532   0.13587   0.14090

 Mulliken charges:
               1
     1  O   -0.489240
     2  O   -0.542927
     3  O   -0.563298
     4  O   -0.541232
     5  C    0.210162
     6  C    0.207822
     7  C    0.017641
     8  C   -0.215168
     9  C   -0.206594
    10  C    0.167089
    11  C   -0.318327
    12  C   -0.110476
    13  C   -0.293743
    14  C   -0.294315
    15  C   -0.085331
    16  C    0.061508
    17  C   -0.350634
    18  C   -0.068294
    19  C   -0.085261
    20  C    0.003020
    21  C    0.222642
    22  C   -0.199475
    23  C    0.148494
    24  C   -0.176145
    25  C   -0.058821
    26  C   -0.309811
    27  C   -0.309234
    28  C   -0.266857
    29  C   -0.139110
    30  C    0.167889
    31  C    0.117067
    32  C   -0.274525
    33  C   -0.365043
    34  C   -0.091161
    35  C    0.137942
    36  C   -0.365949
    37  C   -0.120431
    38  C   -0.076788
    39  C   -0.084549
    40  C   -0.096183
    41  C   -0.079177
    42  C   -0.128546
    43  C    0.102161
    44  C   -0.333400
    45  H    0.087558
    46  H    0.118268
    47  H    0.102406
    48  H    0.110703
    49  H    0.102386
    50  H    0.074201
    51  H    0.114434
    52  H    0.124537
    53  H    0.102489
    54  H    0.098670
    55  H    0.100913
    56  H    0.070776
    57  H    0.106887
    58  H    0.108584
    59  H    0.100647
    60  H    0.307235
    61  H    0.069218
    62  H    0.102155
    63  H    0.120566
    64  H    0.117252
    65  H    0.081379
    66  H    0.056082
    67  H    0.070237
    68  H    0.088837
    69  H    0.085833
    70  H    0.119372
    71  H    0.098752
    72  H    0.105150
    73  H    0.118510
    74  H    0.107610
    75  H    0.129478
    76  H    0.106733
    77  H    0.094722
    78  H    0.090414
    79  H    0.089455
    80  H    0.118203
    81  H    0.074049
    82  H    0.300223
    83  H    0.297708
    84  H    0.098562
    85  H    0.087346
    86  H    0.132028
    87  H    0.101130
    88  H    0.077009
    89  H    0.095757
    90  H    0.128598
    91  H    0.099699
    92  H    0.066429
    93  H    0.071708
    94  H    0.064375
    95  H    0.068280
    96  H    0.070204
    97  H    0.076005
    98  H    0.120201
    99  H    0.116802
   100  H    0.129845
 Sum of Mulliken charges =  -0.00000

 Dipole moment (field-independent basis, Debye):
    X=              3.9626    Y=              0.7451    Z=              3.1034  Tot=              5.0881
 Quadrupole moment (field-independent basis, Debye-Ang):
   XX=           -273.6155   YY=           -263.2998   ZZ=           -276.2171
   XY=              3.2032   XZ=             30.7699   YZ=             -3.9012

 Normal termination of Gaussian 16 at Thu Aug  1 17:58:36 2019.
