 Gaussian 16, Revision A.03,
 Gaussian 16:  ES64L-G16RevA.03 25-Dec-2016

 -------------------------------------
 # td=(NStates=1) CAM-B3LYP/6-31G(d,p)
 -------------------------------------

 --
 TD
 --
 Symbolic Z-matrix:
 Charge =  0 Multiplicity = 1

                         Standard orientation:
 ---------------------------------------------------------------------
 Center     Atomic      Atomic             Coordinates (Angstroms)
 Number     Number       Type             X           Y           Z
 ---------------------------------------------------------------------
      1          8           0      -11.540537   -0.069478   -1.674031
      2          8           0      -12.978771   -2.185032    1.722578
      3          8           0       10.514222   -1.233303   -1.975085
      4          8           0       14.411675   -1.045600   -0.176528
      5          6           0      -10.936722   -0.275772   -0.374842
      6          6           0      -11.670202   -1.368600   -1.118817
      7          6           0      -11.725111    0.586075    0.721476
      8          6           0      -12.994155   -1.817477   -0.734631
      9          6           0      -13.188447    0.104041    0.858879
     10          6           0      -13.464887   -1.314497    0.673869
     11          6           0      -10.748018   -2.342798   -1.871355
     12          6           0       -9.476144   -0.133576   -0.520670
     13          6           0      -10.981123    0.341985    2.053603
     14          6           0      -11.691255    1.995682    0.366728
     15          6           0       -8.541538   -0.863961    0.179499
     16          6           0       -7.147883   -0.697399    0.151795
     17          6           0       -6.337878   -1.828485    0.499270
     18          6           0       -6.613267    0.571422   -0.126433
     19          6           0       -5.281863    0.902908   -0.138552
     20          6           0       11.973355    0.232444    1.269241
     21          6           0       11.593691   -0.809465   -1.196310
     22          6           0       12.685871   -1.028588    1.625741
     23          6           0       13.361777   -1.719167    0.347893
     24          6           0       12.412043   -1.940790   -0.770704
     25          6           0       11.015753   -0.027318    0.005420
     26          6           0       11.068767    0.486915    2.523055
     27          6           0       12.851273    1.371343    0.960339
     28          6           0       12.361912    0.152332   -2.164939
     29          6           0       -4.812630    2.164144   -0.477919
     30          6           0        9.830669    0.476836   -0.090916
     31          6           0       -3.349806    2.506779   -0.399603
     32          6           0        8.517949    0.812118   -0.306207
     33          6           0       -3.036473    3.901830   -0.907455
     34          6           0       -2.321626    1.618667   -0.104679
     35          6           0        7.422077    0.121730   -0.020672
     36          6           0        7.561853   -1.287524    0.533977
     37          6           0        6.136990    0.715421   -0.218551
     38          6           0       -0.969950    1.975569   -0.230389
     39          6           0        4.954915    0.132534    0.017194
     40          6           0        0.026592    1.000921    0.025066
     41          6           0        3.754124    0.892328   -0.111754
     42          6           0        1.430663    1.333774    0.014851
     43          6           0        2.496510    0.360507    0.052809
     44          6           0        2.323119   -1.028475    0.385034
     45          1           0      -13.041778   -2.868106   -0.555439
     46          1           0      -13.566002   -1.461568   -1.546768
     47          1           0      -13.702817    0.291828    1.846355
     48          1           0      -13.888037    0.522156    0.195877
     49          1           0      -14.393261   -1.581040    0.696065
     50          1           0      -10.503595   -3.178226   -1.303926
     51          1           0      -11.311850   -2.857868   -2.666988
     52          1           0       -9.834928   -1.822375   -2.333187
     53          1           0       -9.211763    0.574377   -1.248776
     54          1           0       -9.957625    1.023724    1.961393
     55          1           0      -11.641278    0.888416    2.791541
     56          1           0      -10.901697   -0.729732    2.401245
     57          1           0      -11.852519    2.254557   -0.570774
     58          1           0      -12.365599    2.660707    1.000887
     59          1           0      -10.579054    2.298227    0.423512
     60          1           0      -12.060026   -2.193217    1.517984
     61          1           0       -9.006438   -1.779585    0.734125
     62          1           0       -6.143104   -2.657906   -0.421926
     63          1           0       -5.352545   -1.746216    1.012843
     64          1           0       -6.800317   -2.499442    1.415974
     65          1           0       -7.249369    1.388464   -0.383931
     66          1           0       -4.432051    0.029183    0.052751
     67          1           0       13.398483   -0.854321    2.320088
     68          1           0       12.022292   -1.747728    2.197171
     69          1           0       13.779370   -2.921435    0.581040
     70          1           0       12.769742   -2.391703   -1.674323
     71          1           0       11.473902   -2.732262   -0.436589
     72          1           0       11.795682    0.784811    3.272314
     73          1           0       10.518515    1.278268    2.366672
     74          1           0       10.230178   -0.189363    3.012609
     75          1           0       13.739097    1.072830    0.332080
     76          1           0       12.066609    1.984602    0.478535
     77          1           0       13.035940    1.764904    2.162534
     78          1           0       12.608802   -0.436047   -3.062270
     79          1           0       11.663659    0.929638   -2.564114
     80          1           0       13.164191    0.555538   -1.533069
     81          1           0       -5.570601    2.948495   -0.840770
     82          1           0        9.895322   -0.321042   -1.691204
     83          1           0       15.213004   -0.965285    0.476185
     84          1           0        8.426464    1.755685   -0.814680
     85          1           0       -2.688106    4.537674   -0.148141
     86          1           0       -2.381165    3.732406   -1.874131
     87          1           0       -4.060368    4.326131   -1.094976
     88          1           0       -2.708002    0.699572    0.037574
     89          1           0        6.605271   -1.911414    0.222782
     90          1           0        8.307917   -1.727687   -0.246908
     91          1           0        7.705979   -1.487140    1.468284
     92          1           0        6.102384    1.599849   -0.718918
     93          1           0       -0.642625    3.039377   -0.490926
     94          1           0        5.109961   -1.005154    0.367984
     95          1           0       -0.494440    0.054223    0.283102
     96          1           0        3.930381    1.892512   -0.521783
     97          1           0        1.700114    2.377114   -0.009622
     98          1           0        1.299286   -1.291290    0.974250
     99          1           0        2.298032   -1.878340   -0.440830
    100          1           0        3.282113   -1.408971    1.133686
 ---------------------------------------------------------------------

 SCF Done:  E(RCAM-B3LYP) =  -1857.24520728     A.U. after   15 cycles

 Excitation energies and oscillator strengths:

 Excited State   1:      Singlet-A      1.8790 eV  659.86 nm  f=3.4136  <S**2>=0.000
     163 ->166        -0.14086
     164 ->165         0.69405
     164 <-165        -0.10567
 This state for optimization and/or second-order correction.
 Total Energy, E(TD-HF/TD-DFT) =  -1857.17615708
 Copying the excited state density for this state as the 1-particle RhoCI density.

 The electronic state is 1-A.
 Alpha  occ. eigenvalues --  -19.23214 -19.21820 -19.21379 -19.18586 -10.32452
 Alpha  occ. eigenvalues --  -10.32186 -10.31661 -10.29446 -10.29126 -10.28816
 Alpha  occ. eigenvalues --  -10.28641 -10.28430 -10.28194 -10.28154 -10.28126
 Alpha  occ. eigenvalues --  -10.28093 -10.27932 -10.27871 -10.27856 -10.27744
 Alpha  occ. eigenvalues --  -10.27682 -10.27548 -10.27521 -10.27143 -10.27126
 Alpha  occ. eigenvalues --  -10.26782 -10.26776 -10.26632 -10.26587 -10.26538
 Alpha  occ. eigenvalues --  -10.26453 -10.26246 -10.26165 -10.25529 -10.25496
 Alpha  occ. eigenvalues --  -10.25301 -10.25139 -10.25067 -10.24861 -10.24851
 Alpha  occ. eigenvalues --  -10.24638 -10.24226 -10.24120 -10.22860  -1.15371
 Alpha  occ. eigenvalues --   -1.11930  -1.10344  -1.07019  -0.93427  -0.93045
 Alpha  occ. eigenvalues --   -0.92633  -0.91778  -0.91537  -0.90893  -0.88216
 Alpha  occ. eigenvalues --   -0.87553  -0.86342  -0.85429  -0.84754  -0.83249
 Alpha  occ. eigenvalues --   -0.82583  -0.81832  -0.79467  -0.78617  -0.77791
 Alpha  occ. eigenvalues --   -0.77416  -0.76653  -0.76418  -0.76189  -0.75811
 Alpha  occ. eigenvalues --   -0.75367  -0.74248  -0.72809  -0.71207  -0.69924
 Alpha  occ. eigenvalues --   -0.68363  -0.67318  -0.65370  -0.64519  -0.63687
 Alpha  occ. eigenvalues --   -0.62692  -0.61979  -0.61291  -0.60834  -0.60522
 Alpha  occ. eigenvalues --   -0.59278  -0.58708  -0.58031  -0.57180  -0.56546
 Alpha  occ. eigenvalues --   -0.56257  -0.56113  -0.55707  -0.54899  -0.54657
 Alpha  occ. eigenvalues --   -0.54462  -0.54038  -0.53405  -0.52521  -0.51685
 Alpha  occ. eigenvalues --   -0.51633  -0.51155  -0.50676  -0.50531  -0.50166
 Alpha  occ. eigenvalues --   -0.49898  -0.49770  -0.49281  -0.49177  -0.48412
 Alpha  occ. eigenvalues --   -0.47927  -0.47519  -0.47363  -0.47048  -0.46855
 Alpha  occ. eigenvalues --   -0.46480  -0.46211  -0.45778  -0.45758  -0.45389
 Alpha  occ. eigenvalues --   -0.44667  -0.44250  -0.44087  -0.44064  -0.43936
 Alpha  occ. eigenvalues --   -0.43843  -0.43442  -0.43248  -0.42486  -0.42284
 Alpha  occ. eigenvalues --   -0.42197  -0.42031  -0.41931  -0.41493  -0.41320
 Alpha  occ. eigenvalues --   -0.41045  -0.40534  -0.40303  -0.40142  -0.40026
 Alpha  occ. eigenvalues --   -0.39656  -0.39488  -0.39310  -0.39246  -0.39202
 Alpha  occ. eigenvalues --   -0.38753  -0.38395  -0.37983  -0.36757  -0.36634
 Alpha  occ. eigenvalues --   -0.36423  -0.36109  -0.35536  -0.35025  -0.34403
 Alpha  occ. eigenvalues --   -0.32683  -0.32092  -0.31501  -0.31001  -0.30513
 Alpha  occ. eigenvalues --   -0.28951  -0.27801  -0.23806  -0.19104
 Alpha virt. eigenvalues --   -0.07400  -0.02793   0.02215   0.06232   0.07727
 Alpha virt. eigenvalues --    0.08861   0.09254   0.09831   0.10504   0.10869
 Alpha virt. eigenvalues --    0.12082   0.12289   0.12774   0.12998   0.13326

 Mulliken charges:
               1
     1  O   -0.514478
     2  O   -0.548741
     3  O   -0.585673
     4  O   -0.524040
     5  C    0.147159
     6  C    0.258500
     7  C    0.035551
     8  C   -0.239984
     9  C   -0.181780
    10  C    0.138697
    11  C   -0.330711
    12  C   -0.098529
    13  C   -0.285625
    14  C   -0.300079
    15  C   -0.091770
    16  C    0.130892
    17  C   -0.386723
    18  C   -0.108678
    19  C   -0.049521
    20  C   -0.002576
    21  C    0.238124
    22  C   -0.170641
    23  C    0.161949
    24  C   -0.162096
    25  C   -0.080785
    26  C   -0.303234
    27  C   -0.281036
    28  C   -0.266575
    29  C   -0.138984
    30  C    0.032173
    31  C    0.048371
    32  C   -0.247729
    33  C   -0.366948
    34  C   -0.069407
    35  C    0.132833
    36  C   -0.370153
    37  C   -0.076704
    38  C   -0.087097
    39  C   -0.083733
    40  C   -0.088530
    41  C   -0.136983
    42  C   -0.139495
    43  C    0.163181
    44  C   -0.374233
    45  H    0.117049
    46  H    0.128508
    47  H    0.102238
    48  H    0.108815
    49  H    0.102313
    50  H    0.108669
    51  H    0.101974
    52  H    0.121753
    53  H    0.110137
    54  H    0.091701
    55  H    0.100053
    56  H    0.092955
    57  H    0.136361
    58  H    0.098963
    59  H    0.076582
    60  H    0.296083
    61  H    0.076228
    62  H    0.102973
    63  H    0.123748
    64  H    0.092199
    65  H    0.086558
    66  H    0.081904
    67  H    0.087957
    68  H    0.102023
    69  H    0.022437
    70  H    0.116980
    71  H    0.079573
    72  H    0.090125
    73  H    0.115493
    74  H    0.097898
    75  H    0.132737
    76  H    0.116171
    77  H    0.059294
    78  H    0.108379
    79  H    0.078414
    80  H    0.098042
    81  H    0.096462
    82  H    0.299288
    83  H    0.319592
    84  H    0.112159
    85  H    0.133653
    86  H    0.122778
    87  H    0.097628
    88  H    0.060450
    89  H    0.089488
    90  H    0.134341
    91  H    0.135129
    92  H    0.072417
    93  H    0.095293
    94  H    0.078838
    95  H    0.091445
    96  H    0.094561
    97  H    0.096466
    98  H    0.098366
    99  H    0.119110
   100  H    0.095089
 Sum of Mulliken charges =  -0.00000

 Dipole moment (field-independent basis, Debye):
    X=             -1.0164    Y=              1.0704    Z=              2.2657  Tot=              2.7041
 Quadrupole moment (field-independent basis, Debye-Ang):
   XX=           -274.4190   YY=           -262.4716   ZZ=           -283.5555
   XY=              4.5201   XZ=             41.2798   YZ=             -4.7371

 Normal termination of Gaussian 16 at Thu Aug  1 11:46:46 2019.
