 Gaussian 16, Revision A.03,
 Gaussian 16:  ES64L-G16RevA.03 25-Dec-2016

 -------------------------------------
 # td=(NStates=1) CAM-B3LYP/6-31G(d,p)
 -------------------------------------

 --
 TD
 --
 Symbolic Z-matrix:
 Charge =  0 Multiplicity = 1

                         Standard orientation:
 ---------------------------------------------------------------------
 Center     Atomic      Atomic             Coordinates (Angstroms)
 Number     Number       Type             X           Y           Z
 ---------------------------------------------------------------------
      1          8           0      -11.719358    0.170179   -1.658955
      2          8           0      -13.136078   -2.336418    1.571554
      3          8           0       10.495071   -1.055020   -1.995983
      4          8           0       14.513950   -0.853180   -0.488043
      5          6           0      -11.097916   -0.165420   -0.403570
      6          6           0      -11.675284   -1.201923   -1.226195
      7          6           0      -11.742358    0.434441    0.848846
      8          6           0      -13.008511   -1.855662   -0.836691
      9          6           0      -13.240402   -0.000392    0.733622
     10          6           0      -13.607820   -1.464340    0.501705
     11          6           0      -10.864755   -2.165285   -2.073430
     12          6           0       -9.558216    0.066264   -0.460819
     13          6           0      -11.096294   -0.003117    2.132657
     14          6           0      -11.798211    1.925480    0.752707
     15          6           0       -8.704243   -0.688608    0.123844
     16          6           0       -7.195774   -0.481797    0.226025
     17          6           0       -6.506432   -1.745370    0.726061
     18          6           0       -6.565531    0.593028   -0.237207
     19          6           0       -5.173292    0.843154   -0.155254
     20          6           0       11.960417   -0.016981    1.305505
     21          6           0       11.507129   -0.596107   -1.267912
     22          6           0       12.883725   -1.233100    1.413926
     23          6           0       13.503648   -1.612776    0.088972
     24          6           0       12.453143   -1.803135   -1.018106
     25          6           0       11.039942   -0.028533    0.107351
     26          6           0       11.175854    0.022468    2.566419
     27          6           0       12.847742    1.297085    1.318117
     28          6           0       12.366811    0.462217   -2.064335
     29          6           0       -4.718483    2.166866   -0.482007
     30          6           0        9.834703    0.444562    0.123895
     31          6           0       -3.393570    2.556912   -0.502625
     32          6           0        8.653226    0.839370   -0.066325
     33          6           0       -3.115834    4.004054   -0.527898
     34          6           0       -2.337283    1.689906   -0.368245
     35          6           0        7.477860    0.148720    0.165823
     36          6           0        7.655833   -1.398743    0.472950
     37          6           0        6.300690    0.681739   -0.027247
     38          6           0       -0.916922    1.887411   -0.205834
     39          6           0        5.019356    0.060140    0.197831
     40          6           0        0.082167    0.987028   -0.122648
     41          6           0        3.794185    0.776764   -0.013845
     42          6           0        1.496536    1.126519   -0.200952
     43          6           0        2.477035    0.241031   -0.013966
     44          6           0        2.371305   -1.191966    0.375896
     45          1           0      -12.751198   -2.917816   -0.984772
     46          1           0      -13.802085   -1.473986   -1.559690
     47          1           0      -13.840287    0.391197    1.752042
     48          1           0      -13.696974    0.638007   -0.132150
     49          1           0      -14.636570   -1.543788    0.410025
     50          1           0      -10.488052   -3.006320   -1.549625
     51          1           0      -11.400892   -2.575397   -3.032413
     52          1           0       -9.935526   -1.837660   -2.368924
     53          1           0       -9.165761    1.067427   -1.064205
     54          1           0      -10.039090    0.568996    2.380397
     55          1           0      -11.705306    0.265217    2.964818
     56          1           0      -10.980730   -0.982518    2.072543
     57          1           0      -12.147989    2.251299   -0.286476
     58          1           0      -12.379146    2.488860    1.564820
     59          1           0      -10.847978    2.433436    0.798983
     60          1           0      -12.127886   -2.476237    1.258809
     61          1           0       -9.215043   -1.477602    0.717070
     62          1           0       -5.926144   -2.355203   -0.220873
     63          1           0       -5.386620   -1.729055    1.319306
     64          1           0       -7.026124   -2.364266    1.382428
     65          1           0       -7.419160    1.385390   -0.208750
     66          1           0       -4.480664    0.275154    0.390352
     67          1           0       13.762334   -1.014135    1.963895
     68          1           0       12.325426   -2.082613    1.742832
     69          1           0       13.893100   -2.642895    0.149960
     70          1           0       12.862080   -2.097424   -2.080615
     71          1           0       11.662409   -2.652172   -0.774438
     72          1           0       11.969899    0.108004    3.442570
     73          1           0       10.287007    0.784647    2.616023
     74          1           0       10.754748   -1.067244    2.695323
     75          1           0       13.586947    1.335530    0.404323
     76          1           0       11.928015    2.242044    1.364638
     77          1           0       13.662535    1.409555    2.121202
     78          1           0       12.703300    0.096423   -3.062689
     79          1           0       11.629849    1.328169   -2.062037
     80          1           0       13.404589    0.782867   -1.719901
     81          1           0       -5.325003    2.818623   -0.779968
     82          1           0        9.970708   -0.291882   -2.184327
     83          1           0       15.087456   -0.718756    0.207311
     84          1           0        8.526172    1.870996   -0.331109
     85          1           0       -2.738121    4.517551    0.305388
     86          1           0       -2.442123    4.152454   -1.413564
     87          1           0       -3.972842    4.559853   -0.685776
     88          1           0       -2.612476    0.567585   -0.628103
     89          1           0        6.698303   -2.008715    0.208008
     90          1           0        8.214903   -1.849295   -0.399001
     91          1           0        8.017459   -1.495189    1.287331
     92          1           0        6.280799    1.840141   -0.200112
     93          1           0       -0.668916    2.989909   -0.270897
     94          1           0        5.120145   -1.034710    0.344672
     95          1           0       -0.383899   -0.004714    0.104075
     96          1           0        3.735253    1.866481   -0.237523
     97          1           0        1.942766    2.290621   -0.190505
     98          1           0        1.250365   -1.541452    0.464783
     99          1           0        3.009287   -1.827279   -0.271825
    100          1           0        2.523016   -1.274016    1.395517
 ---------------------------------------------------------------------

 SCF Done:  E(RCAM-B3LYP) =  -1857.27330459     A.U. after   15 cycles

 Excitation energies and oscillator strengths:

 Excited State   1:      Singlet-A      2.4217 eV  511.97 nm  f=2.7885  <S**2>=0.000
     163 ->166        -0.14789
     164 ->165         0.68840
 This state for optimization and/or second-order correction.
 Total Energy, E(TD-HF/TD-DFT) =  -1857.18430840
 Copying the excited state density for this state as the 1-particle RhoCI density.

 The electronic state is 1-A.
 Alpha  occ. eigenvalues --  -19.22780 -19.22422 -19.22265 -19.21707 -10.32774
 Alpha  occ. eigenvalues --  -10.32557 -10.31373 -10.30673 -10.30486 -10.28200
 Alpha  occ. eigenvalues --  -10.28171 -10.28069 -10.28030 -10.27810 -10.27593
 Alpha  occ. eigenvalues --  -10.27293 -10.27163 -10.27062 -10.27007 -10.26976
 Alpha  occ. eigenvalues --  -10.26951 -10.26907 -10.26864 -10.26770 -10.26646
 Alpha  occ. eigenvalues --  -10.26643 -10.26630 -10.26528 -10.26449 -10.26359
 Alpha  occ. eigenvalues --  -10.26313 -10.26003 -10.25987 -10.25838 -10.25828
 Alpha  occ. eigenvalues --  -10.25599 -10.25548 -10.25476 -10.25163 -10.24909
 Alpha  occ. eigenvalues --  -10.24771 -10.24529 -10.24401 -10.24322  -1.15774
 Alpha  occ. eigenvalues --   -1.14051  -1.13261  -1.07685  -0.93880  -0.92751
 Alpha  occ. eigenvalues --   -0.92460  -0.91958  -0.91643  -0.90603  -0.87488
 Alpha  occ. eigenvalues --   -0.87297  -0.86343  -0.85527  -0.85072  -0.82984
 Alpha  occ. eigenvalues --   -0.82446  -0.81249  -0.80116  -0.78809  -0.77535
 Alpha  occ. eigenvalues --   -0.77320  -0.76794  -0.76384  -0.75414  -0.75276
 Alpha  occ. eigenvalues --   -0.74567  -0.74230  -0.74005  -0.71088  -0.70345
 Alpha  occ. eigenvalues --   -0.69250  -0.68372  -0.65806  -0.65124  -0.63781
 Alpha  occ. eigenvalues --   -0.63587  -0.61800  -0.59805  -0.59746  -0.59125
 Alpha  occ. eigenvalues --   -0.59010  -0.58817  -0.58370  -0.57931  -0.56664
 Alpha  occ. eigenvalues --   -0.56019  -0.55491  -0.55346  -0.54933  -0.54520
 Alpha  occ. eigenvalues --   -0.54313  -0.54172  -0.53659  -0.53308  -0.52769
 Alpha  occ. eigenvalues --   -0.52506  -0.51649  -0.50882  -0.50506  -0.50327
 Alpha  occ. eigenvalues --   -0.49976  -0.49849  -0.49327  -0.49274  -0.48923
 Alpha  occ. eigenvalues --   -0.48549  -0.48019  -0.47370  -0.47178  -0.46417
 Alpha  occ. eigenvalues --   -0.46277  -0.46110  -0.46043  -0.45442  -0.45217
 Alpha  occ. eigenvalues --   -0.44866  -0.44732  -0.44351  -0.44152  -0.43348
 Alpha  occ. eigenvalues --   -0.43115  -0.43006  -0.42814  -0.42477  -0.42217
 Alpha  occ. eigenvalues --   -0.42126  -0.41651  -0.41470  -0.41047  -0.40802
 Alpha  occ. eigenvalues --   -0.40601  -0.40469  -0.40288  -0.40030  -0.40008
 Alpha  occ. eigenvalues --   -0.39654  -0.39524  -0.38729  -0.38492  -0.38431
 Alpha  occ. eigenvalues --   -0.38383  -0.38126  -0.37923  -0.37064  -0.37003
 Alpha  occ. eigenvalues --   -0.36527  -0.36201  -0.35623  -0.35185  -0.34602
 Alpha  occ. eigenvalues --   -0.32983  -0.32582  -0.32482  -0.32094  -0.31718
 Alpha  occ. eigenvalues --   -0.29633  -0.29098  -0.24742  -0.20712
 Alpha virt. eigenvalues --   -0.05482  -0.00661   0.03916   0.06654   0.06796
 Alpha virt. eigenvalues --    0.07773   0.09680   0.10572   0.11646   0.11919
 Alpha virt. eigenvalues --    0.12417   0.13092   0.13464   0.13658   0.14179

 Mulliken charges:
               1
     1  O   -0.502948
     2  O   -0.545961
     3  O   -0.520341
     4  O   -0.509989
     5  C    0.163625
     6  C    0.267358
     7  C    0.035875
     8  C   -0.236480
     9  C   -0.181766
    10  C    0.151399
    11  C   -0.358390
    12  C   -0.105774
    13  C   -0.272523
    14  C   -0.316506
    15  C   -0.053159
    16  C    0.087516
    17  C   -0.358526
    18  C   -0.117428
    19  C   -0.085563
    20  C    0.016650
    21  C    0.253120
    22  C   -0.178391
    23  C    0.131411
    24  C   -0.193557
    25  C   -0.047950
    26  C   -0.283047
    27  C   -0.283198
    28  C   -0.308410
    29  C   -0.073350
    30  C    0.173899
    31  C    0.101945
    32  C   -0.313017
    33  C   -0.382827
    34  C   -0.142091
    35  C    0.121704
    36  C   -0.345159
    37  C   -0.111673
    38  C   -0.079574
    39  C   -0.114216
    40  C   -0.093426
    41  C   -0.123302
    42  C   -0.150804
    43  C    0.170150
    44  C   -0.371107
    45  H    0.109955
    46  H    0.119688
    47  H    0.068240
    48  H    0.107171
    49  H    0.111974
    50  H    0.111650
    51  H    0.110073
    52  H    0.131767
    53  H    0.091406
    54  H    0.085393
    55  H    0.118594
    56  H    0.082515
    57  H    0.115806
    58  H    0.100671
    59  H    0.099367
    60  H    0.301426
    61  H    0.068672
    62  H    0.098741
    63  H    0.077679
    64  H    0.123895
    65  H    0.090376
    66  H    0.110225
    67  H    0.086945
    68  H    0.115102
    69  H    0.079412
    70  H    0.098472
    71  H    0.081986
    72  H    0.084743
    73  H    0.105534
    74  H    0.081165
    75  H    0.102918
    76  H    0.068278
    77  H    0.089168
    78  H    0.103883
    79  H    0.068059
    80  H    0.131348
    81  H    0.058934
    82  H    0.301930
    83  H    0.293785
    84  H    0.105434
    85  H    0.133354
    86  H    0.120066
    87  H    0.108385
    88  H    0.067619
    89  H    0.090590
    90  H    0.130844
    91  H    0.126117
    92  H    0.067706
    93  H    0.072466
    94  H    0.087305
    95  H    0.079118
    96  H    0.082020
    97  H    0.066753
    98  H    0.090715
    99  H    0.124058
   100  H    0.146307
 Sum of Mulliken charges =  -0.00000

 Dipole moment (field-independent basis, Debye):
    X=              2.3367    Y=             -0.1873    Z=              1.9594  Tot=              3.0552
 Quadrupole moment (field-independent basis, Debye-Ang):
   XX=           -263.9487   YY=           -260.4389   ZZ=           -281.1406
   XY=             -0.9877   XZ=             29.7649   YZ=             -0.0365

 Normal termination of Gaussian 16 at Sun Jul 28 22:56:00 2019.
