 Gaussian 16, Revision A.03,
 Gaussian 16:  ES64L-G16RevA.03 25-Dec-2016

 -------------------------------------
 # td=(NStates=1) CAM-B3LYP/6-31G(d,p)
 -------------------------------------

 --
 TD
 --
 Symbolic Z-matrix:
 Charge =  0 Multiplicity = 1

                         Standard orientation:
 ---------------------------------------------------------------------
 Center     Atomic      Atomic             Coordinates (Angstroms)
 Number     Number       Type             X           Y           Z
 ---------------------------------------------------------------------
      1          8           0      -11.663640    0.225546   -1.530909
      2          8           0      -12.944106   -2.604589    1.330247
      3          8           0       10.630601   -1.127419   -2.139860
      4          8           0       14.434774   -0.915748    0.001756
      5          6           0      -11.021297   -0.241224   -0.353809
      6          6           0      -11.493711   -1.238248   -1.339708
      7          6           0      -11.681413    0.219928    1.005927
      8          6           0      -12.836455   -1.849604   -0.939434
      9          6           0      -13.112887   -0.181496    0.937463
     10          6           0      -13.390434   -1.638987    0.440317
     11          6           0      -10.690431   -1.973685   -2.339751
     12          6           0       -9.476398    0.078734   -0.401402
     13          6           0      -10.943530   -0.395565    2.281139
     14          6           0      -11.515941    1.808688    1.026697
     15          6           0       -8.601298   -0.764204    0.170110
     16          6           0       -7.246773   -0.481494    0.162710
     17          6           0       -6.246242   -1.622656    0.333573
     18          6           0       -6.686031    0.758711    0.006979
     19          6           0       -5.267945    1.186875   -0.117447
     20          6           0       11.767982   -0.087991    1.423668
     21          6           0       11.619896   -0.700699   -1.301562
     22          6           0       12.607747   -1.478710    1.444000
     23          6           0       13.391057   -1.806956    0.302896
     24          6           0       12.405509   -1.860238   -0.837295
     25          6           0       10.977676   -0.017227    0.040035
     26          6           0       10.886157   -0.019332    2.532340
     27          6           0       12.709443    1.177603    1.482106
     28          6           0       12.400574    0.342815   -2.100938
     29          6           0       -4.788954    2.424367   -0.355857
     30          6           0        9.827081    0.429440   -0.079223
     31          6           0       -3.365953    2.726947   -0.408834
     32          6           0        8.598358    0.860887   -0.154613
     33          6           0       -3.055441    4.208666   -0.662108
     34          6           0       -2.342666    1.876503   -0.146338
     35          6           0        7.343618    0.135188   -0.087064
     36          6           0        7.473730   -1.341213    0.152334
     37          6           0        6.152370    0.831445   -0.249606
     38          6           0       -0.973956    2.147141   -0.119652
     39          6           0        4.960130    0.195427   -0.096217
     40          6           0        0.022495    1.202906    0.036245
     41          6           0        3.749954    0.882945   -0.168256
     42          6           0        1.361650    1.405047   -0.121020
     43          6           0        2.440680    0.473297   -0.005149
     44          6           0        2.283527   -1.010302    0.194607
     45          1           0      -12.844103   -3.163645   -0.884655
     46          1           0      -13.596465   -1.530317   -1.670859
     47          1           0      -13.559329   -0.115513    1.852112
     48          1           0      -13.824094    0.481913    0.362894
     49          1           0      -14.473054   -1.869467    0.440389
     50          1           0      -10.552345   -3.031202   -2.120080
     51          1           0      -11.193553   -2.367381   -3.260280
     52          1           0       -9.727792   -1.630346   -2.473801
     53          1           0       -9.402111    1.099957   -0.762115
     54          1           0       -9.765884   -0.385072    2.317366
     55          1           0      -11.333907   -0.097778    3.133351
     56          1           0      -11.141641   -1.536484    2.462380
     57          1           0      -11.864290    2.334552    0.038902
     58          1           0      -12.342828    2.069046    1.881399
     59          1           0      -10.599428    2.056034    1.386076
     60          1           0      -12.099175   -2.715317    1.213198
     61          1           0       -8.983506   -1.750822    0.479858
     62          1           0       -5.630024   -2.053354   -0.416792
     63          1           0       -5.665403   -1.457185    1.175281
     64          1           0       -6.621093   -2.449014    0.627283
     65          1           0       -7.379827    1.522493   -0.145901
     66          1           0       -4.739429    0.255149    0.052161
     67          1           0       13.128566   -1.595495    2.442748
     68          1           0       11.880392   -2.316824    1.444643
     69          1           0       13.702103   -2.779974    0.426920
     70          1           0       12.852318   -2.269776   -1.722241
     71          1           0       11.791502   -2.712144   -0.517534
     72          1           0       11.399351    0.341985    3.356221
     73          1           0       10.043909    0.803414    2.363517
     74          1           0       10.158803   -0.973071    2.666486
     75          1           0       13.509666    1.057108    0.860813
     76          1           0       12.302504    2.087879    1.378170
     77          1           0       13.408455    1.061773    2.510505
     78          1           0       12.721921   -0.287162   -3.070416
     79          1           0       11.706672    1.082746   -2.595867
     80          1           0       13.080834    0.811183   -1.482111
     81          1           0       -5.535089    3.164301   -0.419845
     82          1           0        9.967515   -0.480432   -2.226823
     83          1           0       15.160289   -0.824600    0.770943
     84          1           0        8.401575    1.923785   -0.154273
     85          1           0       -2.249434    4.600077   -0.005995
     86          1           0       -2.410632    4.067740   -1.582795
     87          1           0       -3.873662    4.796459   -0.807362
     88          1           0       -2.474742    0.777049   -0.192794
     89          1           0        6.596879   -1.892357   -0.207450
     90          1           0        8.261683   -1.769893   -0.378523
     91          1           0        7.637293   -1.701385    1.096953
     92          1           0        6.173552    1.915005   -0.487097
     93          1           0       -0.386180    3.200749   -0.330773
     94          1           0        4.826383   -0.898732    0.267049
     95          1           0       -0.030254    0.205101    0.256853
     96          1           0        4.138951    1.971146   -0.456543
     97          1           0        1.531249    2.448336   -0.288995
     98          1           0        1.285595   -1.265424    0.172105
     99          1           0        2.757753   -1.584941   -0.636614
    100          1           0        2.761256   -1.234555    1.044907
 ---------------------------------------------------------------------

 SCF Done:  E(RCAM-B3LYP) =  -1857.29907878     A.U. after   15 cycles

 Excitation energies and oscillator strengths:

 Excited State   1:      Singlet-A      2.1635 eV  573.08 nm  f=3.3110  <S**2>=0.000
     163 ->166         0.13708
     164 ->165         0.69363
 This state for optimization and/or second-order correction.
 Total Energy, E(TD-HF/TD-DFT) =  -1857.21957215
 Copying the excited state density for this state as the 1-particle RhoCI density.

 The electronic state is 1-A.
 Alpha  occ. eigenvalues --  -19.22572 -19.22170 -19.20436 -19.20387 -10.32803
 Alpha  occ. eigenvalues --  -10.31916 -10.31661 -10.30600 -10.29863 -10.29082
 Alpha  occ. eigenvalues --  -10.28569 -10.27645 -10.27622 -10.27540 -10.27494
 Alpha  occ. eigenvalues --  -10.27403 -10.27310 -10.26812 -10.26659 -10.26528
 Alpha  occ. eigenvalues --  -10.26391 -10.26377 -10.26112 -10.26108 -10.26037
 Alpha  occ. eigenvalues --  -10.26003 -10.25826 -10.25736 -10.25718 -10.25613
 Alpha  occ. eigenvalues --  -10.25537 -10.25485 -10.25422 -10.25132 -10.25009
 Alpha  occ. eigenvalues --  -10.24780 -10.24762 -10.24454 -10.24364 -10.24343
 Alpha  occ. eigenvalues --  -10.24228 -10.24072 -10.23562 -10.23112  -1.14421
 Alpha  occ. eigenvalues --   -1.13203  -1.12102  -1.09277  -0.93016  -0.92548
 Alpha  occ. eigenvalues --   -0.92279  -0.91376  -0.90470  -0.90102  -0.88142
 Alpha  occ. eigenvalues --   -0.87380  -0.86546  -0.85925  -0.84959  -0.83675
 Alpha  occ. eigenvalues --   -0.82963  -0.81906  -0.81218  -0.79404  -0.77623
 Alpha  occ. eigenvalues --   -0.77609  -0.76764  -0.76490  -0.76263  -0.76154
 Alpha  occ. eigenvalues --   -0.75979  -0.74292  -0.73061  -0.71820  -0.70371
 Alpha  occ. eigenvalues --   -0.69185  -0.67364  -0.66128  -0.65596  -0.64775
 Alpha  occ. eigenvalues --   -0.63522  -0.62295  -0.61757  -0.60688  -0.60411
 Alpha  occ. eigenvalues --   -0.59726  -0.59561  -0.58871  -0.57602  -0.56543
 Alpha  occ. eigenvalues --   -0.56225  -0.55685  -0.55256  -0.54781  -0.54776
 Alpha  occ. eigenvalues --   -0.54130  -0.53345  -0.52867  -0.52463  -0.52328
 Alpha  occ. eigenvalues --   -0.52013  -0.51688  -0.51303  -0.50600  -0.50290
 Alpha  occ. eigenvalues --   -0.50149  -0.49757  -0.49394  -0.48679  -0.48555
 Alpha  occ. eigenvalues --   -0.48242  -0.48146  -0.47905  -0.47503  -0.47067
 Alpha  occ. eigenvalues --   -0.46998  -0.46788  -0.46455  -0.46112  -0.45738
 Alpha  occ. eigenvalues --   -0.45591  -0.45178  -0.44772  -0.44504  -0.44172
 Alpha  occ. eigenvalues --   -0.44095  -0.43693  -0.43129  -0.42816  -0.42455
 Alpha  occ. eigenvalues --   -0.42096  -0.41768  -0.41212  -0.41004  -0.40853
 Alpha  occ. eigenvalues --   -0.40520  -0.40130  -0.40081  -0.40055  -0.39908
 Alpha  occ. eigenvalues --   -0.39505  -0.39115  -0.38819  -0.38737  -0.38430
 Alpha  occ. eigenvalues --   -0.38243  -0.38165  -0.37995  -0.37691  -0.37258
 Alpha  occ. eigenvalues --   -0.36849  -0.36331  -0.35866  -0.34715  -0.34475
 Alpha  occ. eigenvalues --   -0.33165  -0.32457  -0.31884  -0.31390  -0.31074
 Alpha  occ. eigenvalues --   -0.30137  -0.27563  -0.24349  -0.19100
 Alpha virt. eigenvalues --   -0.05865  -0.00938   0.03290   0.07082   0.08444
 Alpha virt. eigenvalues --    0.09032   0.10966   0.11306   0.11928   0.12746
 Alpha virt. eigenvalues --    0.13340   0.13410   0.13611   0.14123   0.14194

 Mulliken charges:
               1
     1  O   -0.516203
     2  O   -0.503981
     3  O   -0.549370
     4  O   -0.557895
     5  C    0.166498
     6  C    0.269178
     7  C    0.041874
     8  C   -0.212593
     9  C   -0.187052
    10  C    0.143182
    11  C   -0.357050
    12  C   -0.089741
    13  C   -0.328966
    14  C   -0.310685
    15  C   -0.102559
    16  C    0.095705
    17  C   -0.392323
    18  C   -0.132687
    19  C   -0.034053
    20  C    0.050603
    21  C    0.265118
    22  C   -0.199445
    23  C    0.191844
    24  C   -0.196999
    25  C   -0.190902
    26  C   -0.295019
    27  C   -0.304708
    28  C   -0.276938
    29  C   -0.128728
    30  C    0.257585
    31  C    0.088938
    32  C   -0.329920
    33  C   -0.367393
    34  C   -0.124887
    35  C    0.133030
    36  C   -0.388041
    37  C   -0.117717
    38  C   -0.099958
    39  C   -0.081189
    40  C   -0.034648
    41  C   -0.105729
    42  C   -0.114975
    43  C    0.058331
    44  C   -0.370302
    45  H    0.058018
    46  H    0.121132
    47  H    0.105229
    48  H    0.101732
    49  H    0.097766
    50  H    0.110769
    51  H    0.121203
    52  H    0.131807
    53  H    0.118186
    54  H    0.108006
    55  H    0.122682
    56  H    0.078205
    57  H    0.124239
    58  H    0.079104
    59  H    0.124013
    60  H    0.280725
    61  H    0.095072
    62  H    0.124930
    63  H    0.128312
    64  H    0.103492
    65  H    0.057028
    66  H    0.081911
    67  H    0.074960
    68  H    0.097122
    69  H    0.090223
    70  H    0.104292
    71  H    0.108312
    72  H    0.108074
    73  H    0.092290
    74  H    0.082346
    75  H    0.132051
    76  H    0.120362
    77  H    0.046859
    78  H    0.092007
    79  H    0.085064
    80  H    0.121552
    81  H    0.090550
    82  H    0.303212
    83  H    0.310132
    84  H    0.098416
    85  H    0.126701
    86  H    0.123741
    87  H    0.113078
    88  H    0.091221
    89  H    0.105040
    90  H    0.128754
    91  H    0.129443
    92  H    0.092450
    93  H    0.069421
    94  H    0.079282
    95  H    0.053030
    96  H    0.058694
    97  H    0.064240
    98  H    0.113017
    99  H    0.122449
   100  H    0.138828
 Sum of Mulliken charges =  -0.00000

 Dipole moment (field-independent basis, Debye):
    X=              1.7528    Y=             -1.5417    Z=              2.0863  Tot=              3.1308
 Quadrupole moment (field-independent basis, Debye-Ang):
   XX=           -257.4889   YY=           -256.3161   ZZ=           -278.1166
   XY=             -1.4254   XZ=             29.0468   YZ=             -1.6083

 Normal termination of Gaussian 16 at Wed Jul 31 11:30:25 2019.
