 Gaussian 16, Revision A.03,
 Gaussian 16:  ES64L-G16RevA.03 25-Dec-2016

 -------------------------------------
 # td=(NStates=1) CAM-B3LYP/6-31G(d,p)
 -------------------------------------

 --
 TD
 --
 Symbolic Z-matrix:
 Charge =  0 Multiplicity = 1

                         Standard orientation:
 ---------------------------------------------------------------------
 Center     Atomic      Atomic             Coordinates (Angstroms)
 Number     Number       Type             X           Y           Z
 ---------------------------------------------------------------------
      1          8           0      -11.663922   -0.374359   -1.744035
      2          8           0      -13.165660   -2.103461    1.812183
      3          8           0       10.586687   -1.340763   -1.953456
      4          8           0       14.350147   -1.052312   -0.066006
      5          6           0      -11.052781   -0.224449   -0.409051
      6          6           0      -11.578463   -1.521154   -0.989983
      7          6           0      -11.837557    0.540797    0.671747
      8          6           0      -12.949073   -2.036551   -0.666379
      9          6           0      -13.282831    0.133356    0.637209
     10          6           0      -13.595107   -1.301934    0.643061
     11          6           0      -10.618679   -2.675548   -1.606470
     12          6           0       -9.505343   -0.139107   -0.536659
     13          6           0      -11.237363    0.243300    2.063650
     14          6           0      -11.666175    2.103617    0.380128
     15          6           0       -8.578093   -0.752115    0.218904
     16          6           0       -7.196043   -0.483193    0.304156
     17          6           0       -6.430444   -1.701060    0.594678
     18          6           0       -6.604081    0.736511   -0.072611
     19          6           0       -5.142352    1.001765   -0.074299
     20          6           0       11.831726    0.147688    1.355521
     21          6           0       11.690666   -0.803929   -1.212663
     22          6           0       12.695931   -1.126199    1.649966
     23          6           0       13.311708   -1.842091    0.487992
     24          6           0       12.382742   -1.991632   -0.689292
     25          6           0       11.143315    0.009483    0.038288
     26          6           0       11.043993    0.478459    2.577352
     27          6           0       12.859862    1.312471    1.162202
     28          6           0       12.548074   -0.008862   -2.018862
     29          6           0       -4.753013    2.318951   -0.344057
     30          6           0        9.873408    0.442004   -0.065932
     31          6           0       -3.344428    2.690939   -0.456437
     32          6           0        8.637635    0.935371   -0.363009
     33          6           0       -3.030693    4.010304   -0.820418
     34          6           0       -2.233173    1.756186   -0.255425
     35          6           0        7.451339    0.220000   -0.115122
     36          6           0        7.678157   -1.180745    0.343640
     37          6           0        6.288533    0.835845   -0.268244
     38          6           0       -0.994276    1.967038   -0.429932
     39          6           0        4.926133    0.271954   -0.110289
     40          6           0        0.012975    0.991554   -0.124179
     41          6           0        3.730268    0.843375   -0.254806
     42          6           0        1.379832    1.239358   -0.228319
     43          6           0        2.484994    0.399047   -0.143949
     44          6           0        2.242788   -1.054682    0.221209
     45          1           0      -12.990223   -3.185167   -0.666728
     46          1           0      -13.784152   -1.931396   -1.309917
     47          1           0      -13.667091    0.798334    1.470567
     48          1           0      -13.944096    0.379780   -0.318991
     49          1           0      -14.765596   -1.588041    0.463442
     50          1           0      -10.276270   -3.484663   -0.885837
     51          1           0      -11.183629   -3.269624   -2.465578
     52          1           0       -9.776884   -2.251946   -2.099576
     53          1           0       -9.276404    0.703007   -1.436413
     54          1           0      -10.051786    0.445111    2.097637
     55          1           0      -11.532758    1.063257    2.800665
     56          1           0      -11.204068   -0.736652    2.374154
     57          1           0      -12.180439    2.260317   -0.709963
     58          1           0      -12.203449    2.892547    0.903050
     59          1           0      -10.547497    2.210663    0.657668
     60          1           0      -12.124666   -2.326715    1.939262
     61          1           0       -8.706395   -1.727486    0.869743
     62          1           0       -5.994575   -2.412021   -0.184507
     63          1           0       -5.554264   -1.545708    1.348846
     64          1           0       -7.065479   -2.362688    1.090563
     65          1           0       -7.495963    1.456822   -0.352513
     66          1           0       -4.407237    0.323176    0.007176
     67          1           0       13.572045   -0.908697    2.337782
     68          1           0       12.048792   -1.958231    2.156896
     69          1           0       13.562647   -2.916911    0.726181
     70          1           0       13.003169   -2.415576   -1.570143
     71          1           0       11.599238   -2.767638   -0.408366
     72          1           0       11.894173    0.553428    3.371794
     73          1           0       10.130480    1.304737    2.478556
     74          1           0       10.432914   -0.520468    2.592952
     75          1           0       13.497467    1.313803    0.199392
     76          1           0       12.286166    2.294387    1.305099
     77          1           0       13.658050    1.655480    2.013422
     78          1           0       12.792172   -0.688422   -2.820592
     79          1           0       11.994458    0.809610   -2.494809
     80          1           0       13.488711    0.308219   -1.492915
     81          1           0       -5.462768    3.056175   -0.646274
     82          1           0       10.027957   -0.704365   -2.283620
     83          1           0       15.199112   -1.206906    0.553451
     84          1           0        8.486332    2.001303   -0.632777
     85          1           0       -2.264998    4.306328   -0.127614
     86          1           0       -2.636958    4.218486   -1.729637
     87          1           0       -3.945629    4.678061   -0.617527
     88          1           0       -2.581951    0.740721    0.075176
     89          1           0        6.960833   -1.791410    0.368806
     90          1           0        8.180434   -1.695531   -0.515004
     91          1           0        8.133546   -1.254884    1.428566
     92          1           0        6.418190    2.076944   -0.344148
     93          1           0       -0.561877    3.076965   -0.647028
     94          1           0        4.886025   -0.792212    0.005678
     95          1           0       -0.414607   -0.004450    0.189935
     96          1           0        3.777406    1.897020   -0.681535
     97          1           0        1.581855    2.326306   -0.496319
     98          1           0        1.142019   -1.370968   -0.005415
     99          1           0        2.918257   -1.934346   -0.194655
    100          1           0        2.566571   -1.147454    1.362562
 ---------------------------------------------------------------------

 SCF Done:  E(RCAM-B3LYP) =  -1857.23548587     A.U. after   17 cycles

 Excitation energies and oscillator strengths:

 Excited State   1:      Singlet-A      1.8675 eV  663.91 nm  f=2.8289  <S**2>=0.000
     163 ->166        -0.10963
     164 ->165         0.70720
     164 <-165        -0.13618
 This state for optimization and/or second-order correction.
 Total Energy, E(TD-HF/TD-DFT) =  -1857.16685713
 Copying the excited state density for this state as the 1-particle RhoCI density.

 The electronic state is 1-A.
 Alpha  occ. eigenvalues --  -19.23142 -19.22306 -19.20372 -19.20245 -10.32797
 Alpha  occ. eigenvalues --  -10.32397 -10.32354 -10.31358 -10.31222 -10.29125
 Alpha  occ. eigenvalues --  -10.28558 -10.28507 -10.28078 -10.27856 -10.27709
 Alpha  occ. eigenvalues --  -10.27474 -10.27440 -10.27350 -10.27340 -10.27247
 Alpha  occ. eigenvalues --  -10.27235 -10.27232 -10.27178 -10.27095 -10.27012
 Alpha  occ. eigenvalues --  -10.26975 -10.26955 -10.26853 -10.26726 -10.26712
 Alpha  occ. eigenvalues --  -10.26591 -10.26488 -10.26257 -10.26137 -10.26004
 Alpha  occ. eigenvalues --  -10.25952 -10.25885 -10.25784 -10.25239 -10.25093
 Alpha  occ. eigenvalues --  -10.24941 -10.24460 -10.24220 -10.23085  -1.15729
 Alpha  occ. eigenvalues --   -1.10611  -1.09778  -1.04504  -0.93381  -0.93040
 Alpha  occ. eigenvalues --   -0.92351  -0.91781  -0.91249  -0.90913  -0.87984
 Alpha  occ. eigenvalues --   -0.87843  -0.85332  -0.84809  -0.84359  -0.83225
 Alpha  occ. eigenvalues --   -0.82198  -0.81123  -0.79702  -0.78870  -0.77639
 Alpha  occ. eigenvalues --   -0.76534  -0.76080  -0.75739  -0.75625  -0.75384
 Alpha  occ. eigenvalues --   -0.74285  -0.74177  -0.72993  -0.70204  -0.69451
 Alpha  occ. eigenvalues --   -0.68433  -0.67242  -0.65059  -0.64822  -0.64495
 Alpha  occ. eigenvalues --   -0.63469  -0.61370  -0.60445  -0.59663  -0.59361
 Alpha  occ. eigenvalues --   -0.58965  -0.58614  -0.58013  -0.57747  -0.56915
 Alpha  occ. eigenvalues --   -0.55930  -0.55127  -0.54705  -0.54416  -0.54324
 Alpha  occ. eigenvalues --   -0.53267  -0.53057  -0.52513  -0.51811  -0.51646
 Alpha  occ. eigenvalues --   -0.51535  -0.50908  -0.50430  -0.49994  -0.49783
 Alpha  occ. eigenvalues --   -0.49180  -0.48947  -0.48707  -0.48420  -0.48327
 Alpha  occ. eigenvalues --   -0.47687  -0.47454  -0.47016  -0.46897  -0.46494
 Alpha  occ. eigenvalues --   -0.46448  -0.46197  -0.45796  -0.45481  -0.44982
 Alpha  occ. eigenvalues --   -0.44526  -0.44173  -0.43870  -0.43539  -0.43285
 Alpha  occ. eigenvalues --   -0.43207  -0.42902  -0.42627  -0.42316  -0.42138
 Alpha  occ. eigenvalues --   -0.42095  -0.41400  -0.41159  -0.40798  -0.40582
 Alpha  occ. eigenvalues --   -0.40422  -0.40355  -0.40177  -0.39814  -0.39626
 Alpha  occ. eigenvalues --   -0.39274  -0.39035  -0.38995  -0.38722  -0.38350
 Alpha  occ. eigenvalues --   -0.38310  -0.37731  -0.37606  -0.37324  -0.36657
 Alpha  occ. eigenvalues --   -0.35666  -0.35495  -0.34844  -0.34133  -0.33782
 Alpha  occ. eigenvalues --   -0.33380  -0.33092  -0.31892  -0.31503  -0.29839
 Alpha  occ. eigenvalues --   -0.29208  -0.27478  -0.25034  -0.18719
 Alpha virt. eigenvalues --   -0.07239  -0.00500   0.02612   0.06069   0.06805
 Alpha virt. eigenvalues --    0.08814   0.09209   0.10058   0.10970   0.11659
 Alpha virt. eigenvalues --    0.11918   0.11969   0.12284   0.12881   0.13195

 Mulliken charges:
               1
     1  O   -0.490321
     2  O   -0.582629
     3  O   -0.560036
     4  O   -0.542620
     5  C    0.202384
     6  C    0.256585
     7  C    0.005146
     8  C   -0.212511
     9  C   -0.150675
    10  C    0.149213
    11  C   -0.334756
    12  C   -0.143368
    13  C   -0.295226
    14  C   -0.314740
    15  C   -0.067188
    16  C    0.098023
    17  C   -0.379599
    18  C   -0.118266
    19  C   -0.064311
    20  C    0.020355
    21  C    0.269114
    22  C   -0.151900
    23  C    0.127568
    24  C   -0.180950
    25  C   -0.052488
    26  C   -0.287044
    27  C   -0.297717
    28  C   -0.291770
    29  C   -0.102103
    30  C    0.098169
    31  C    0.076176
    32  C   -0.267858
    33  C   -0.391117
    34  C   -0.086574
    35  C    0.158579
    36  C   -0.348938
    37  C   -0.139367
    38  C   -0.076718
    39  C   -0.113261
    40  C   -0.096512
    41  C   -0.104839
    42  C   -0.137817
    43  C    0.158260
    44  C   -0.375526
    45  H    0.095576
    46  H    0.114690
    47  H    0.103198
    48  H    0.098150
    49  H    0.087199
    50  H    0.098469
    51  H    0.093310
    52  H    0.128033
    53  H    0.104529
    54  H    0.088507
    55  H    0.111007
    56  H    0.091356
    57  H    0.105876
    58  H    0.111998
    59  H    0.105722
    60  H    0.307365
    61  H    0.076073
    62  H    0.122734
    63  H    0.098066
    64  H    0.106979
    65  H    0.085067
    66  H    0.094912
    67  H    0.080435
    68  H    0.077877
    69  H    0.088543
    70  H    0.098359
    71  H    0.106146
    72  H    0.105487
    73  H    0.105184
    74  H    0.091811
    75  H    0.114417
    76  H    0.091163
    77  H    0.063830
    78  H    0.107370
    79  H    0.087581
    80  H    0.141700
    81  H    0.093504
    82  H    0.293575
    83  H    0.308813
    84  H    0.106042
    85  H    0.128093
    86  H    0.140845
    87  H    0.097447
    88  H    0.071918
    89  H    0.108360
    90  H    0.125817
    91  H    0.111502
    92  H    0.060175
    93  H    0.076470
    94  H    0.076093
    95  H    0.083827
    96  H    0.068513
    97  H    0.077191
    98  H    0.104301
    99  H    0.105400
   100  H    0.112568
 Sum of Mulliken charges =  -0.00000

 Dipole moment (field-independent basis, Debye):
    X=              4.1409    Y=             -0.1202    Z=              1.6184  Tot=              4.4475
 Quadrupole moment (field-independent basis, Debye-Ang):
   XX=           -260.5821   YY=           -257.4910   ZZ=           -281.2840
   XY=            -16.7976   XZ=             23.8172   YZ=             -4.3584

 Normal termination of Gaussian 16 at Thu Aug  1 14:52:40 2019.
