 Gaussian 16, Revision A.03,
 Gaussian 16:  ES64L-G16RevA.03 25-Dec-2016

 -------------------------------------
 # td=(NStates=1) CAM-B3LYP/6-31G(d,p)
 -------------------------------------

 --
 TD
 --
 Symbolic Z-matrix:
 Charge =  0 Multiplicity = 1

                         Standard orientation:
 ---------------------------------------------------------------------
 Center     Atomic      Atomic             Coordinates (Angstroms)
 Number     Number       Type             X           Y           Z
 ---------------------------------------------------------------------
      1          8           0      -11.705378    0.093280   -1.588620
      2          8           0      -12.787008   -2.666666    1.475158
      3          8           0       10.598392   -0.802562   -2.229334
      4          8           0       14.469339   -1.062679   -0.200012
      5          6           0      -10.991863   -0.102687   -0.304450
      6          6           0      -11.600317   -1.226598   -1.211337
      7          6           0      -11.817767    0.244927    0.889203
      8          6           0      -12.802740   -1.993411   -0.913990
      9          6           0      -13.288616   -0.321256    0.871308
     10          6           0      -13.450595   -1.799330    0.526374
     11          6           0      -10.592954   -2.070277   -2.067423
     12          6           0       -9.588702    0.264843   -0.356802
     13          6           0      -11.156758   -0.011586    2.267808
     14          6           0      -11.983354    1.782189    0.840796
     15          6           0       -8.653637   -0.664353   -0.054367
     16          6           0       -7.183255   -0.390725    0.083005
     17          6           0       -6.364521   -1.547875    0.432031
     18          6           0       -6.677714    0.834852   -0.343520
     19          6           0       -5.208944    1.082887   -0.285184
     20          6           0       11.923621   -0.146324    1.354780
     21          6           0       11.658153   -0.433571   -1.336642
     22          6           0       12.662816   -1.511175    1.319199
     23          6           0       13.403764   -1.899795    0.037241
     24          6           0       12.429550   -1.811166   -1.110006
     25          6           0       11.068505    0.016480    0.052797
     26          6           0       10.956083   -0.184696    2.467256
     27          6           0       12.871702    1.110509    1.558284
     28          6           0       12.628317    0.616674   -1.943668
     29          6           0       -4.692773    2.309034   -0.451922
     30          6           0        9.828429    0.436128    0.046395
     31          6           0       -3.325568    2.632889   -0.376478
     32          6           0        8.575371    0.946789    0.186573
     33          6           0       -3.159094    4.187823   -0.634702
     34          6           0       -2.368503    1.741077   -0.257181
     35          6           0        7.438417    0.082415    0.288465
     36          6           0        7.563810   -1.384373    0.291782
     37          6           0        6.244877    0.732290    0.140474
     38          6           0       -1.041073    2.019679   -0.107723
     39          6           0        4.921348    0.174609    0.101811
     40          6           0        0.058635    1.042545   -0.227995
     41          6           0        3.812534    0.934887    0.155930
     42          6           0        1.393758    1.322233    0.010446
     43          6           0        2.503708    0.366069    0.051750
     44          6           0        2.265143   -1.188402   -0.058041
     45          1           0      -12.641177   -2.993402   -1.048436
     46          1           0      -13.523700   -1.948423   -1.719588
     47          1           0      -13.719427   -0.038260    1.978520
     48          1           0      -13.826813    0.385891    0.126987
     49          1           0      -14.339548   -1.897008    0.634024
     50          1           0      -10.184771   -3.097247   -1.498555
     51          1           0      -11.182854   -2.485908   -2.862126
     52          1           0       -9.623939   -1.419134   -2.206631
     53          1           0       -9.560403    1.275379   -0.671280
     54          1           0      -10.254402    0.432915    2.268244
     55          1           0      -11.690063    0.417263    3.180225
     56          1           0      -10.921919   -1.109717    2.426146
     57          1           0      -12.300375    2.347939   -0.019220
     58          1           0      -12.734787    2.175280    1.682737
     59          1           0      -11.025415    2.321842    0.925012
     60          1           0      -11.732135   -2.519342    1.275317
     61          1           0       -9.151005   -1.656116    0.155119
     62          1           0       -5.657324   -1.795899   -0.330467
     63          1           0       -5.828617   -1.423547    1.384227
     64          1           0       -7.146807   -2.247832    0.646779
     65          1           0       -7.354183    1.601378   -0.628074
     66          1           0       -4.785077    0.088112    0.043272
     67          1           0       13.390798   -1.542712    2.004952
     68          1           0       12.081517   -2.365279    1.609430
     69          1           0       13.548360   -3.047935   -0.020702
     70          1           0       13.021247   -2.042812   -2.096318
     71          1           0       11.750224   -2.548283   -0.758089
     72          1           0       11.579685    0.166314    3.509115
     73          1           0       10.551446    0.840596    2.483743
     74          1           0       10.173272   -0.999367    2.448130
     75          1           0       13.744878    0.994081    0.780379
     76          1           0       12.376089    1.992608    1.639197
     77          1           0       13.294419    0.940577    2.508784
     78          1           0       12.897909    0.186910   -2.905845
     79          1           0       12.062079    1.528050   -2.266937
     80          1           0       13.421941    0.825023   -1.202333
     81          1           0       -5.608395    3.003521   -0.515047
     82          1           0        9.941021   -0.006300   -2.377945
     83          1           0       15.116764   -0.930659    0.541661
     84          1           0        8.416263    2.039321    0.161211
     85          1           0       -2.487192    4.337917    0.164208
     86          1           0       -2.820981    4.355039   -1.663728
     87          1           0       -4.049822    4.524639   -0.604773
     88          1           0       -2.750918    0.594848   -0.563531
     89          1           0        6.634752   -1.885250   -0.004321
     90          1           0        8.495435   -1.637275   -0.325327
     91          1           0        7.839756   -1.770791    1.257599
     92          1           0        6.171476    1.861502   -0.082865
     93          1           0       -0.569713    3.080644   -0.130925
     94          1           0        4.656950   -0.841848   -0.130906
     95          1           0       -0.287621    0.031987   -0.351293
     96          1           0        3.862568    2.062156    0.089227
     97          1           0        1.869617    2.370062    0.253662
     98          1           0        1.133248   -1.060586    0.291486
     99          1           0        2.476652   -1.431483   -1.213274
    100          1           0        3.089518   -1.695741    0.477945
 ---------------------------------------------------------------------

 SCF Done:  E(RCAM-B3LYP) =  -1857.28239471     A.U. after   15 cycles

 Excitation energies and oscillator strengths:

 Excited State   1:      Singlet-A      2.1308 eV  581.88 nm  f=3.0539  <S**2>=0.000
     163 ->166        -0.12680
     164 ->165         0.69739
 This state for optimization and/or second-order correction.
 Total Energy, E(TD-HF/TD-DFT) =  -1857.20409098
 Copying the excited state density for this state as the 1-particle RhoCI density.

 The electronic state is 1-A.
 Alpha  occ. eigenvalues --  -19.22946 -19.22383 -19.22004 -19.21189 -10.32053
 Alpha  occ. eigenvalues --  -10.31914 -10.31548 -10.31181 -10.29310 -10.28656
 Alpha  occ. eigenvalues --  -10.28266 -10.28257 -10.28246 -10.27907 -10.27764
 Alpha  occ. eigenvalues --  -10.27647 -10.27368 -10.27327 -10.27196 -10.27193
 Alpha  occ. eigenvalues --  -10.26873 -10.26870 -10.26844 -10.26721 -10.26657
 Alpha  occ. eigenvalues --  -10.26614 -10.26564 -10.26461 -10.26449 -10.26364
 Alpha  occ. eigenvalues --  -10.26346 -10.26171 -10.26043 -10.25771 -10.25435
 Alpha  occ. eigenvalues --  -10.25425 -10.25254 -10.25032 -10.24912 -10.24857
 Alpha  occ. eigenvalues --  -10.24719 -10.24573 -10.24175 -10.24021  -1.15261
 Alpha  occ. eigenvalues --   -1.11513  -1.07462  -1.07115  -0.92926  -0.92878
 Alpha  occ. eigenvalues --   -0.91903  -0.91740  -0.90422  -0.90026  -0.87370
 Alpha  occ. eigenvalues --   -0.86896  -0.86115  -0.85597  -0.84587  -0.83606
 Alpha  occ. eigenvalues --   -0.82043  -0.80688  -0.80565  -0.78868  -0.77443
 Alpha  occ. eigenvalues --   -0.77180  -0.76597  -0.75967  -0.75937  -0.75492
 Alpha  occ. eigenvalues --   -0.75355  -0.74566  -0.73038  -0.71303  -0.69863
 Alpha  occ. eigenvalues --   -0.68698  -0.66535  -0.65562  -0.64787  -0.63740
 Alpha  occ. eigenvalues --   -0.63212  -0.62338  -0.60628  -0.59962  -0.59548
 Alpha  occ. eigenvalues --   -0.58791  -0.58504  -0.57774  -0.56804  -0.56509
 Alpha  occ. eigenvalues --   -0.56032  -0.55472  -0.54801  -0.54534  -0.53835
 Alpha  occ. eigenvalues --   -0.53507  -0.53085  -0.52773  -0.52559  -0.52028
 Alpha  occ. eigenvalues --   -0.51584  -0.50982  -0.50666  -0.50266  -0.50131
 Alpha  occ. eigenvalues --   -0.49962  -0.49323  -0.49043  -0.48917  -0.48344
 Alpha  occ. eigenvalues --   -0.48020  -0.47995  -0.47722  -0.47444  -0.47024
 Alpha  occ. eigenvalues --   -0.46883  -0.46858  -0.46516  -0.45923  -0.45606
 Alpha  occ. eigenvalues --   -0.45219  -0.45132  -0.44200  -0.44068  -0.43910
 Alpha  occ. eigenvalues --   -0.43742  -0.43272  -0.42900  -0.42722  -0.42592
 Alpha  occ. eigenvalues --   -0.42351  -0.42306  -0.41756  -0.41566  -0.41461
 Alpha  occ. eigenvalues --   -0.41240  -0.40780  -0.40587  -0.40253  -0.39872
 Alpha  occ. eigenvalues --   -0.39766  -0.39434  -0.38715  -0.38470  -0.38244
 Alpha  occ. eigenvalues --   -0.38115  -0.37637  -0.37283  -0.36673  -0.36472
 Alpha  occ. eigenvalues --   -0.36216  -0.36116  -0.35426  -0.34499  -0.33290
 Alpha  occ. eigenvalues --   -0.32808  -0.32557  -0.32144  -0.31377  -0.30220
 Alpha  occ. eigenvalues --   -0.29822  -0.27397  -0.24831  -0.19263
 Alpha virt. eigenvalues --   -0.06087  -0.00661   0.02769   0.06469   0.07316
 Alpha virt. eigenvalues --    0.08021   0.09830   0.10328   0.11319   0.11974
 Alpha virt. eigenvalues --    0.12156   0.12597   0.12781   0.13168   0.13586

 Mulliken charges:
               1
     1  O   -0.502670
     2  O   -0.555113
     3  O   -0.580146
     4  O   -0.541166
     5  C    0.139255
     6  C    0.272843
     7  C    0.020916
     8  C   -0.247396
     9  C   -0.193379
    10  C    0.210030
    11  C   -0.326321
    12  C   -0.063376
    13  C   -0.291928
    14  C   -0.321871
    15  C   -0.115986
    16  C    0.065598
    17  C   -0.386336
    18  C   -0.108205
    19  C   -0.059106
    20  C    0.033554
    21  C    0.251559
    22  C   -0.193714
    23  C    0.159175
    24  C   -0.164576
    25  C   -0.079349
    26  C   -0.298551
    27  C   -0.317048
    28  C   -0.294947
    29  C   -0.143990
    30  C    0.096374
    31  C    0.069712
    32  C   -0.241982
    33  C   -0.331303
    34  C   -0.104021
    35  C    0.139077
    36  C   -0.384613
    37  C   -0.133817
    38  C   -0.111493
    39  C   -0.094862
    40  C   -0.117556
    41  C   -0.091329
    42  C   -0.115524
    43  C    0.058046
    44  C   -0.348469
    45  H    0.120259
    46  H    0.116247
    47  H    0.077006
    48  H    0.105178
    49  H    0.085913
    50  H    0.064484
    51  H    0.115997
    52  H    0.124042
    53  H    0.113199
    54  H    0.118713
    55  H    0.106892
    56  H    0.075045
    57  H    0.119488
    58  H    0.081342
    59  H    0.088963
    60  H    0.303809
    61  H    0.093545
    62  H    0.139524
    63  H    0.129273
    64  H    0.112637
    65  H    0.080197
    66  H    0.083573
    67  H    0.087175
    68  H    0.098582
    69  H    0.070430
    70  H    0.096813
    71  H    0.104371
    72  H    0.055732
    73  H    0.112549
    74  H    0.115411
    75  H    0.102587
    76  H    0.121934
    77  H    0.104044
    78  H    0.114166
    79  H    0.081892
    80  H    0.126184
    81  H    0.092041
    82  H    0.307902
    83  H    0.312570
    84  H    0.111704
    85  H    0.127510
    86  H    0.126273
    87  H    0.114669
    88  H    0.081506
    89  H    0.113992
    90  H    0.134728
    91  H    0.123163
    92  H    0.077764
    93  H    0.088856
    94  H    0.076358
    95  H    0.087930
    96  H    0.077897
    97  H    0.078749
    98  H    0.118795
    99  H    0.117387
   100  H    0.127012
 Sum of Mulliken charges =  -0.00000

 Dipole moment (field-independent basis, Debye):
    X=              3.6595    Y=              0.5828    Z=              1.6475  Tot=              4.0554
 Quadrupole moment (field-independent basis, Debye-Ang):
   XX=           -260.8317   YY=           -261.6691   ZZ=           -281.9696
   XY=             -2.5186   XZ=             33.3030   YZ=              0.2485

 Normal termination of Gaussian 16 at Tue Jul 30 07:49:59 2019.
