 Gaussian 16, Revision A.03,
 Gaussian 16:  ES64L-G16RevA.03 25-Dec-2016

 -------------------------------------
 # td=(NStates=1) CAM-B3LYP/6-31G(d,p)
 -------------------------------------

 --
 TD
 --
 Symbolic Z-matrix:
 Charge =  0 Multiplicity = 1

                         Standard orientation:
 ---------------------------------------------------------------------
 Center     Atomic      Atomic             Coordinates (Angstroms)
 Number     Number       Type             X           Y           Z
 ---------------------------------------------------------------------
      1          8           0      -11.630626    0.275681   -1.521499
      2          8           0      -13.273506   -2.360771    1.395375
      3          8           0       10.598970   -1.044389   -2.152089
      4          8           0       14.480377   -1.177725   -0.100605
      5          6           0      -11.066340   -0.150892   -0.306880
      6          6           0      -11.622893   -1.192597   -1.255394
      7          6           0      -11.865563    0.400637    0.892999
      8          6           0      -12.928725   -1.762646   -1.032145
      9          6           0      -13.337011    0.017346    0.740659
     10          6           0      -13.587430   -1.514298    0.336182
     11          6           0      -10.758852   -1.957329   -2.254788
     12          6           0       -9.587834    0.037819   -0.214278
     13          6           0      -11.104089   -0.195758    2.094184
     14          6           0      -11.651472    1.810932    0.891237
     15          6           0       -8.667795   -0.748566    0.202389
     16          6           0       -7.238850   -0.648197    0.218959
     17          6           0       -6.385821   -1.825102    0.729545
     18          6           0       -6.678192    0.564396   -0.109280
     19          6           0       -5.249144    0.914396   -0.085363
     20          6           0       11.955519   -0.002285    1.241044
     21          6           0       11.643516   -0.665449   -1.275342
     22          6           0       12.665160   -1.318410    1.551710
     23          6           0       13.294789   -1.842037    0.230797
     24          6           0       12.274878   -1.982596   -0.940588
     25          6           0       11.048630   -0.045308    0.013258
     26          6           0       10.921337    0.225435    2.463089
     27          6           0       13.023152    1.156559    1.325736
     28          6           0       12.407242    0.377396   -2.054970
     29          6           0       -4.721888    2.118041   -0.364541
     30          6           0        9.925296    0.461794   -0.068188
     31          6           0       -3.286725    2.494581   -0.374318
     32          6           0        8.696348    1.008761   -0.224857
     33          6           0       -3.039039    3.933347   -0.612441
     34          6           0       -2.233551    1.612445   -0.211554
     35          6           0        7.531464    0.205803    0.035924
     36          6           0        7.697607   -1.252837    0.089579
     37          6           0        6.290905    0.759493   -0.244719
     38          6           0       -0.846194    1.939552   -0.325671
     39          6           0        4.974153    0.332921    0.023844
     40          6           0        0.117164    1.001216   -0.064896
     41          6           0        3.839257    0.940651   -0.153853
     42          6           0        1.503853    1.270558   -0.156558
     43          6           0        2.520822    0.436900    0.246098
     44          6           0        2.331007   -0.879246    0.668315
     45          1           0      -13.104454   -2.905278   -1.224718
     46          1           0      -13.617436   -1.584375   -1.854322
     47          1           0      -14.011724    0.334614    1.759989
     48          1           0      -13.751573    0.539649   -0.081391
     49          1           0      -14.553629   -1.619726    0.385880
     50          1           0      -10.659284   -3.037354   -2.075433
     51          1           0      -11.436905   -2.033231   -3.108459
     52          1           0       -9.897928   -1.384774   -2.569449
     53          1           0       -9.301808    1.001059   -0.975091
     54          1           0      -10.126894    0.299558    2.313107
     55          1           0      -11.877263   -0.287190    3.058674
     56          1           0      -10.534105   -1.293631    1.821303
     57          1           0      -11.811876    2.222823   -0.045691
     58          1           0      -12.291291    2.399736    1.495743
     59          1           0      -10.755891    2.077789    1.217196
     60          1           0      -12.306012   -2.485108    1.373222
     61          1           0       -8.882508   -1.606106    0.753254
     62          1           0       -5.425704   -2.245961    0.046537
     63          1           0       -5.954272   -1.460897    1.669215
     64          1           0       -7.160853   -2.581544    0.888015
     65          1           0       -7.300498    1.391893   -0.523082
     66          1           0       -4.721451    0.009735    0.039200
     67          1           0       13.431887   -1.354910    2.515386
     68          1           0       11.831864   -2.143269    1.751541
     69          1           0       13.578531   -2.831213    0.369254
     70          1           0       12.828669   -2.301974   -1.784622
     71          1           0       11.396869   -2.632729   -0.514767
     72          1           0       11.534699    0.378637    3.357561
     73          1           0       10.338202    1.152172    2.325560
     74          1           0       10.227788   -0.623404    2.625139
     75          1           0       13.773797    1.057382    0.731357
     76          1           0       12.284505    1.921951    1.128037
     77          1           0       13.268287    1.191945    2.407347
     78          1           0       12.469397    0.049852   -3.191222
     79          1           0       11.966396    1.446891   -2.162824
     80          1           0       13.383229    0.618398   -1.769393
     81          1           0       -5.425529    3.013945   -0.346986
     82          1           0       10.048477   -0.298182   -2.405093
     83          1           0       14.654915   -1.148527    0.971856
     84          1           0        8.492349    2.060877   -0.314659
     85          1           0       -2.439154    4.282135    0.303156
     86          1           0       -2.490737    3.870639   -1.594583
     87          1           0       -3.976437    4.597390   -0.878658
     88          1           0       -2.478553    0.460728   -0.115615
     89          1           0        6.653179   -1.861019   -0.193677
     90          1           0        8.277430   -1.457667   -0.834184
     91          1           0        8.096413   -1.555923    1.058510
     92          1           0        6.348327    1.719806   -0.501022
     93          1           0       -0.419605    3.032997   -0.312821
     94          1           0        4.927833   -0.747284    0.330106
     95          1           0       -0.005145   -0.118543    0.372330
     96          1           0        3.903124    1.974272   -0.401963
     97          1           0        1.862006    2.381796   -0.508384
     98          1           0        1.339449   -1.056951    0.997939
     99          1           0        2.570052   -1.420035   -0.261154
    100          1           0        3.000975   -1.178783    1.523846
 ---------------------------------------------------------------------

 SCF Done:  E(RCAM-B3LYP) =  -1857.30049256     A.U. after   14 cycles

 Excitation energies and oscillator strengths:

 Excited State   1:      Singlet-A      2.5517 eV  485.89 nm  f=3.0569  <S**2>=0.000
     163 ->166        -0.15969
     164 ->165         0.68336
 This state for optimization and/or second-order correction.
 Total Energy, E(TD-HF/TD-DFT) =  -1857.20671958
 Copying the excited state density for this state as the 1-particle RhoCI density.

 The electronic state is 1-A.
 Alpha  occ. eigenvalues --  -19.22823 -19.21937 -19.20782 -19.20420 -10.32526
 Alpha  occ. eigenvalues --  -10.31846 -10.31686 -10.30333 -10.29301 -10.29047
 Alpha  occ. eigenvalues --  -10.28769 -10.27954 -10.27447 -10.27447 -10.27380
 Alpha  occ. eigenvalues --  -10.27359 -10.27310 -10.27286 -10.27091 -10.26986
 Alpha  occ. eigenvalues --  -10.26904 -10.26778 -10.26751 -10.26746 -10.26696
 Alpha  occ. eigenvalues --  -10.26592 -10.26555 -10.26434 -10.26355 -10.26219
 Alpha  occ. eigenvalues --  -10.26039 -10.26001 -10.25908 -10.25665 -10.25634
 Alpha  occ. eigenvalues --  -10.25513 -10.25507 -10.25250 -10.25198 -10.25143
 Alpha  occ. eigenvalues --  -10.25062 -10.24533 -10.24282 -10.21121  -1.14522
 Alpha  occ. eigenvalues --   -1.10721  -1.10072  -1.09941  -0.93712  -0.93067
 Alpha  occ. eigenvalues --   -0.92444  -0.91393  -0.91172  -0.90409  -0.87834
 Alpha  occ. eigenvalues --   -0.87439  -0.86289  -0.86172  -0.84967  -0.83841
 Alpha  occ. eigenvalues --   -0.82364  -0.81222  -0.80528  -0.78429  -0.77548
 Alpha  occ. eigenvalues --   -0.76731  -0.76654  -0.76537  -0.76183  -0.76063
 Alpha  occ. eigenvalues --   -0.75581  -0.73510  -0.72934  -0.71246  -0.70250
 Alpha  occ. eigenvalues --   -0.68375  -0.66788  -0.65904  -0.65566  -0.64432
 Alpha  occ. eigenvalues --   -0.63048  -0.61305  -0.60433  -0.59868  -0.59140
 Alpha  occ. eigenvalues --   -0.58791  -0.58612  -0.57603  -0.56851  -0.56682
 Alpha  occ. eigenvalues --   -0.55812  -0.55704  -0.54895  -0.54623  -0.54201
 Alpha  occ. eigenvalues --   -0.53839  -0.53461  -0.53221  -0.52972  -0.52829
 Alpha  occ. eigenvalues --   -0.51565  -0.51427  -0.50867  -0.50610  -0.50329
 Alpha  occ. eigenvalues --   -0.50157  -0.49847  -0.49773  -0.49472  -0.49039
 Alpha  occ. eigenvalues --   -0.48441  -0.48287  -0.47920  -0.47862  -0.47368
 Alpha  occ. eigenvalues --   -0.46546  -0.46219  -0.46190  -0.46062  -0.45460
 Alpha  occ. eigenvalues --   -0.45183  -0.44851  -0.44004  -0.43796  -0.43742
 Alpha  occ. eigenvalues --   -0.43389  -0.43217  -0.42770  -0.42696  -0.42668
 Alpha  occ. eigenvalues --   -0.42449  -0.42329  -0.41763  -0.41469  -0.41148
 Alpha  occ. eigenvalues --   -0.40644  -0.40504  -0.40380  -0.39933  -0.39614
 Alpha  occ. eigenvalues --   -0.39251  -0.39070  -0.39010  -0.38694  -0.38466
 Alpha  occ. eigenvalues --   -0.38121  -0.38060  -0.37839  -0.37574  -0.37347
 Alpha  occ. eigenvalues --   -0.36815  -0.36612  -0.35604  -0.34933  -0.33743
 Alpha  occ. eigenvalues --   -0.32870  -0.32254  -0.31908  -0.31289  -0.31132
 Alpha  occ. eigenvalues --   -0.30557  -0.27432  -0.24496  -0.20520
 Alpha virt. eigenvalues --   -0.04671  -0.00681   0.02797   0.06862   0.07347
 Alpha virt. eigenvalues --    0.08840   0.09957   0.10341   0.11193   0.11350
 Alpha virt. eigenvalues --    0.12530   0.12743   0.12998   0.13246   0.13368

 Mulliken charges:
               1
     1  O   -0.518607
     2  O   -0.537793
     3  O   -0.565608
     4  O   -0.535612
     5  C    0.194677
     6  C    0.251693
     7  C    0.074167
     8  C   -0.259839
     9  C   -0.205155
    10  C    0.181835
    11  C   -0.336161
    12  C   -0.132129
    13  C   -0.308732
    14  C   -0.311858
    15  C   -0.030357
    16  C    0.055428
    17  C   -0.363176
    18  C   -0.114302
    19  C   -0.050583
    20  C    0.001854
    21  C    0.275993
    22  C   -0.235338
    23  C    0.144986
    24  C   -0.185874
    25  C   -0.121903
    26  C   -0.313648
    27  C   -0.287660
    28  C   -0.337581
    29  C   -0.130612
    30  C    0.211373
    31  C    0.079331
    32  C   -0.275279
    33  C   -0.370873
    34  C   -0.115017
    35  C    0.100788
    36  C   -0.366385
    37  C   -0.096377
    38  C   -0.113189
    39  C   -0.079572
    40  C   -0.073190
    41  C   -0.095461
    42  C   -0.113675
    43  C    0.112567
    44  C   -0.378939
    45  H    0.101975
    46  H    0.132140
    47  H    0.063060
    48  H    0.114002
    49  H    0.093983
    50  H    0.113698
    51  H    0.114111
    52  H    0.131205
    53  H    0.089947
    54  H    0.121154
    55  H    0.096640
    56  H    0.040672
    57  H    0.122929
    58  H    0.100893
    59  H    0.109412
    60  H    0.299505
    61  H    0.066942
    62  H    0.106203
    63  H    0.140853
    64  H    0.108323
    65  H    0.077696
    66  H    0.075496
    67  H    0.082539
    68  H    0.089641
    69  H    0.089278
    70  H    0.122834
    71  H    0.116818
    72  H    0.088472
    73  H    0.110193
    74  H    0.106116
    75  H    0.128761
    76  H    0.109653
    77  H    0.097227
    78  H    0.101741
    79  H    0.091428
    80  H    0.134925
    81  H    0.084502
    82  H    0.300056
    83  H    0.309719
    84  H    0.112249
    85  H    0.124812
    86  H    0.132357
    87  H    0.101493
    88  H    0.080956
    89  H    0.082971
    90  H    0.143999
    91  H    0.116299
    92  H    0.052586
    93  H    0.097469
    94  H    0.060876
    95  H    0.073339
    96  H    0.074006
    97  H    0.064632
    98  H    0.112428
    99  H    0.140439
   100  H    0.120140
 Sum of Mulliken charges =  -0.00000

 Dipole moment (field-independent basis, Debye):
    X=              2.6214    Y=             -0.3772    Z=              1.6703  Tot=              3.1311
 Quadrupole moment (field-independent basis, Debye-Ang):
   XX=           -297.1217   YY=           -260.4341   ZZ=           -274.6960
   XY=              9.2319   XZ=             37.9826   YZ=             -2.0100

 Normal termination of Gaussian 16 at Wed Jul 31 08:29:42 2019.
