 Gaussian 16, Revision A.03,
 Gaussian 16:  ES64L-G16RevA.03 25-Dec-2016

 -------------------------------------
 # td=(NStates=1) CAM-B3LYP/6-31G(d,p)
 -------------------------------------

 --
 TD
 --
 Symbolic Z-matrix:
 Charge =  0 Multiplicity = 1

                         Standard orientation:
 ---------------------------------------------------------------------
 Center     Atomic      Atomic             Coordinates (Angstroms)
 Number     Number       Type             X           Y           Z
 ---------------------------------------------------------------------
      1          8           0      -11.642682    0.304429   -1.538161
      2          8           0      -12.880630   -2.459280    1.378745
      3          8           0       10.671669   -0.684747   -2.097266
      4          8           0       14.474328   -0.941962   -0.133767
      5          6           0      -10.949764   -0.176156   -0.336637
      6          6           0      -11.636407   -1.082406   -1.296593
      7          6           0      -11.674539    0.431387    0.945619
      8          6           0      -13.089442   -1.599088   -0.885037
      9          6           0      -13.235789    0.005379    0.994634
     10          6           0      -13.493928   -1.403100    0.520046
     11          6           0      -10.887571   -2.019404   -2.237522
     12          6           0       -9.463319    0.041358   -0.284619
     13          6           0      -10.951490   -0.102201    2.177279
     14          6           0      -11.650764    1.994498    0.949247
     15          6           0       -8.556229   -0.890056    0.097731
     16          6           0       -7.115798   -0.742411    0.191024
     17          6           0       -6.299505   -1.887978    0.329071
     18          6           0       -6.634208    0.555311    0.048826
     19          6           0       -5.241994    0.918235    0.044894
     20          6           0       11.792899   -0.107383    1.423475
     21          6           0       11.721321   -0.453211   -1.121576
     22          6           0       12.601481   -1.379515    1.449589
     23          6           0       13.344479   -1.807006    0.200844
     24          6           0       12.406463   -1.790433   -1.071920
     25          6           0       11.026142   -0.011333    0.136616
     26          6           0       10.775989   -0.089409    2.612824
     27          6           0       12.795739    1.108144    1.626062
     28          6           0       12.575887    0.671732   -1.788075
     29          6           0       -4.781783    2.173000   -0.291711
     30          6           0        9.803285    0.484679    0.100697
     31          6           0       -3.346197    2.510530   -0.249282
     32          6           0        8.619118    1.055314   -0.062357
     33          6           0       -2.968104    3.970765   -0.684669
     34          6           0       -2.360770    1.621403   -0.267426
     35          6           0        7.442856    0.136591   -0.065476
     36          6           0        7.596479   -1.306602   -0.064914
     37          6           0        6.155951    0.767157   -0.105848
     38          6           0       -0.995761    1.895606   -0.280680
     39          6           0        4.878036    0.091958   -0.140581
     40          6           0       -0.019128    0.921450   -0.240540
     41          6           0        3.752922    0.896668   -0.153671
     42          6           0        1.355244    1.120176   -0.295251
     43          6           0        2.452786    0.231038   -0.247743
     44          6           0        2.259847   -1.269095   -0.142881
     45          1           0      -13.050019   -2.803968   -0.836991
     46          1           0      -13.733677   -1.229729   -1.532215
     47          1           0      -13.589906    0.217539    1.994400
     48          1           0      -13.868444    0.739664    0.309787
     49          1           0      -14.582437   -1.557137    0.582250
     50          1           0      -10.793803   -2.967536   -1.618533
     51          1           0      -11.607320   -2.010820   -3.172472
     52          1           0      -10.012968   -1.311856   -2.251400
     53          1           0       -9.217643    0.881095   -0.882955
     54          1           0      -10.032661    0.401421    1.943654
     55          1           0      -11.306432    0.453328    3.147934
     56          1           0      -11.040142   -1.174679    2.456005
     57          1           0      -12.080042    2.096457   -0.147923
     58          1           0      -12.075295    2.490052    1.753266
     59          1           0      -10.614618    2.297689    0.944563
     60          1           0      -11.940788   -2.686258    1.229181
     61          1           0       -8.993499   -1.775763    0.361160
     62          1           0       -6.178127   -2.566220   -0.602215
     63          1           0       -5.303879   -1.574800    0.870585
     64          1           0       -6.947886   -2.588295    1.359068
     65          1           0       -7.362042    1.351679   -0.145842
     66          1           0       -4.597767    0.064193    0.378115
     67          1           0       13.220728   -1.294861    2.445341
     68          1           0       11.942837   -2.250253    1.463138
     69          1           0       13.890470   -2.765728    0.122865
     70          1           0       12.974159   -1.987082   -1.885076
     71          1           0       11.661678   -2.563498   -0.781599
     72          1           0       11.348497   -0.263872    3.493300
     73          1           0       10.491416    0.910726    2.716842
     74          1           0        9.987315   -0.812907    2.508073
     75          1           0       13.588689    1.045921    0.798237
     76          1           0       12.282710    2.030611    1.494451
     77          1           0       13.415043    0.962522    2.460375
     78          1           0       12.703705    0.264320   -2.707528
     79          1           0       12.276079    1.717327   -1.706396
     80          1           0       13.379233    0.722170   -1.193204
     81          1           0       -5.569505    2.856468   -0.383394
     82          1           0       10.268381    0.115778   -2.181919
     83          1           0       15.012009   -1.155793    0.657920
     84          1           0        8.532237    2.165167    0.039623
     85          1           0       -2.314523    3.975332    0.258933
     86          1           0       -2.527613    4.207232   -1.563879
     87          1           0       -3.875317    4.685343   -0.556455
     88          1           0       -2.509224    0.508754   -0.186895
     89          1           0        6.642005   -1.748054   -0.450719
     90          1           0        8.497038   -1.625176   -0.652087
     91          1           0        7.857989   -1.710881    1.053152
     92          1           0        6.275067    1.904381   -0.328049
     93          1           0       -0.600004    2.954917   -0.295246
     94          1           0        5.126933   -0.930611    0.027881
     95          1           0       -0.499398   -0.109804   -0.280332
     96          1           0        3.864790    1.911998   -0.366989
     97          1           0        1.642476    2.266713   -0.353384
     98          1           0        1.350183   -1.867649    0.100027
     99          1           0        2.924558   -1.791114   -0.872147
    100          1           0        2.660672   -1.735538    0.888502
 ---------------------------------------------------------------------

 SCF Done:  E(RCAM-B3LYP) =  -1857.32357096     A.U. after   15 cycles

 Excitation energies and oscillator strengths:

 Excited State   1:      Singlet-A      2.3256 eV  533.12 nm  f=3.1058  <S**2>=0.000
     163 ->166        -0.15438
     164 ->165         0.68552
 This state for optimization and/or second-order correction.
 Total Energy, E(TD-HF/TD-DFT) =  -1857.23810534
 Copying the excited state density for this state as the 1-particle RhoCI density.

 The electronic state is 1-A.
 Alpha  occ. eigenvalues --  -19.22601 -19.21572 -19.20573 -19.19038 -10.32432
 Alpha  occ. eigenvalues --  -10.31990 -10.31562 -10.31310 -10.30528 -10.29876
 Alpha  occ. eigenvalues --  -10.28689 -10.28072 -10.27882 -10.27726 -10.27673
 Alpha  occ. eigenvalues --  -10.27654 -10.27589 -10.27402 -10.27252 -10.27043
 Alpha  occ. eigenvalues --  -10.27002 -10.26899 -10.26879 -10.26802 -10.26772
 Alpha  occ. eigenvalues --  -10.26756 -10.26697 -10.26676 -10.26593 -10.26555
 Alpha  occ. eigenvalues --  -10.26492 -10.26442 -10.26374 -10.26371 -10.25756
 Alpha  occ. eigenvalues --  -10.25727 -10.25335 -10.25208 -10.25083 -10.24726
 Alpha  occ. eigenvalues --  -10.24387 -10.24154 -10.23866 -10.22073  -1.15327
 Alpha  occ. eigenvalues --   -1.10108  -1.09396  -1.06634  -0.93669  -0.92896
 Alpha  occ. eigenvalues --   -0.91904  -0.91176  -0.89846  -0.89560  -0.87407
 Alpha  occ. eigenvalues --   -0.86735  -0.86566  -0.85589  -0.84707  -0.83448
 Alpha  occ. eigenvalues --   -0.82322  -0.81488  -0.80666  -0.77994  -0.77581
 Alpha  occ. eigenvalues --   -0.77250  -0.76414  -0.76092  -0.75650  -0.75603
 Alpha  occ. eigenvalues --   -0.75354  -0.74238  -0.72774  -0.70252  -0.69447
 Alpha  occ. eigenvalues --   -0.68406  -0.66575  -0.65411  -0.65293  -0.63941
 Alpha  occ. eigenvalues --   -0.63485  -0.62320  -0.61227  -0.59980  -0.59240
 Alpha  occ. eigenvalues --   -0.58389  -0.58196  -0.57854  -0.57453  -0.56074
 Alpha  occ. eigenvalues --   -0.55625  -0.55499  -0.55010  -0.54642  -0.54081
 Alpha  occ. eigenvalues --   -0.53990  -0.53365  -0.52942  -0.52515  -0.52161
 Alpha  occ. eigenvalues --   -0.51572  -0.51128  -0.50880  -0.50826  -0.50016
 Alpha  occ. eigenvalues --   -0.49826  -0.49596  -0.49469  -0.49338  -0.48504
 Alpha  occ. eigenvalues --   -0.48010  -0.47902  -0.47781  -0.47674  -0.47108
 Alpha  occ. eigenvalues --   -0.46500  -0.46415  -0.46186  -0.45833  -0.45761
 Alpha  occ. eigenvalues --   -0.45639  -0.45299  -0.44806  -0.44405  -0.44257
 Alpha  occ. eigenvalues --   -0.43820  -0.43400  -0.42957  -0.42535  -0.42247
 Alpha  occ. eigenvalues --   -0.42009  -0.41607  -0.41577  -0.41467  -0.41334
 Alpha  occ. eigenvalues --   -0.41065  -0.40224  -0.40062  -0.39954  -0.39776
 Alpha  occ. eigenvalues --   -0.39369  -0.39128  -0.39036  -0.38437  -0.38166
 Alpha  occ. eigenvalues --   -0.38053  -0.37949  -0.37657  -0.37196  -0.36517
 Alpha  occ. eigenvalues --   -0.36240  -0.34902  -0.34726  -0.34086  -0.33999
 Alpha  occ. eigenvalues --   -0.32808  -0.32353  -0.31813  -0.31619  -0.31331
 Alpha  occ. eigenvalues --   -0.29376  -0.27624  -0.24259  -0.19958
 Alpha virt. eigenvalues --   -0.05444  -0.01145   0.02809   0.06107   0.06875
 Alpha virt. eigenvalues --    0.08773   0.09390   0.10117   0.10221   0.11890
 Alpha virt. eigenvalues --    0.11998   0.12560   0.12867   0.13259   0.13826

 Mulliken charges:
               1
     1  O   -0.503195
     2  O   -0.584198
     3  O   -0.554043
     4  O   -0.547913
     5  C    0.173002
     6  C    0.205949
     7  C   -0.001938
     8  C   -0.189928
     9  C   -0.171891
    10  C    0.173970
    11  C   -0.298636
    12  C   -0.144062
    13  C   -0.295224
    14  C   -0.312553
    15  C   -0.046658
    16  C    0.121845
    17  C   -0.356603
    18  C   -0.108456
    19  C   -0.056822
    20  C    0.003161
    21  C    0.215382
    22  C   -0.179996
    23  C    0.096757
    24  C   -0.164962
    25  C   -0.051077
    26  C   -0.290713
    27  C   -0.319805
    28  C   -0.314999
    29  C   -0.124782
    30  C    0.131468
    31  C    0.010462
    32  C   -0.274736
    33  C   -0.344911
    34  C   -0.062280
    35  C    0.099342
    36  C   -0.380718
    37  C   -0.120784
    38  C   -0.081629
    39  C   -0.074239
    40  C   -0.082572
    41  C   -0.111321
    42  C   -0.145264
    43  C    0.124743
    44  C   -0.381146
    45  H    0.083726
    46  H    0.114966
    47  H    0.101349
    48  H    0.076901
    49  H    0.103636
    50  H    0.107974
    51  H    0.117112
    52  H    0.123129
    53  H    0.117210
    54  H    0.115072
    55  H    0.077049
    56  H    0.096526
    57  H    0.124005
    58  H    0.117174
    59  H    0.091759
    60  H    0.302878
    61  H    0.068172
    62  H    0.137150
    63  H    0.117520
    64  H    0.046186
    65  H    0.085217
    66  H    0.075160
    67  H    0.077648
    68  H    0.101638
    69  H    0.091847
    70  H    0.122017
    71  H    0.113928
    72  H    0.090750
    73  H    0.114147
    74  H    0.110485
    75  H    0.116408
    76  H    0.109138
    77  H    0.102817
    78  H    0.122654
    79  H    0.092905
    80  H    0.143871
    81  H    0.088817
    82  H    0.288831
    83  H    0.301804
    84  H    0.118050
    85  H    0.126302
    86  H    0.137103
    87  H    0.089004
    88  H    0.078958
    89  H    0.108080
    90  H    0.146447
    91  H    0.097820
    92  H    0.065016
    93  H    0.082395
    94  H    0.094804
    95  H    0.073309
    96  H    0.102279
    97  H    0.067801
    98  H    0.126126
    99  H    0.122993
   100  H    0.095904
 Sum of Mulliken charges =  -0.00000

 Dipole moment (field-independent basis, Debye):
    X=              4.0314    Y=             -0.8589    Z=              1.7932  Tot=              4.4951
 Quadrupole moment (field-independent basis, Debye-Ang):
   XX=           -268.8233   YY=           -257.6807   ZZ=           -281.2708
   XY=             -7.1609   XZ=             36.2028   YZ=             -0.9044

 Normal termination of Gaussian 16 at Thu Aug  1 18:49:11 2019.
