 Gaussian 16, Revision A.03,
 Gaussian 16:  ES64L-G16RevA.03 25-Dec-2016

 -------------------------------------
 # td=(NStates=1) CAM-B3LYP/6-31G(d,p)
 -------------------------------------

 --
 TD
 --
 Symbolic Z-matrix:
 Charge =  0 Multiplicity = 1

                         Standard orientation:
 ---------------------------------------------------------------------
 Center     Atomic      Atomic             Coordinates (Angstroms)
 Number     Number       Type             X           Y           Z
 ---------------------------------------------------------------------
      1          8           0       11.616031    0.178175    1.585946
      2          8           0       13.046909   -2.308933   -1.557847
      3          8           0      -10.546103   -1.127171    2.154150
      4          8           0      -14.362185   -0.940841    0.187871
      5          6           0       10.990035   -0.130661    0.425323
      6          6           0       11.565346   -1.219205    1.215425
      7          6           0       11.687858    0.401897   -0.871263
      8          6           0       12.928533   -1.855957    0.811594
      9          6           0       13.263241    0.008162   -0.800324
     10          6           0       13.456748   -1.472175   -0.490184
     11          6           0       10.599536   -1.975819    2.217493
     12          6           0        9.398869    0.105385    0.423729
     13          6           0       11.103749   -0.026856   -2.133149
     14          6           0       11.693802    1.908722   -0.817332
     15          6           0        8.594256   -0.778864   -0.117411
     16          6           0        7.188170   -0.554848   -0.052140
     17          6           0        6.294708   -1.777489   -0.560531
     18          6           0        6.613464    0.623489    0.312443
     19          6           0        5.272944    0.913995    0.187828
     20          6           0      -11.951084    0.140789   -1.144588
     21          6           0      -11.581570   -0.653740    1.335961
     22          6           0      -12.658495   -1.219258   -1.498434
     23          6           0      -13.257431   -1.757934   -0.301352
     24          6           0      -12.283175   -1.998017    0.976516
     25          6           0      -11.025115    0.063205    0.110546
     26          6           0      -11.095002    0.515370   -2.446205
     27          6           0      -12.957558    1.297517   -1.063310
     28          6           0      -12.444347    0.305683    2.199500
     29          6           0        4.727386    2.203538    0.487182
     30          6           0       -9.784242    0.514960    0.060700
     31          6           0        3.430311    2.497157    0.567605
     32          6           0       -8.562225    0.902326    0.121478
     33          6           0        2.946090    3.999053    0.825141
     34          6           0        2.391071    1.539098    0.221906
     35          6           0       -7.352453    0.110526   -0.190096
     36          6           0       -7.684480   -1.317050   -0.558357
     37          6           0       -6.153104    0.645521   -0.036205
     38          6           0        0.966148    1.903403    0.070587
     39          6           0       -4.889228   -0.037271   -0.180689
     40          6           0       -0.000016    0.866787   -0.042162
     41          6           0       -3.725021    0.704333    0.021737
     42          6           0       -1.340806    1.168434    0.040046
     43          6           0       -2.424230    0.264385   -0.263059
     44          6           0       -2.167544   -1.115511   -0.783660
     45          1           0       12.812290   -2.914621    1.010352
     46          1           0       13.565402   -1.392004    1.549950
     47          1           0       13.562933    0.246257   -1.748409
     48          1           0       13.661236    0.638307   -0.024308
     49          1           0       14.498371   -1.653751   -0.356774
     50          1           0       10.033650   -2.922197    1.762772
     51          1           0       11.216881   -2.425321    2.857042
     52          1           0        9.747981   -1.397249    2.878747
     53          1           0        9.248775    0.977434    1.064360
     54          1           0        9.859334    0.357960   -2.085787
     55          1           0       11.749186    0.452803   -2.895339
     56          1           0       11.037459   -1.101505   -2.398424
     57          1           0       12.204339    2.461660    0.124901
     58          1           0       12.221000    2.346974   -1.814870
     59          1           0       10.657038    2.161433   -1.029833
     60          1           0       12.122333   -2.606875   -1.315307
     61          1           0        8.978138   -1.642911   -0.469642
     62          1           0        5.680569   -2.258218    0.369715
     63          1           0        5.474541   -1.246187   -1.231273
     64          1           0        6.830782   -2.741962   -0.768961
     65          1           0        7.414902    1.471798    0.726235
     66          1           0        4.591218    0.082578    0.003196
     67          1           0      -13.425959   -0.936629   -2.253046
     68          1           0      -12.057030   -1.902727   -2.016251
     69          1           0      -13.684341   -2.735481   -0.425081
     70          1           0      -12.834748   -2.232811    1.786824
     71          1           0      -11.333774   -2.558826    0.830487
     72          1           0      -11.711855    0.541841   -3.222222
     73          1           0      -10.336668    1.275347   -2.334364
     74          1           0      -10.353317   -0.423666   -2.628355
     75          1           0      -13.659816    0.899871   -0.280831
     76          1           0      -12.644766    2.244660   -0.925950
     77          1           0      -13.503886    1.489420   -2.091928
     78          1           0      -12.730363   -0.356270    3.153186
     79          1           0      -11.961222    1.397182    2.335527
     80          1           0      -13.308387    0.555675    1.463459
     81          1           0        5.416267    2.772555    0.841063
     82          1           0       -9.908706   -0.417626    2.368989
     83          1           0      -15.274098   -0.999713   -0.270852
     84          1           0       -8.195462    1.936205    0.374365
     85          1           0        2.653105    4.506035   -0.122719
     86          1           0        1.956252    4.026807    1.533106
     87          1           0        3.853914    4.483561    1.229397
     88          1           0        2.627055    0.451296    0.049171
     89          1           0       -6.872273   -1.976674   -0.770144
     90          1           0       -8.167291   -1.676205    0.380967
     91          1           0       -8.287244   -1.320744   -1.352224
     92          1           0       -6.333257    1.742774    0.356283
     93          1           0        0.620355    3.012070    0.012120
     94          1           0       -4.929131   -0.947051   -0.711120
     95          1           0        0.383607   -0.078441   -0.247682
     96          1           0       -3.584318    1.693778    0.608802
     97          1           0       -1.707817    2.297742    0.229051
     98          1           0       -1.205204   -1.445719   -0.597946
     99          1           0       -2.825616   -1.787122   -0.355130
    100          1           0       -2.530398   -1.113812   -1.809976
 ---------------------------------------------------------------------

 SCF Done:  E(RCAM-B3LYP) =  -1857.30086367     A.U. after   16 cycles

 Excitation energies and oscillator strengths:

 Excited State   1:      Singlet-A      1.8636 eV  665.30 nm  f=2.6900  <S**2>=0.000
     163 ->166         0.11361
     164 ->165         0.70697
     164 <-165        -0.13364
 This state for optimization and/or second-order correction.
 Total Energy, E(TD-HF/TD-DFT) =  -1857.23237777
 Copying the excited state density for this state as the 1-particle RhoCI density.

 The electronic state is 1-A.
 Alpha  occ. eigenvalues --  -19.22632 -19.21996 -19.21897 -19.20145 -10.32662
 Alpha  occ. eigenvalues --  -10.31373 -10.31355 -10.31012 -10.30007 -10.28363
 Alpha  occ. eigenvalues --  -10.28099 -10.27863 -10.27492 -10.27366 -10.27306
 Alpha  occ. eigenvalues --  -10.27275 -10.27220 -10.27200 -10.27151 -10.27027
 Alpha  occ. eigenvalues --  -10.26740 -10.26676 -10.26658 -10.26600 -10.26540
 Alpha  occ. eigenvalues --  -10.26505 -10.26337 -10.26276 -10.26249 -10.26242
 Alpha  occ. eigenvalues --  -10.26227 -10.26016 -10.25893 -10.25835 -10.25687
 Alpha  occ. eigenvalues --  -10.25535 -10.25419 -10.25009 -10.24602 -10.24350
 Alpha  occ. eigenvalues --  -10.24051 -10.23977 -10.23592 -10.23500  -1.17709
 Alpha  occ. eigenvalues --   -1.09785  -1.09640  -1.08114  -0.92359  -0.92277
 Alpha  occ. eigenvalues --   -0.91654  -0.90996  -0.90610  -0.89963  -0.87631
 Alpha  occ. eigenvalues --   -0.87079  -0.85453  -0.84796  -0.84534  -0.82679
 Alpha  occ. eigenvalues --   -0.81303  -0.80435  -0.79917  -0.77996  -0.77275
 Alpha  occ. eigenvalues --   -0.76679  -0.76420  -0.75542  -0.75389  -0.74722
 Alpha  occ. eigenvalues --   -0.74629  -0.73283  -0.72922  -0.70461  -0.69379
 Alpha  occ. eigenvalues --   -0.68779  -0.67346  -0.65884  -0.64762  -0.64417
 Alpha  occ. eigenvalues --   -0.63495  -0.62264  -0.60680  -0.59362  -0.58839
 Alpha  occ. eigenvalues --   -0.58643  -0.58373  -0.57811  -0.57386  -0.57257
 Alpha  occ. eigenvalues --   -0.55875  -0.55170  -0.54892  -0.54755  -0.54633
 Alpha  occ. eigenvalues --   -0.54438  -0.53579  -0.52843  -0.52515  -0.51678
 Alpha  occ. eigenvalues --   -0.51352  -0.51226  -0.50524  -0.49947  -0.49496
 Alpha  occ. eigenvalues --   -0.49354  -0.49201  -0.48435  -0.48416  -0.48286
 Alpha  occ. eigenvalues --   -0.47516  -0.47051  -0.46932  -0.46743  -0.46678
 Alpha  occ. eigenvalues --   -0.46382  -0.46201  -0.45928  -0.45657  -0.45277
 Alpha  occ. eigenvalues --   -0.45049  -0.44698  -0.44274  -0.43993  -0.43730
 Alpha  occ. eigenvalues --   -0.43620  -0.43103  -0.42926  -0.42776  -0.42673
 Alpha  occ. eigenvalues --   -0.42361  -0.41611  -0.41490  -0.41193  -0.40825
 Alpha  occ. eigenvalues --   -0.40687  -0.40379  -0.40353  -0.39915  -0.39783
 Alpha  occ. eigenvalues --   -0.39764  -0.39560  -0.39239  -0.38934  -0.38637
 Alpha  occ. eigenvalues --   -0.38359  -0.38025  -0.37523  -0.36978  -0.36098
 Alpha  occ. eigenvalues --   -0.35982  -0.35194  -0.35139  -0.34547  -0.34146
 Alpha  occ. eigenvalues --   -0.32032  -0.31773  -0.31446  -0.31250  -0.30669
 Alpha  occ. eigenvalues --   -0.29087  -0.28249  -0.24116  -0.18379
 Alpha virt. eigenvalues --   -0.06661  -0.00463   0.04230   0.05868   0.06887
 Alpha virt. eigenvalues --    0.09631   0.09791   0.10667   0.11980   0.12729
 Alpha virt. eigenvalues --    0.13071   0.13395   0.13467   0.13763   0.14103

 Mulliken charges:
               1
     1  O   -0.491469
     2  O   -0.548899
     3  O   -0.570649
     4  O   -0.578194
     5  C    0.220030
     6  C    0.188659
     7  C    0.001221
     8  C   -0.235202
     9  C   -0.174891
    10  C    0.167413
    11  C   -0.323374
    12  C   -0.109641
    13  C   -0.279050
    14  C   -0.294922
    15  C   -0.050581
    16  C    0.077126
    17  C   -0.372113
    18  C   -0.094716
    19  C   -0.088411
    20  C   -0.011481
    21  C    0.241644
    22  C   -0.158059
    23  C    0.131530
    24  C   -0.170355
    25  C   -0.083332
    26  C   -0.297532
    27  C   -0.294738
    28  C   -0.289742
    29  C   -0.086922
    30  C    0.204004
    31  C    0.070715
    32  C   -0.339605
    33  C   -0.357712
    34  C   -0.125175
    35  C    0.133698
    36  C   -0.364319
    37  C   -0.116080
    38  C   -0.096178
    39  C   -0.133209
    40  C   -0.073671
    41  C   -0.093669
    42  C   -0.141228
    43  C    0.101147
    44  C   -0.370438
    45  H    0.110767
    46  H    0.135028
    47  H    0.102918
    48  H    0.107872
    49  H    0.099122
    50  H    0.078435
    51  H    0.121866
    52  H    0.119566
    53  H    0.114867
    54  H    0.068464
    55  H    0.103691
    56  H    0.093557
    57  H    0.107764
    58  H    0.076184
    59  H    0.103451
    60  H    0.303753
    61  H    0.078734
    62  H    0.094878
    63  H    0.123171
    64  H    0.114029
    65  H    0.071960
    66  H    0.083538
    67  H    0.094142
    68  H    0.111217
    69  H    0.083974
    70  H    0.116869
    71  H    0.132190
    72  H    0.103110
    73  H    0.116379
    74  H    0.060449
    75  H    0.130525
    76  H    0.111150
    77  H    0.062897
    78  H    0.099637
    79  H    0.079685
    80  H    0.121792
    81  H    0.063278
    82  H    0.302102
    83  H    0.319204
    84  H    0.098861
    85  H    0.127455
    86  H    0.104592
    87  H    0.107182
    88  H    0.081165
    89  H    0.096860
    90  H    0.131721
    91  H    0.129760
    92  H    0.064426
    93  H    0.092506
    94  H    0.097610
    95  H    0.089631
    96  H    0.086839
    97  H    0.077934
    98  H    0.115358
    99  H    0.124487
   100  H    0.129763
 Sum of Mulliken charges =  -0.00000

 Dipole moment (field-independent basis, Debye):
    X=             -2.1498    Y=             -1.8838    Z=             -1.1667  Tot=              3.0873
 Quadrupole moment (field-independent basis, Debye-Ang):
   XX=           -245.9301   YY=           -257.8070   ZZ=           -280.3675
   XY=             -0.3423   XZ=             37.5231   YZ=              2.3994

 Normal termination of Gaussian 16 at Thu Aug  1 22:41:17 2019.
