 Gaussian 16, Revision A.03,
 Gaussian 16:  ES64L-G16RevA.03 25-Dec-2016

 -------------------------------------
 # td=(NStates=1) CAM-B3LYP/6-31G(d,p)
 -------------------------------------

 --
 TD
 --
 Symbolic Z-matrix:
 Charge =  0 Multiplicity = 1

                         Standard orientation:
 ---------------------------------------------------------------------
 Center     Atomic      Atomic             Coordinates (Angstroms)
 Number     Number       Type             X           Y           Z
 ---------------------------------------------------------------------
      1          8           0      -11.748335    0.121680   -1.423866
      2          8           0      -13.058263   -2.631725    1.444579
      3          8           0       10.606748   -0.774372   -2.087455
      4          8           0       14.458882   -1.115882    0.076367
      5          6           0      -11.032388   -0.194458   -0.287440
      6          6           0      -11.655645   -1.283669   -1.090440
      7          6           0      -11.585636    0.351645    1.065068
      8          6           0      -13.061174   -1.868303   -0.810842
      9          6           0      -13.109600   -0.104060    1.066362
     10          6           0      -13.490155   -1.481524    0.591488
     11          6           0      -11.004384   -1.934225   -2.402475
     12          6           0       -9.539129    0.157065   -0.344028
     13          6           0      -10.923981   -0.128498    2.297624
     14          6           0      -11.560236    1.822119    1.001331
     15          6           0       -8.592974   -0.692973    0.134448
     16          6           0       -7.163736   -0.484097    0.093584
     17          6           0       -6.232034   -1.710170    0.267452
     18          6           0       -6.662489    0.725755   -0.038371
     19          6           0       -5.242565    1.026575   -0.050837
     20          6           0       11.834060   -0.089852    1.362813
     21          6           0       11.728930   -0.554589   -1.117163
     22          6           0       12.552397   -1.573180    1.535752
     23          6           0       13.297248   -1.951860    0.253438
     24          6           0       12.363329   -1.841905   -0.960598
     25          6           0       11.030045    0.038354    0.133449
     26          6           0       10.950243   -0.001285    2.547130
     27          6           0       12.854706    0.946975    1.700290
     28          6           0       12.707857    0.511645   -1.727409
     29          6           0       -4.731383    2.241730   -0.237164
     30          6           0        9.884897    0.636499   -0.029134
     31          6           0       -3.398995    2.607318   -0.313749
     32          6           0        8.623282    1.124049   -0.002528
     33          6           0       -3.061679    4.052166   -0.580897
     34          6           0       -2.470479    1.559544   -0.286497
     35          6           0        7.479477    0.204780   -0.000431
     36          6           0        7.607318   -1.305458   -0.024586
     37          6           0        6.233286    0.905867   -0.133187
     38          6           0       -1.119696    1.912894   -0.217520
     39          6           0        4.958120    0.193684   -0.225513
     40          6           0       -0.039048    0.975810   -0.467032
     41          6           0        3.843561    0.917235   -0.437049
     42          6           0        1.391179    1.217125   -0.440198
     43          6           0        2.500229    0.382606   -0.359118
     44          6           0        2.346852   -1.056816   -0.239707
     45          1           0      -13.157590   -2.878010   -0.997291
     46          1           0      -13.529991   -1.506783   -1.670987
     47          1           0      -13.514422   -0.217874    2.147173
     48          1           0      -13.575997    0.626036    0.298838
     49          1           0      -14.667465   -1.647604    0.869631
     50          1           0      -10.889436   -3.012011   -2.124141
     51          1           0      -11.982750   -1.959596   -3.162807
     52          1           0      -10.029131   -1.569948   -2.733754
     53          1           0       -9.240664    1.247923   -0.795956
     54          1           0       -9.798821   -0.057997    2.244782
     55          1           0      -11.428653    0.559497    3.214327
     56          1           0      -11.235909   -1.232350    2.501711
     57          1           0      -12.011104    2.413389    0.250269
     58          1           0      -11.990379    2.409945    1.747223
     59          1           0      -10.586845    2.301623    1.089163
     60          1           0      -12.162918   -2.888320    1.159142
     61          1           0       -8.958359   -1.627113    0.430685
     62          1           0       -5.635170   -1.758011   -0.460114
     63          1           0       -5.909328   -1.819596    1.337919
     64          1           0       -6.896088   -2.823868   -0.128012
     65          1           0       -7.290374    1.487197   -0.340865
     66          1           0       -4.776691    0.057593    0.187753
     67          1           0       13.308685   -1.779841    2.321815
     68          1           0       11.718086   -2.288660    1.430156
     69          1           0       13.546581   -3.100774    0.259977
     70          1           0       13.048684   -1.971337   -1.931298
     71          1           0       11.502086   -2.662005   -0.891785
     72          1           0       11.546337   -0.110438    3.604734
     73          1           0       10.248881    0.861860    2.799699
     74          1           0       10.270030   -0.812528    2.614232
     75          1           0       13.652593    1.005041    0.909147
     76          1           0       12.382146    1.803315    1.768971
     77          1           0       13.378238    0.900336    2.583984
     78          1           0       12.932153    0.331290   -2.654453
     79          1           0       12.315068    1.532808   -1.600502
     80          1           0       13.691030    0.568180   -1.118666
     81          1           0       -5.467402    3.174441   -0.339750
     82          1           0       10.306537    0.280811   -2.490580
     83          1           0       15.188795   -1.458374    0.698909
     84          1           0        8.358459    2.141746   -0.184783
     85          1           0       -2.510897    4.602876    0.282804
     86          1           0       -2.497228    4.207871   -1.635206
     87          1           0       -3.929357    4.426143   -0.559780
     88          1           0       -2.788166    0.577411   -0.251788
     89          1           0        6.629153   -1.876079   -0.169900
     90          1           0        8.346888   -1.364677   -0.933786
     91          1           0        8.284488   -1.741113    0.851153
     92          1           0        6.450174    2.002812   -0.121348
     93          1           0       -1.017431    3.057245   -0.220095
     94          1           0        4.852073   -0.818166   -0.120996
     95          1           0       -0.237316   -0.014439   -0.294573
     96          1           0        3.828539    2.003544   -0.153356
     97          1           0        1.658253    2.398856   -0.217418
     98          1           0        1.443875   -1.488733   -0.774328
     99          1           0        3.170470   -1.433771   -0.809429
    100          1           0        2.527658   -1.384506    0.848645
 ---------------------------------------------------------------------

 SCF Done:  E(RCAM-B3LYP) =  -1857.22810650     A.U. after   15 cycles

 Excitation energies and oscillator strengths:

 Excited State   1:      Singlet-A      2.2484 eV  551.43 nm  f=2.9849  <S**2>=0.000
     163 ->166        -0.13478
     164 ->165         0.69462
 This state for optimization and/or second-order correction.
 Total Energy, E(TD-HF/TD-DFT) =  -1857.14547901
 Copying the excited state density for this state as the 1-particle RhoCI density.

 The electronic state is 1-A.
 Alpha  occ. eigenvalues --  -19.23007 -19.22055 -19.21744 -19.20957 -10.33045
 Alpha  occ. eigenvalues --  -10.32797 -10.32160 -10.32069 -10.31557 -10.28092
 Alpha  occ. eigenvalues --  -10.27949 -10.27728 -10.27463 -10.27416 -10.27408
 Alpha  occ. eigenvalues --  -10.27362 -10.27288 -10.27098 -10.27094 -10.26972
 Alpha  occ. eigenvalues --  -10.26961 -10.26826 -10.26806 -10.26695 -10.26667
 Alpha  occ. eigenvalues --  -10.26640 -10.26607 -10.26602 -10.26416 -10.26267
 Alpha  occ. eigenvalues --  -10.26219 -10.26041 -10.26031 -10.25966 -10.25943
 Alpha  occ. eigenvalues --  -10.25529 -10.25464 -10.25434 -10.25082 -10.24639
 Alpha  occ. eigenvalues --  -10.24564 -10.23575 -10.22961 -10.22105  -1.16777
 Alpha  occ. eigenvalues --   -1.09417  -1.07465  -1.04960  -0.93369  -0.92974
 Alpha  occ. eigenvalues --   -0.91758  -0.91504  -0.90824  -0.89684  -0.87086
 Alpha  occ. eigenvalues --   -0.86870  -0.86324  -0.85112  -0.84135  -0.82792
 Alpha  occ. eigenvalues --   -0.81672  -0.80557  -0.80488  -0.78756  -0.77290
 Alpha  occ. eigenvalues --   -0.77135  -0.76957  -0.76113  -0.75825  -0.75440
 Alpha  occ. eigenvalues --   -0.75030  -0.74229  -0.72713  -0.70170  -0.69146
 Alpha  occ. eigenvalues --   -0.68077  -0.66444  -0.66154  -0.65107  -0.64066
 Alpha  occ. eigenvalues --   -0.62820  -0.61731  -0.60015  -0.59952  -0.59300
 Alpha  occ. eigenvalues --   -0.58373  -0.58145  -0.57417  -0.56995  -0.56202
 Alpha  occ. eigenvalues --   -0.56009  -0.55577  -0.55427  -0.54005  -0.53569
 Alpha  occ. eigenvalues --   -0.53311  -0.52535  -0.52351  -0.52064  -0.51923
 Alpha  occ. eigenvalues --   -0.51365  -0.51083  -0.50596  -0.50557  -0.49744
 Alpha  occ. eigenvalues --   -0.49397  -0.49242  -0.49059  -0.48780  -0.48362
 Alpha  occ. eigenvalues --   -0.48024  -0.47725  -0.46756  -0.46690  -0.46426
 Alpha  occ. eigenvalues --   -0.46173  -0.45958  -0.45723  -0.45533  -0.45341
 Alpha  occ. eigenvalues --   -0.44793  -0.44602  -0.44032  -0.43766  -0.43377
 Alpha  occ. eigenvalues --   -0.43005  -0.42960  -0.42710  -0.42347  -0.41938
 Alpha  occ. eigenvalues --   -0.41918  -0.41495  -0.41139  -0.41013  -0.40801
 Alpha  occ. eigenvalues --   -0.40526  -0.40426  -0.40312  -0.40077  -0.39867
 Alpha  occ. eigenvalues --   -0.39743  -0.39346  -0.38945  -0.38552  -0.38418
 Alpha  occ. eigenvalues --   -0.38181  -0.37563  -0.37375  -0.37147  -0.36964
 Alpha  occ. eigenvalues --   -0.36015  -0.35896  -0.34992  -0.34274  -0.33980
 Alpha  occ. eigenvalues --   -0.32887  -0.32237  -0.31693  -0.31312  -0.30876
 Alpha  occ. eigenvalues --   -0.30107  -0.27465  -0.24064  -0.19505
 Alpha virt. eigenvalues --   -0.05404  -0.00148   0.03142   0.06027   0.06844
 Alpha virt. eigenvalues --    0.08994   0.09325   0.09445   0.10354   0.10788
 Alpha virt. eigenvalues --    0.11902   0.12307   0.12789   0.13231   0.13438

 Mulliken charges:
               1
     1  O   -0.487611
     2  O   -0.564285
     3  O   -0.580828
     4  O   -0.549890
     5  C    0.239874
     6  C    0.146242
     7  C    0.048506
     8  C   -0.202850
     9  C   -0.188644
    10  C    0.145122
    11  C   -0.301767
    12  C   -0.121489
    13  C   -0.307622
    14  C   -0.332828
    15  C   -0.077546
    16  C    0.047513
    17  C   -0.348796
    18  C   -0.073097
    19  C   -0.074635
    20  C    0.014993
    21  C    0.257417
    22  C   -0.166744
    23  C    0.126503
    24  C   -0.189651
    25  C   -0.054183
    26  C   -0.299676
    27  C   -0.280829
    28  C   -0.331661
    29  C   -0.137876
    30  C    0.125993
    31  C    0.081014
    32  C   -0.257292
    33  C   -0.355001
    34  C   -0.060738
    35  C    0.132243
    36  C   -0.375238
    37  C   -0.127291
    38  C   -0.100617
    39  C   -0.085058
    40  C   -0.106917
    41  C   -0.101281
    42  C   -0.127925
    43  C    0.106937
    44  C   -0.384614
    45  H    0.117563
    46  H    0.129441
    47  H    0.103981
    48  H    0.116706
    49  H    0.091432
    50  H    0.093659
    51  H    0.096665
    52  H    0.133697
    53  H    0.100180
    54  H    0.112942
    55  H    0.081526
    56  H    0.095804
    57  H    0.117398
    58  H    0.109089
    59  H    0.099475
    60  H    0.297503
    61  H    0.080099
    62  H    0.148650
    63  H    0.136890
    64  H    0.044563
    65  H    0.066560
    66  H    0.088334
    67  H    0.092376
    68  H    0.095998
    69  H    0.074389
    70  H    0.104455
    71  H    0.111001
    72  H    0.063262
    73  H    0.104489
    74  H    0.099190
    75  H    0.100340
    76  H    0.105509
    77  H    0.103285
    78  H    0.119730
    79  H    0.092916
    80  H    0.138979
    81  H    0.071294
    82  H    0.300117
    83  H    0.315905
    84  H    0.107276
    85  H    0.113922
    86  H    0.121227
    87  H    0.113133
    88  H    0.082291
    89  H    0.108773
    90  H    0.147862
    91  H    0.108388
    92  H    0.083966
    93  H    0.085567
    94  H    0.089959
    95  H    0.080027
    96  H    0.083498
    97  H    0.049762
    98  H    0.111348
    99  H    0.117000
   100  H    0.122731
 Sum of Mulliken charges =  -0.00000

 Dipole moment (field-independent basis, Debye):
    X=              4.1447    Y=             -0.6261    Z=              0.9623  Tot=              4.3007
 Quadrupole moment (field-independent basis, Debye-Ang):
   XX=           -244.7470   YY=           -255.4454   ZZ=           -279.5577
   XY=            -13.3905   XZ=             29.8597   YZ=              0.5756

 Normal termination of Gaussian 16 at Thu Aug  1 20:25:14 2019.
