 Gaussian 16, Revision A.03,
 Gaussian 16:  ES64L-G16RevA.03 25-Dec-2016

 -------------------------------------
 # td=(NStates=1) CAM-B3LYP/6-31G(d,p)
 -------------------------------------

 --
 TD
 --
 Symbolic Z-matrix:
 Charge =  0 Multiplicity = 1

                         Standard orientation:
 ---------------------------------------------------------------------
 Center     Atomic      Atomic             Coordinates (Angstroms)
 Number     Number       Type             X           Y           Z
 ---------------------------------------------------------------------
      1          8           0      -11.749096    0.210294   -1.537040
      2          8           0      -12.944194   -2.428323    1.437548
      3          8           0       10.585818   -1.100359   -2.018852
      4          8           0       14.546588   -0.983393   -0.226056
      5          6           0      -11.017674   -0.144259   -0.345002
      6          6           0      -11.717414   -1.160207   -1.234441
      7          6           0      -11.679840    0.364895    0.907073
      8          6           0      -13.146954   -1.734315   -0.837812
      9          6           0      -13.149329   -0.020870    0.973672
     10          6           0      -13.559042   -1.446251    0.598663
     11          6           0      -11.064283   -2.017487   -2.128377
     12          6           0       -9.542240    0.067179   -0.364373
     13          6           0      -11.035773   -0.181740    2.225206
     14          6           0      -11.480639    1.941498    0.979918
     15          6           0       -8.688316   -0.817107    0.065454
     16          6           0       -7.253153   -0.700733    0.052693
     17          6           0       -6.340136   -1.863625    0.319557
     18          6           0       -6.665498    0.572779   -0.082205
     19          6           0       -5.227084    0.869506   -0.196455
     20          6           0       11.957467    0.063522    1.316827
     21          6           0       11.610361   -0.556219   -1.252156
     22          6           0       12.726397   -1.379358    1.463842
     23          6           0       13.450924   -1.713980    0.103243
     24          6           0       12.425108   -1.900783   -0.957109
     25          6           0       11.114800   -0.051435    0.106817
     26          6           0       11.045875    0.269965    2.549429
     27          6           0       12.900029    1.266863    1.231577
     28          6           0       12.348177    0.495861   -1.981450
     29          6           0       -4.673344    2.104878   -0.402610
     30          6           0        9.886451    0.461938    0.137824
     31          6           0       -3.393357    2.601851   -0.511746
     32          6           0        8.649174    0.830950   -0.030785
     33          6           0       -3.108981    4.105077   -0.785459
     34          6           0       -2.354093    1.668937   -0.281837
     35          6           0        7.417191   -0.042478    0.042517
     36          6           0        7.587187   -1.507468    0.178647
     37          6           0        6.267762    0.777336   -0.019518
     38          6           0       -0.924474    1.992789   -0.341706
     39          6           0        4.968039    0.242712    0.214017
     40          6           0        0.041118    1.106239    0.019594
     41          6           0        3.801059    0.868255   -0.020986
     42          6           0        1.453869    1.248524   -0.109940
     43          6           0        2.423272    0.354139   -0.072304
     44          6           0        2.185480   -1.177369    0.188370
     45          1           0      -13.181056   -2.755657   -0.979850
     46          1           0      -13.715615   -1.166103   -1.531037
     47          1           0      -13.570622    0.395188    1.829112
     48          1           0      -13.814967    0.683549    0.230981
     49          1           0      -14.460708   -1.443333    0.672743
     50          1           0      -10.974725   -3.102357   -1.669813
     51          1           0      -11.639651   -2.210871   -3.047991
     52          1           0      -10.202960   -1.535224   -2.480726
     53          1           0       -9.241076    0.992659   -0.808483
     54          1           0      -10.128283    0.230265    2.583145
     55          1           0      -11.385890    0.162911    3.146182
     56          1           0      -10.989978   -1.177799    2.231164
     57          1           0      -12.069096    2.462962    0.077053
     58          1           0      -12.075264    2.440865    1.760771
     59          1           0      -10.523744    2.133491    0.802784
     60          1           0      -11.941328   -2.452329    1.323866
     61          1           0       -9.027083   -1.797349    0.538620
     62          1           0       -5.471206   -2.028113   -0.565532
     63          1           0       -5.643358   -1.857357    1.280526
     64          1           0       -7.115346   -2.695211    0.156173
     65          1           0       -7.199327    1.434429   -0.315507
     66          1           0       -4.550277    0.064385   -0.035854
     67          1           0       13.678930   -1.351372    2.201188
     68          1           0       12.103202   -2.241171    1.862014
     69          1           0       13.798759   -2.870447    0.416544
     70          1           0       13.265014   -2.282946   -1.650660
     71          1           0       11.615583   -2.695774   -0.802024
     72          1           0       11.379013    0.528922    3.388842
     73          1           0       10.468053    1.162431    2.401913
     74          1           0       10.368031   -0.639794    2.628896
     75          1           0       13.788045    1.069225    0.389993
     76          1           0       12.221996    2.141273    1.093447
     77          1           0       13.523290    1.400247    2.112133
     78          1           0       12.557003    0.152052   -2.998820
     79          1           0       11.583008    1.226034   -2.222457
     80          1           0       13.338995    0.894474   -1.400534
     81          1           0       -5.493029    2.901425   -0.443326
     82          1           0        9.923798   -0.328657   -2.361534
     83          1           0       15.041088   -0.814725    0.516257
     84          1           0        8.498352    2.013129   -0.080326
     85          1           0       -2.447688    4.585126   -0.063341
     86          1           0       -2.395832    4.105718   -1.669440
     87          1           0       -3.986401    4.690274   -1.061686
     88          1           0       -2.695414    0.769968   -0.434471
     89          1           0        6.720131   -2.211117    0.012483
     90          1           0        8.481546   -1.860738   -0.303509
     91          1           0        7.735190   -1.695775    1.400361
     92          1           0        6.442795    1.883052   -0.072129
     93          1           0       -0.416333    3.079848   -0.511666
     94          1           0        5.016990   -1.041814    0.284877
     95          1           0       -0.133940   -0.026230    0.335881
     96          1           0        3.953652    2.003592   -0.179450
     97          1           0        1.718619    2.332215   -0.261667
     98          1           0        1.226468   -1.449160    0.530799
     99          1           0        2.258399   -1.637414   -0.782528
    100          1           0        2.842611   -1.316675    0.968797
 ---------------------------------------------------------------------

 SCF Done:  E(RCAM-B3LYP) =  -1857.25911557     A.U. after   14 cycles

 Excitation energies and oscillator strengths:

 Excited State   1:      Singlet-A      2.4430 eV  507.50 nm  f=2.6598  <S**2>=0.000
     163 ->166        -0.14881
     164 ->165         0.68616
 This state for optimization and/or second-order correction.
 Total Energy, E(TD-HF/TD-DFT) =  -1857.16933597
 Copying the excited state density for this state as the 1-particle RhoCI density.

 The electronic state is 1-A.
 Alpha  occ. eigenvalues --  -19.23401 -19.22157 -19.22103 -19.20839 -10.31924
 Alpha  occ. eigenvalues --  -10.31837 -10.31525 -10.31321 -10.28903 -10.28623
 Alpha  occ. eigenvalues --  -10.28601 -10.28371 -10.28326 -10.28015 -10.27768
 Alpha  occ. eigenvalues --  -10.27682 -10.27675 -10.27627 -10.27520 -10.27421
 Alpha  occ. eigenvalues --  -10.27338 -10.27207 -10.27069 -10.27047 -10.26811
 Alpha  occ. eigenvalues --  -10.26695 -10.26543 -10.26513 -10.26380 -10.26288
 Alpha  occ. eigenvalues --  -10.26262 -10.26247 -10.26013 -10.25774 -10.25774
 Alpha  occ. eigenvalues --  -10.25731 -10.25113 -10.24943 -10.24804 -10.24674
 Alpha  occ. eigenvalues --  -10.24648 -10.24061 -10.22944 -10.22708  -1.15611
 Alpha  occ. eigenvalues --   -1.14681  -1.09700  -1.08057  -0.92911  -0.92318
 Alpha  occ. eigenvalues --   -0.91776  -0.91217  -0.90095  -0.89831  -0.87211
 Alpha  occ. eigenvalues --   -0.86836  -0.85966  -0.85335  -0.84411  -0.83151
 Alpha  occ. eigenvalues --   -0.82639  -0.81504  -0.80614  -0.78768  -0.77468
 Alpha  occ. eigenvalues --   -0.77101  -0.76893  -0.76614  -0.76129  -0.75895
 Alpha  occ. eigenvalues --   -0.75201  -0.74660  -0.73637  -0.71528  -0.69864
 Alpha  occ. eigenvalues --   -0.68918  -0.67171  -0.65904  -0.65056  -0.64578
 Alpha  occ. eigenvalues --   -0.63708  -0.62009  -0.60026  -0.59785  -0.59028
 Alpha  occ. eigenvalues --   -0.58899  -0.58619  -0.58119  -0.57079  -0.56434
 Alpha  occ. eigenvalues --   -0.55927  -0.55733  -0.55384  -0.54298  -0.54044
 Alpha  occ. eigenvalues --   -0.53793  -0.53631  -0.52611  -0.52063  -0.51994
 Alpha  occ. eigenvalues --   -0.51561  -0.51508  -0.51087  -0.50957  -0.50433
 Alpha  occ. eigenvalues --   -0.50212  -0.49722  -0.48865  -0.48743  -0.48478
 Alpha  occ. eigenvalues --   -0.48042  -0.47899  -0.47404  -0.47154  -0.46859
 Alpha  occ. eigenvalues --   -0.46716  -0.46605  -0.46313  -0.45904  -0.45675
 Alpha  occ. eigenvalues --   -0.45328  -0.44974  -0.44650  -0.44436  -0.44343
 Alpha  occ. eigenvalues --   -0.43881  -0.43564  -0.43144  -0.42713  -0.42552
 Alpha  occ. eigenvalues --   -0.42439  -0.41985  -0.41889  -0.41719  -0.41264
 Alpha  occ. eigenvalues --   -0.40981  -0.40732  -0.40499  -0.40398  -0.39549
 Alpha  occ. eigenvalues --   -0.39294  -0.38787  -0.38669  -0.38234  -0.38092
 Alpha  occ. eigenvalues --   -0.38045  -0.37572  -0.37512  -0.37132  -0.36791
 Alpha  occ. eigenvalues --   -0.36235  -0.35386  -0.34919  -0.34194  -0.33612
 Alpha  occ. eigenvalues --   -0.33354  -0.32259  -0.31944  -0.30797  -0.30508
 Alpha  occ. eigenvalues --   -0.28788  -0.28125  -0.24148  -0.20801
 Alpha virt. eigenvalues --   -0.05341  -0.00710   0.03084   0.05562   0.07261
 Alpha virt. eigenvalues --    0.09707   0.09781   0.10770   0.11074   0.11587
 Alpha virt. eigenvalues --    0.11849   0.12637   0.13104   0.13430   0.13548

 Mulliken charges:
               1
     1  O   -0.507560
     2  O   -0.567628
     3  O   -0.571412
     4  O   -0.504202
     5  C    0.185945
     6  C    0.249872
     7  C    0.031014
     8  C   -0.210763
     9  C   -0.195442
    10  C    0.217391
    11  C   -0.337453
    12  C   -0.115664
    13  C   -0.297747
    14  C   -0.317378
    15  C   -0.049042
    16  C    0.075214
    17  C   -0.358652
    18  C   -0.099418
    19  C   -0.069471
    20  C    0.006535
    21  C    0.273009
    22  C   -0.193905
    23  C    0.159050
    24  C   -0.176457
    25  C   -0.028073
    26  C   -0.285968
    27  C   -0.303039
    28  C   -0.295103
    29  C   -0.129440
    30  C    0.146634
    31  C    0.104144
    32  C   -0.322173
    33  C   -0.375053
    34  C   -0.109222
    35  C    0.141702
    36  C   -0.379272
    37  C   -0.108069
    38  C   -0.113912
    39  C   -0.098012
    40  C   -0.057119
    41  C   -0.110357
    42  C   -0.112751
    43  C    0.074020
    44  C   -0.359767
    45  H    0.103772
    46  H    0.118199
    47  H    0.100035
    48  H    0.065398
    49  H    0.087150
    50  H    0.093913
    51  H    0.115844
    52  H    0.120217
    53  H    0.111395
    54  H    0.100406
    55  H    0.106767
    56  H    0.077914
    57  H    0.090140
    58  H    0.109622
    59  H    0.113369
    60  H    0.310964
    61  H    0.071241
    62  H    0.095386
    63  H    0.126094
    64  H    0.099216
    65  H    0.072494
    66  H    0.071545
    67  H    0.043934
    68  H    0.105902
    69  H    0.025196
    70  H    0.106613
    71  H    0.121063
    72  H    0.099486
    73  H    0.098568
    74  H    0.095087
    75  H    0.083611
    76  H    0.107547
    77  H    0.101838
    78  H    0.113197
    79  H    0.084770
    80  H    0.116852
    81  H    0.064539
    82  H    0.304508
    83  H    0.309150
    84  H    0.099075
    85  H    0.133403
    86  H    0.121156
    87  H    0.117470
    88  H    0.091678
    89  H    0.121823
    90  H    0.148579
    91  H    0.100281
    92  H    0.085607
    93  H    0.083255
    94  H    0.056599
    95  H    0.061434
    96  H    0.079890
    97  H    0.065758
    98  H    0.114947
    99  H    0.135479
   100  H    0.135616
 Sum of Mulliken charges =  -0.00000

 Dipole moment (field-independent basis, Debye):
    X=              2.9386    Y=              0.8707    Z=              1.4854  Tot=              3.4059
 Quadrupole moment (field-independent basis, Debye-Ang):
   XX=           -282.9154   YY=           -260.6271   ZZ=           -277.0817
   XY=              5.0560   XZ=             25.5745   YZ=             -0.2676

 Normal termination of Gaussian 16 at Sun Jul 28 23:08:25 2019.
