 Gaussian 16, Revision A.03,
 Gaussian 16:  ES64L-G16RevA.03 25-Dec-2016

 -------------------------------------
 # td=(NStates=1) CAM-B3LYP/6-31G(d,p)
 -------------------------------------

 --
 TD
 --
 Symbolic Z-matrix:
 Charge =  0 Multiplicity = 1

                         Standard orientation:
 ---------------------------------------------------------------------
 Center     Atomic      Atomic             Coordinates (Angstroms)
 Number     Number       Type             X           Y           Z
 ---------------------------------------------------------------------
      1          8           0      -11.670478    0.185663   -1.648352
      2          8           0      -12.841516   -2.459625    1.398812
      3          8           0       10.522663   -0.996719   -2.102698
      4          8           0       14.475814   -1.140710   -0.040803
      5          6           0      -11.080027   -0.097518   -0.315549
      6          6           0      -11.555034   -1.169558   -1.204578
      7          6           0      -11.890091    0.460585    0.887829
      8          6           0      -12.908336   -1.872985   -0.879154
      9          6           0      -13.251807   -0.110750    0.881130
     10          6           0      -13.507132   -1.628795    0.420909
     11          6           0      -10.732680   -2.004227   -2.086703
     12          6           0       -9.587050    0.143537   -0.394403
     13          6           0      -11.162186    0.112721    2.187288
     14          6           0      -11.843288    1.954943    0.892594
     15          6           0       -8.805023   -0.768589    0.127068
     16          6           0       -7.315530   -0.619654    0.206887
     17          6           0       -6.441934   -1.851102    0.645050
     18          6           0       -6.754537    0.612603    0.077159
     19          6           0       -5.292746    0.878569    0.072264
     20          6           0       11.982092    0.108178    1.342530
     21          6           0       11.595093   -0.658790   -1.242094
     22          6           0       12.591123   -1.375058    1.537262
     23          6           0       13.324153   -1.830559    0.261815
     24          6           0       12.373718   -1.935305   -0.927927
     25          6           0       11.110229    0.023445    0.096637
     26          6           0       10.969079    0.190839    2.585111
     27          6           0       13.023789    1.191345    1.372643
     28          6           0       12.407321    0.464018   -2.016566
     29          6           0       -4.680122    2.118275   -0.242547
     30          6           0        9.915713    0.553380    0.021215
     31          6           0       -3.345715    2.565740   -0.387274
     32          6           0        8.673257    1.158550   -0.092909
     33          6           0       -2.920527    3.992700   -0.632958
     34          6           0       -2.341466    1.514671   -0.245720
     35          6           0        7.532776    0.211078    0.011471
     36          6           0        7.763475   -1.284860    0.278041
     37          6           0        6.309101    0.770876   -0.130028
     38          6           0       -1.017312    1.827888   -0.411249
     39          6           0        4.997505    0.204055    0.015463
     40          6           0        0.074600    0.862744   -0.331513
     41          6           0        3.814210    0.892681   -0.175718
     42          6           0        1.460167    1.236592   -0.334769
     43          6           0        2.548162    0.362247   -0.150595
     44          6           0        2.337785   -1.161211   -0.012370
     45          1           0      -12.968321   -2.946348   -1.308712
     46          1           0      -13.438972   -1.113540   -1.569886
     47          1           0      -13.804501    0.073932    1.823151
     48          1           0      -13.516210    0.454563    0.077504
     49          1           0      -14.447157   -1.970926    0.581423
     50          1           0      -10.593016   -3.128624   -1.768660
     51          1           0      -11.520699   -2.050802   -3.017515
     52          1           0       -9.741491   -1.567825   -2.338156
     53          1           0       -9.163897    0.886007   -1.078170
     54          1           0      -10.183747    0.482802    2.217614
     55          1           0      -11.781387    0.789983    3.149862
     56          1           0      -11.256163   -1.134617    2.277228
     57          1           0      -12.108494    2.292977   -0.186415
     58          1           0      -12.445932    2.480618    1.571621
     59          1           0      -10.673209    2.531527    1.105168
     60          1           0      -11.659104   -2.187681    1.447935
     61          1           0       -9.326359   -1.777796    0.656874
     62          1           0       -5.857332   -1.916305   -0.236861
     63          1           0       -5.915812   -1.592524    1.562397
     64          1           0       -7.047405   -2.703630    0.825038
     65          1           0       -7.325749    1.420393   -0.182418
     66          1           0       -4.757705    0.086696    0.440167
     67          1           0       13.288156   -1.316466    2.304705
     68          1           0       11.814240   -2.315263    1.866162
     69          1           0       13.766155   -2.768551    0.571352
     70          1           0       12.661809   -2.493335   -1.731941
     71          1           0       11.601227   -2.467063   -0.553408
     72          1           0       11.426028    0.186216    3.372908
     73          1           0       10.400151    1.171374    2.507467
     74          1           0       10.167925   -0.774472    2.522739
     75          1           0       13.712333    0.928600    0.663816
     76          1           0       12.482278    2.153164    1.010394
     77          1           0       13.531590    1.130422    2.219011
     78          1           0       12.628885    0.233318   -3.048345
     79          1           0       11.813121    1.305555   -2.106962
     80          1           0       13.404826    0.511875   -1.468734
     81          1           0       -5.281198    2.990025   -0.122282
     82          1           0        9.916621   -0.164308   -2.352364
     83          1           0       14.761399   -0.853818    0.946904
     84          1           0        8.669090    2.100959   -0.519541
     85          1           0       -2.403452    4.354719    0.215729
     86          1           0       -2.244285    3.963090   -1.568033
     87          1           0       -3.804988    4.648026   -0.921453
     88          1           0       -2.758826    0.563471    0.109622
     89          1           0        6.837353   -1.868034    0.252008
     90          1           0        8.526038   -1.587879   -0.455213
     91          1           0        8.110641   -1.472689    1.281013
     92          1           0        6.329360    1.935548   -0.172810
     93          1           0       -0.661622    2.850365   -0.577560
     94          1           0        4.907163   -0.831798    0.024641
     95          1           0       -0.169387   -0.114315   -0.189598
     96          1           0        3.801989    1.868074   -0.640145
     97          1           0        1.513281    2.240074   -0.693833
     98          1           0        1.334576   -1.356459   -0.145639
     99          1           0        2.981156   -1.663488   -0.803259
    100          1           0        2.352343   -1.464459    1.063341
 ---------------------------------------------------------------------

 SCF Done:  E(RCAM-B3LYP) =  -1857.22625315     A.U. after   15 cycles

 Excitation energies and oscillator strengths:

 Excited State   1:      Singlet-A      1.9542 eV  634.46 nm  f=2.8958  <S**2>=0.000
     163 ->166         0.12091
     164 ->165         0.70361
     164 <-165        -0.12449
 This state for optimization and/or second-order correction.
 Total Energy, E(TD-HF/TD-DFT) =  -1857.15443924
 Copying the excited state density for this state as the 1-particle RhoCI density.

 The electronic state is 1-A.
 Alpha  occ. eigenvalues --  -19.23107 -19.22237 -19.21785 -19.20869 -10.32592
 Alpha  occ. eigenvalues --  -10.32351 -10.32118 -10.30745 -10.30023 -10.29082
 Alpha  occ. eigenvalues --  -10.28076 -10.27913 -10.27897 -10.27751 -10.27720
 Alpha  occ. eigenvalues --  -10.27698 -10.27668 -10.27630 -10.27523 -10.27403
 Alpha  occ. eigenvalues --  -10.27135 -10.27048 -10.26793 -10.26781 -10.26778
 Alpha  occ. eigenvalues --  -10.26531 -10.26392 -10.26389 -10.26347 -10.26268
 Alpha  occ. eigenvalues --  -10.26141 -10.25996 -10.25992 -10.25945 -10.25860
 Alpha  occ. eigenvalues --  -10.25566 -10.25439 -10.25318 -10.25225 -10.24890
 Alpha  occ. eigenvalues --  -10.24651 -10.24394 -10.23933 -10.23444  -1.14536
 Alpha  occ. eigenvalues --   -1.11429  -1.08542  -1.05253  -0.92889  -0.92470
 Alpha  occ. eigenvalues --   -0.91882  -0.91241  -0.90405  -0.89897  -0.86679
 Alpha  occ. eigenvalues --   -0.86540  -0.86403  -0.85454  -0.84520  -0.82584
 Alpha  occ. eigenvalues --   -0.81484  -0.80857  -0.80270  -0.78478  -0.78212
 Alpha  occ. eigenvalues --   -0.77056  -0.76972  -0.76901  -0.76450  -0.76064
 Alpha  occ. eigenvalues --   -0.74970  -0.74053  -0.72796  -0.70790  -0.69445
 Alpha  occ. eigenvalues --   -0.68753  -0.67092  -0.65814  -0.64781  -0.64120
 Alpha  occ. eigenvalues --   -0.63663  -0.62952  -0.60671  -0.60123  -0.59133
 Alpha  occ. eigenvalues --   -0.58748  -0.58294  -0.57798  -0.57326  -0.56213
 Alpha  occ. eigenvalues --   -0.55727  -0.55426  -0.55037  -0.54461  -0.53713
 Alpha  occ. eigenvalues --   -0.53487  -0.53157  -0.52727  -0.52203  -0.52014
 Alpha  occ. eigenvalues --   -0.51306  -0.51220  -0.51025  -0.50524  -0.50293
 Alpha  occ. eigenvalues --   -0.50058  -0.49954  -0.49780  -0.49692  -0.49116
 Alpha  occ. eigenvalues --   -0.48745  -0.48240  -0.48104  -0.47846  -0.47166
 Alpha  occ. eigenvalues --   -0.46674  -0.46330  -0.46101  -0.45849  -0.45509
 Alpha  occ. eigenvalues --   -0.45241  -0.44768  -0.44580  -0.44429  -0.44226
 Alpha  occ. eigenvalues --   -0.43947  -0.43636  -0.43331  -0.43162  -0.42514
 Alpha  occ. eigenvalues --   -0.42393  -0.42133  -0.42028  -0.41582  -0.41126
 Alpha  occ. eigenvalues --   -0.40976  -0.40652  -0.40355  -0.40106  -0.39843
 Alpha  occ. eigenvalues --   -0.39699  -0.39524  -0.39468  -0.38915  -0.38470
 Alpha  occ. eigenvalues --   -0.38144  -0.37969  -0.37937  -0.37035  -0.36876
 Alpha  occ. eigenvalues --   -0.36462  -0.35689  -0.35124  -0.34462  -0.33584
 Alpha  occ. eigenvalues --   -0.32446  -0.32399  -0.31442  -0.30754  -0.30211
 Alpha  occ. eigenvalues --   -0.30002  -0.27942  -0.24351  -0.18726
 Alpha virt. eigenvalues --   -0.06589  -0.00230   0.03212   0.04642   0.06276
 Alpha virt. eigenvalues --    0.06991   0.08121   0.09586   0.11148   0.11416
 Alpha virt. eigenvalues --    0.12141   0.12418   0.12701   0.13567   0.14052

 Mulliken charges:
               1
     1  O   -0.520063
     2  O   -0.559366
     3  O   -0.580995
     4  O   -0.531912
     5  C    0.176261
     6  C    0.267248
     7  C    0.015094
     8  C   -0.209998
     9  C   -0.196623
    10  C    0.180500
    11  C   -0.318898
    12  C   -0.110303
    13  C   -0.247235
    14  C   -0.299856
    15  C   -0.065877
    16  C    0.020449
    17  C   -0.362574
    18  C   -0.083434
    19  C   -0.097292
    20  C   -0.002506
    21  C    0.262580
    22  C   -0.226412
    23  C    0.162789
    24  C   -0.181256
    25  C   -0.085320
    26  C   -0.265198
    27  C   -0.307653
    28  C   -0.315971
    29  C   -0.126744
    30  C    0.116413
    31  C    0.067362
    32  C   -0.231827
    33  C   -0.372215
    34  C   -0.081945
    35  C    0.087260
    36  C   -0.370847
    37  C   -0.111394
    38  C   -0.111052
    39  C   -0.101125
    40  C   -0.083808
    41  C   -0.099718
    42  C   -0.126649
    43  C    0.091743
    44  C   -0.364360
    45  H    0.103730
    46  H    0.119057
    47  H    0.102424
    48  H    0.114464
    49  H    0.110899
    50  H    0.101320
    51  H    0.099034
    52  H    0.122900
    53  H    0.120833
    54  H    0.130089
    55  H    0.058995
    56  H    0.041193
    57  H    0.111871
    58  H    0.123201
    59  H    0.064384
    60  H    0.270416
    61  H    0.059151
    62  H    0.139819
    63  H    0.130342
    64  H    0.111414
    65  H    0.075694
    66  H    0.079894
    67  H    0.085754
    68  H    0.090359
    69  H    0.077485
    70  H    0.117810
    71  H    0.123344
    72  H    0.096786
    73  H    0.097416
    74  H    0.077371
    75  H    0.126009
    76  H    0.111691
    77  H    0.105896
    78  H    0.105886
    79  H    0.091015
    80  H    0.121297
    81  H    0.074315
    82  H    0.316358
    83  H    0.303692
    84  H    0.117121
    85  H    0.142724
    86  H    0.123624
    87  H    0.107298
    88  H    0.091101
    89  H    0.107820
    90  H    0.140046
    91  H    0.125793
    92  H    0.068752
    93  H    0.084487
    94  H    0.082132
    95  H    0.070245
    96  H    0.082303
    97  H    0.080792
    98  H    0.115784
    99  H    0.125466
   100  H    0.123626
 Sum of Mulliken charges =  -0.00000

 Dipole moment (field-independent basis, Debye):
    X=              3.8352    Y=              0.8027    Z=              1.9066  Tot=              4.3576
 Quadrupole moment (field-independent basis, Debye-Ang):
   XX=           -281.7544   YY=           -260.6992   ZZ=           -277.2037
   XY=             -2.4475   XZ=             29.8987   YZ=             -1.7801

 Normal termination of Gaussian 16 at Wed Jul 31 22:07:41 2019.
