 Gaussian 16, Revision A.03,
 Gaussian 16:  ES64L-G16RevA.03 25-Dec-2016

 -------------------------------------
 # td=(NStates=1) CAM-B3LYP/6-31G(d,p)
 -------------------------------------

 --
 TD
 --
 Symbolic Z-matrix:
 Charge =  0 Multiplicity = 1

                         Standard orientation:
 ---------------------------------------------------------------------
 Center     Atomic      Atomic             Coordinates (Angstroms)
 Number     Number       Type             X           Y           Z
 ---------------------------------------------------------------------
      1          8           0      -11.457767    0.082431   -1.668015
      2          8           0      -13.251520   -2.410754    1.304667
      3          8           0       10.559426   -0.838346   -2.156000
      4          8           0       14.420810   -0.911678   -0.133166
      5          6           0      -10.904121   -0.137829   -0.348953
      6          6           0      -11.542086   -1.275611   -1.231200
      7          6           0      -11.777677    0.436094    0.866084
      8          6           0      -12.980865   -1.687133   -1.044925
      9          6           0      -13.205588    0.057012    0.731175
     10          6           0      -13.625703   -1.474201    0.255013
     11          6           0      -10.708868   -2.130955   -2.114875
     12          6           0       -9.520929    0.056435   -0.331969
     13          6           0      -11.086539   -0.083690    2.161400
     14          6           0      -11.707929    2.016938    0.840062
     15          6           0       -8.658375   -0.757031    0.365835
     16          6           0       -7.154151   -0.623250    0.280193
     17          6           0       -6.240507   -1.836416    0.635609
     18          6           0       -6.635442    0.574104    0.015163
     19          6           0       -5.140592    0.893858    0.018181
     20          6           0       11.822618   -0.089362    1.309846
     21          6           0       11.641799   -0.548401   -1.208163
     22          6           0       12.559095   -1.408309    1.404689
     23          6           0       13.412573   -1.807285    0.114925
     24          6           0       12.488072   -1.800583   -1.010425
     25          6           0       10.959290   -0.097427    0.083514
     26          6           0       11.016865   -0.003331    2.586012
     27          6           0       12.889058    1.078699    1.421725
     28          6           0       12.529563    0.549600   -1.911360
     29          6           0       -4.721388    2.140330   -0.257715
     30          6           0        9.846402    0.524057    0.030718
     31          6           0       -3.438496    2.455243   -0.345990
     32          6           0        8.657908    0.939842   -0.202565
     33          6           0       -3.078259    3.893116   -0.733830
     34          6           0       -2.386542    1.570878   -0.228112
     35          6           0        7.459783    0.146797   -0.138345
     36          6           0        7.578334   -1.263010    0.187266
     37          6           0        6.239895    0.768892   -0.265969
     38          6           0       -1.022956    1.891588   -0.242207
     39          6           0        4.971793    0.146670   -0.093300
     40          6           0        0.023610    1.061216   -0.020112
     41          6           0        3.768515    0.913383   -0.154215
     42          6           0        1.417064    1.314230   -0.217085
     43          6           0        2.473786    0.355538    0.049907
     44          6           0        2.266359   -1.058401    0.506791
     45          1           0      -13.083154   -2.829688   -1.099682
     46          1           0      -13.553953   -1.352699   -2.023311
     47          1           0      -13.927984    0.367766    1.673955
     48          1           0      -13.804090    0.761069    0.119207
     49          1           0      -14.674643   -1.379244    0.309112
     50          1           0      -10.442307   -3.026874   -1.538453
     51          1           0      -11.227075   -2.339240   -3.023443
     52          1           0       -9.640528   -1.730348   -2.467895
     53          1           0       -9.215660    0.861182   -1.049640
     54          1           0      -10.007235    0.148905    2.228350
     55          1           0      -11.541030    0.401158    3.075631
     56          1           0      -11.010330   -1.166923    2.489635
     57          1           0      -12.000283    2.421656   -0.168869
     58          1           0      -12.545736    2.239510    1.636973
     59          1           0      -10.652901    2.607990    0.929629
     60          1           0      -12.179186   -2.406854    1.359569
     61          1           0       -8.950243   -1.615138    0.930769
     62          1           0       -5.582927   -1.970463   -0.071406
     63          1           0       -5.694198   -1.686765    1.579322
     64          1           0       -6.895226   -2.730474    0.658283
     65          1           0       -7.103027    1.313933   -0.086989
     66          1           0       -4.452921   -0.023562    0.383380
     67          1           0       13.087440   -1.175422    2.166427
     68          1           0       11.869974   -2.077183    1.601510
     69          1           0       13.603567   -2.822159    0.170771
     70          1           0       13.046565   -2.257466   -1.954441
     71          1           0       11.716921   -2.482812   -1.030579
     72          1           0       11.597339   -0.178944    3.392150
     73          1           0       10.484762    1.010913    2.639425
     74          1           0       10.267317   -0.896506    2.680295
     75          1           0       13.551981    1.122498    0.660738
     76          1           0       12.313546    1.929871    1.624772
     77          1           0       13.554158    0.992886    2.317520
     78          1           0       12.655719    0.336430   -2.996546
     79          1           0       12.024767    1.385176   -1.890738
     80          1           0       13.362527    0.679069   -1.278888
     81          1           0       -5.594949    2.970302   -0.384021
     82          1           0        9.971335   -0.151343   -2.173311
     83          1           0       14.992463   -0.912809    0.683375
     84          1           0        8.586738    1.855262   -0.348204
     85          1           0       -2.750748    4.359133    0.306324
     86          1           0       -2.108566    4.200570   -1.461491
     87          1           0       -3.939675    4.480621   -0.856397
     88          1           0       -2.637369    0.588188    0.206601
     89          1           0        6.712531   -1.930098    0.039761
     90          1           0        8.415075   -1.797849   -0.386039
     91          1           0        7.984845   -1.403437    1.211735
     92          1           0        6.174978    1.701806   -0.494675
     93          1           0       -0.758132    2.884724   -0.551355
     94          1           0        5.052510   -0.915092    0.082138
     95          1           0       -0.319024    0.049383    0.077414
     96          1           0        3.775342    1.888512   -0.482529
     97          1           0        1.808958    2.380439   -0.428073
     98          1           0        1.212059   -1.282469    0.381455
     99          1           0        2.720617   -1.672725   -0.215087
    100          1           0        2.669265   -1.311351    1.489192
 ---------------------------------------------------------------------

 SCF Done:  E(RCAM-B3LYP) =  -1857.27404638     A.U. after   15 cycles

 Excitation energies and oscillator strengths:

 Excited State   1:      Singlet-A      2.2266 eV  556.84 nm  f=3.0848  <S**2>=0.000
     163 ->166        -0.13898
     164 ->165         0.69284
 This state for optimization and/or second-order correction.
 Total Energy, E(TD-HF/TD-DFT) =  -1857.19222112
 Copying the excited state density for this state as the 1-particle RhoCI density.

 The electronic state is 1-A.
 Alpha  occ. eigenvalues --  -19.23415 -19.22087 -19.21449 -19.18909 -10.32212
 Alpha  occ. eigenvalues --  -10.31956 -10.31334 -10.31298 -10.30269 -10.29159
 Alpha  occ. eigenvalues --  -10.27849 -10.27800 -10.27702 -10.27595 -10.27474
 Alpha  occ. eigenvalues --  -10.27254 -10.27109 -10.27099 -10.27025 -10.27007
 Alpha  occ. eigenvalues --  -10.26883 -10.26779 -10.26747 -10.26299 -10.26226
 Alpha  occ. eigenvalues --  -10.26015 -10.25983 -10.25749 -10.25741 -10.25739
 Alpha  occ. eigenvalues --  -10.25717 -10.25493 -10.25401 -10.25314 -10.25222
 Alpha  occ. eigenvalues --  -10.25202 -10.24826 -10.24790 -10.24358 -10.24196
 Alpha  occ. eigenvalues --  -10.24110 -10.23707 -10.22437 -10.21534  -1.14294
 Alpha  occ. eigenvalues --   -1.12490  -1.08511  -1.06904  -0.94167  -0.93126
 Alpha  occ. eigenvalues --   -0.92274  -0.91250  -0.90498  -0.89715  -0.87638
 Alpha  occ. eigenvalues --   -0.87029  -0.86946  -0.86201  -0.84798  -0.83234
 Alpha  occ. eigenvalues --   -0.81967  -0.80868  -0.80690  -0.78562  -0.78223
 Alpha  occ. eigenvalues --   -0.77642  -0.76949  -0.76806  -0.76299  -0.76139
 Alpha  occ. eigenvalues --   -0.74730  -0.74231  -0.73109  -0.71351  -0.70316
 Alpha  occ. eigenvalues --   -0.69212  -0.67104  -0.65260  -0.65024  -0.63654
 Alpha  occ. eigenvalues --   -0.63411  -0.62637  -0.61965  -0.61524  -0.60613
 Alpha  occ. eigenvalues --   -0.60155  -0.58962  -0.58411  -0.57957  -0.56646
 Alpha  occ. eigenvalues --   -0.56360  -0.56129  -0.55561  -0.55144  -0.54872
 Alpha  occ. eigenvalues --   -0.54225  -0.53533  -0.52764  -0.52652  -0.51708
 Alpha  occ. eigenvalues --   -0.51542  -0.51253  -0.50430  -0.49986  -0.49697
 Alpha  occ. eigenvalues --   -0.49543  -0.49418  -0.48946  -0.48886  -0.48546
 Alpha  occ. eigenvalues --   -0.48366  -0.47975  -0.47646  -0.47293  -0.47093
 Alpha  occ. eigenvalues --   -0.46933  -0.46368  -0.46297  -0.46191  -0.45691
 Alpha  occ. eigenvalues --   -0.45221  -0.44764  -0.44595  -0.44319  -0.44294
 Alpha  occ. eigenvalues --   -0.43674  -0.43615  -0.43529  -0.43188  -0.42968
 Alpha  occ. eigenvalues --   -0.42651  -0.42007  -0.41642  -0.41497  -0.41371
 Alpha  occ. eigenvalues --   -0.41131  -0.41067  -0.40465  -0.40100  -0.39877
 Alpha  occ. eigenvalues --   -0.39654  -0.39423  -0.39311  -0.38858  -0.38613
 Alpha  occ. eigenvalues --   -0.38375  -0.38020  -0.37743  -0.37321  -0.37088
 Alpha  occ. eigenvalues --   -0.36845  -0.36382  -0.35499  -0.34667  -0.33507
 Alpha  occ. eigenvalues --   -0.32737  -0.32122  -0.31544  -0.31265  -0.30397
 Alpha  occ. eigenvalues --   -0.29896  -0.27941  -0.24486  -0.19392
 Alpha virt. eigenvalues --   -0.05544  -0.00544   0.03099   0.06220   0.07308
 Alpha virt. eigenvalues --    0.09170   0.10552   0.10744   0.11412   0.11830
 Alpha virt. eigenvalues --    0.12322   0.12954   0.13322   0.13863   0.14435

 Mulliken charges:
               1
     1  O   -0.514691
     2  O   -0.553185
     3  O   -0.576549
     4  O   -0.526695
     5  C    0.203618
     6  C    0.227378
     7  C    0.058001
     8  C   -0.200469
     9  C   -0.222628
    10  C    0.160824
    11  C   -0.326935
    12  C   -0.099933
    13  C   -0.322725
    14  C   -0.313459
    15  C   -0.090282
    16  C    0.030273
    17  C   -0.367469
    18  C   -0.018401
    19  C   -0.086199
    20  C   -0.028740
    21  C    0.225254
    22  C   -0.156651
    23  C    0.162074
    24  C   -0.198860
    25  C   -0.023579
    26  C   -0.300063
    27  C   -0.305411
    28  C   -0.293894
    29  C   -0.132867
    30  C    0.101128
    31  C    0.134568
    32  C   -0.227682
    33  C   -0.374161
    34  C   -0.123776
    35  C    0.146837
    36  C   -0.408194
    37  C   -0.080110
    38  C   -0.061068
    39  C   -0.098036
    40  C   -0.095947
    41  C   -0.111962
    42  C   -0.143493
    43  C    0.109017
    44  C   -0.370155
    45  H    0.103499
    46  H    0.117837
    47  H    0.069235
    48  H    0.106437
    49  H    0.114467
    50  H    0.100969
    51  H    0.121801
    52  H    0.111072
    53  H    0.120558
    54  H    0.118243
    55  H    0.101383
    56  H    0.082214
    57  H    0.123212
    58  H    0.098784
    59  H    0.090646
    60  H    0.305944
    61  H    0.085146
    62  H    0.142428
    63  H    0.126553
    64  H    0.100447
    65  H    0.023820
    66  H    0.085394
    67  H    0.070002
    68  H    0.093259
    69  H    0.087822
    70  H    0.093297
    71  H    0.121453
    72  H    0.107516
    73  H    0.100322
    74  H    0.083753
    75  H    0.125806
    76  H    0.105368
    77  H    0.079797
    78  H    0.109452
    79  H    0.089261
    80  H    0.128391
    81  H    0.090048
    82  H    0.295196
    83  H    0.314627
    84  H    0.081077
    85  H    0.106663
    86  H    0.111776
    87  H    0.110496
    88  H    0.065377
    89  H    0.111787
    90  H    0.126231
    91  H    0.122313
    92  H    0.055830
    93  H    0.067974
    94  H    0.077330
    95  H    0.075045
    96  H    0.081310
    97  H    0.082691
    98  H    0.111881
    99  H    0.130042
   100  H    0.132011
 Sum of Mulliken charges =  -0.00000

 Dipole moment (field-independent basis, Debye):
    X=              2.4150    Y=             -0.2909    Z=              2.6491  Tot=              3.5965
 Quadrupole moment (field-independent basis, Debye-Ang):
   XX=           -267.6797   YY=           -257.9402   ZZ=           -279.0308
   XY=             -7.3853   XZ=             37.9526   YZ=             -3.3504

 Normal termination of Gaussian 16 at Thu Aug  1 23:17:25 2019.
