 Gaussian 16, Revision A.03,
 Gaussian 16:  ES64L-G16RevA.03 25-Dec-2016

 -------------------------------------
 # td=(NStates=1) CAM-B3LYP/6-31G(d,p)
 -------------------------------------

 --
 TD
 --
 Symbolic Z-matrix:
 Charge =  0 Multiplicity = 1

                         Standard orientation:
 ---------------------------------------------------------------------
 Center     Atomic      Atomic             Coordinates (Angstroms)
 Number     Number       Type             X           Y           Z
 ---------------------------------------------------------------------
      1          8           0      -11.633561   -0.096035   -1.651114
      2          8           0      -12.978392   -2.055504    1.703560
      3          8           0       10.518169   -1.352066   -1.929734
      4          8           0       14.553792   -1.199972   -0.074846
      5          6           0      -11.119207   -0.226320   -0.407001
      6          6           0      -11.674205   -1.428909   -1.119713
      7          6           0      -11.687159    0.579089    0.630688
      8          6           0      -13.052687   -1.920543   -0.708940
      9          6           0      -13.241028    0.269096    0.739189
     10          6           0      -13.483342   -1.278294    0.657581
     11          6           0      -10.807921   -2.274640   -1.863820
     12          6           0       -9.611742    0.005141   -0.425509
     13          6           0      -11.103919    0.425753    2.079780
     14          6           0      -11.588408    2.131188    0.414126
     15          6           0       -8.694644   -0.844215    0.186201
     16          6           0       -7.272827   -0.743945    0.160231
     17          6           0       -6.456412   -1.942911    0.570206
     18          6           0       -6.672718    0.482066   -0.125494
     19          6           0       -5.239179    0.791715   -0.160840
     20          6           0       11.956889    0.279997    1.188619
     21          6           0       11.531685   -0.764928   -1.269241
     22          6           0       12.670636   -1.068872    1.528475
     23          6           0       13.325869   -1.758573    0.428464
     24          6           0       12.365158   -1.999527   -0.798439
     25          6           0       11.053170    0.133402   -0.036206
     26          6           0       11.091949    0.766604    2.370692
     27          6           0       13.016382    1.320364    0.971948
     28          6           0       12.370774    0.066542   -2.252667
     29          6           0       -4.792369    2.008127   -0.539885
     30          6           0        9.893902    0.620261   -0.153762
     31          6           0       -3.367632    2.328879   -0.575955
     32          6           0        8.660962    0.896957   -0.371436
     33          6           0       -2.958625    3.812199   -0.947477
     34          6           0       -2.350830    1.436044   -0.190037
     35          6           0        7.472866    0.197260   -0.022142
     36          6           0        7.636809   -1.223805    0.616792
     37          6           0        6.260431    0.807098   -0.203975
     38          6           0       -0.950273    1.830962   -0.358786
     39          6           0        4.946351    0.181403    0.161782
     40          6           0        0.011222    0.859835    0.021903
     41          6           0        3.770118    0.828766   -0.115074
     42          6           0        1.367382    1.187409   -0.121352
     43          6           0        2.407438    0.343588    0.228290
     44          6           0        2.265486   -1.003700    0.709277
     45          1           0      -13.151253   -3.004982   -0.579887
     46          1           0      -13.604817   -1.492659   -1.776830
     47          1           0      -13.838506    0.764560    1.571255
     48          1           0      -13.492114    0.729519   -0.460198
     49          1           0      -14.545845   -1.314005    0.854386
     50          1           0      -10.393599   -3.081343   -1.350450
     51          1           0      -11.073131   -2.714643   -2.895375
     52          1           0      -10.016767   -1.729146   -1.995734
     53          1           0       -9.134487    0.756509   -1.089027
     54          1           0       -9.883683    0.729846    2.073115
     55          1           0      -11.572130    0.934920    2.885279
     56          1           0      -11.165896   -0.575843    2.546953
     57          1           0      -11.899377    2.572457   -0.580134
     58          1           0      -12.104928    2.725054    1.193400
     59          1           0      -10.440738    2.381503    0.758877
     60          1           0      -12.093039   -2.127437    1.804595
     61          1           0       -8.922166   -2.039662    0.524313
     62          1           0       -5.783310   -2.407503   -0.352351
     63          1           0       -5.863794   -1.916263    1.614758
     64          1           0       -7.244147   -2.654949    0.945537
     65          1           0       -7.577572    1.426150    0.011526
     66          1           0       -4.485584   -0.044694   -0.130472
     67          1           0       13.508296   -0.631697    2.292371
     68          1           0       11.914129   -1.678463    2.171783
     69          1           0       13.631985   -2.883171    0.813379
     70          1           0       12.946011   -2.475656   -1.525765
     71          1           0       11.705393   -2.688255   -0.386165
     72          1           0       11.631065    0.579414    3.399543
     73          1           0       10.563314    1.723102    2.271623
     74          1           0       10.219435   -0.040251    2.466178
     75          1           0       13.897545    1.222258    0.234506
     76          1           0       12.567428    2.339825    0.679541
     77          1           0       13.497028    1.713213    1.859714
     78          1           0       12.551713   -0.273111   -3.186048
     79          1           0       11.989697    1.115900   -2.282179
     80          1           0       13.106725    0.449866   -1.697311
     81          1           0       -5.393884    2.907285   -0.791170
     82          1           0        9.869156   -0.831937   -2.183957
     83          1           0       15.488147   -1.292361    0.485126
     84          1           0        8.436016    1.814859   -0.696314
     85          1           0       -2.333707    4.356082   -0.010371
     86          1           0       -2.076435    3.814838   -1.648784
     87          1           0       -4.065656    4.199850   -1.086794
     88          1           0       -2.568817    0.504413    0.130397
     89          1           0        6.797193   -2.034445    0.162875
     90          1           0        8.803892   -1.538101    0.286633
     91          1           0        7.608012   -1.301633    1.718338
     92          1           0        6.053368    1.711794   -0.856497
     93          1           0       -0.536702    2.874553   -0.705961
     94          1           0        5.082231   -0.645000    0.824791
     95          1           0       -0.222168   -0.231700    0.176032
     96          1           0        3.766029    1.961849   -0.419871
     97          1           0        1.708276    2.282754   -0.496397
     98          1           0        1.111337   -1.139318    0.646120
     99          1           0        2.937786   -1.775725    0.155302
    100          1           0        2.710870   -1.063175    1.863907
 ---------------------------------------------------------------------

 SCF Done:  E(RCAM-B3LYP) =  -1857.18309178     A.U. after   15 cycles

 Excitation energies and oscillator strengths:

 Excited State   1:      Singlet-A      2.3316 eV  531.75 nm  f=2.7435  <S**2>=0.000
     163 ->166         0.14834
     164 ->165         0.68646
 This state for optimization and/or second-order correction.
 Total Energy, E(TD-HF/TD-DFT) =  -1857.09740546
 Copying the excited state density for this state as the 1-particle RhoCI density.

 The electronic state is 1-A.
 Alpha  occ. eigenvalues --  -19.22596 -19.21721 -19.20840 -19.19792 -10.32387
 Alpha  occ. eigenvalues --  -10.32061 -10.32036 -10.31891 -10.31030 -10.28655
 Alpha  occ. eigenvalues --  -10.28580 -10.28562 -10.28547 -10.28321 -10.28289
 Alpha  occ. eigenvalues --  -10.28169 -10.27990 -10.27971 -10.27801 -10.27724
 Alpha  occ. eigenvalues --  -10.27714 -10.27603 -10.27509 -10.27478 -10.27334
 Alpha  occ. eigenvalues --  -10.27324 -10.27301 -10.27285 -10.27222 -10.27152
 Alpha  occ. eigenvalues --  -10.26903 -10.26660 -10.26422 -10.26419 -10.26394
 Alpha  occ. eigenvalues --  -10.26164 -10.26043 -10.25976 -10.25483 -10.25148
 Alpha  occ. eigenvalues --  -10.24696 -10.23823 -10.23318 -10.21454  -1.18764
 Alpha  occ. eigenvalues --   -1.13404  -1.11406  -1.06510  -0.93128  -0.92036
 Alpha  occ. eigenvalues --   -0.91595  -0.90866  -0.90557  -0.89710  -0.87192
 Alpha  occ. eigenvalues --   -0.87001  -0.85711  -0.85514  -0.84066  -0.83141
 Alpha  occ. eigenvalues --   -0.82040  -0.80755  -0.80188  -0.77578  -0.76893
 Alpha  occ. eigenvalues --   -0.76117  -0.76030  -0.75356  -0.74998  -0.74751
 Alpha  occ. eigenvalues --   -0.74588  -0.74289  -0.72643  -0.71063  -0.70172
 Alpha  occ. eigenvalues --   -0.68469  -0.67093  -0.65907  -0.65710  -0.64791
 Alpha  occ. eigenvalues --   -0.63234  -0.61717  -0.60444  -0.60247  -0.59704
 Alpha  occ. eigenvalues --   -0.59326  -0.57790  -0.57132  -0.56819  -0.56629
 Alpha  occ. eigenvalues --   -0.55748  -0.55692  -0.55377  -0.54518  -0.54066
 Alpha  occ. eigenvalues --   -0.53686  -0.52718  -0.52270  -0.52142  -0.51747
 Alpha  occ. eigenvalues --   -0.51457  -0.51058  -0.50602  -0.49991  -0.49693
 Alpha  occ. eigenvalues --   -0.49472  -0.48304  -0.48000  -0.47675  -0.47435
 Alpha  occ. eigenvalues --   -0.47212  -0.47167  -0.46847  -0.46782  -0.46473
 Alpha  occ. eigenvalues --   -0.46402  -0.46258  -0.45417  -0.45307  -0.44901
 Alpha  occ. eigenvalues --   -0.44702  -0.44381  -0.44156  -0.43842  -0.43789
 Alpha  occ. eigenvalues --   -0.43472  -0.42991  -0.42921  -0.42344  -0.42059
 Alpha  occ. eigenvalues --   -0.41899  -0.41320  -0.41055  -0.40853  -0.40803
 Alpha  occ. eigenvalues --   -0.40170  -0.40117  -0.39897  -0.39432  -0.39424
 Alpha  occ. eigenvalues --   -0.39150  -0.39074  -0.38835  -0.38722  -0.38467
 Alpha  occ. eigenvalues --   -0.37933  -0.37795  -0.37611  -0.36800  -0.36437
 Alpha  occ. eigenvalues --   -0.35279  -0.34753  -0.34625  -0.34408  -0.34168
 Alpha  occ. eigenvalues --   -0.32525  -0.32193  -0.31811  -0.31320  -0.30889
 Alpha  occ. eigenvalues --   -0.30029  -0.27265  -0.24454  -0.20391
 Alpha virt. eigenvalues --   -0.05536  -0.01139   0.02361   0.06127   0.08047
 Alpha virt. eigenvalues --    0.08321   0.09249   0.10143   0.10431   0.10781
 Alpha virt. eigenvalues --    0.11422   0.11497   0.11997   0.12833   0.13021

 Mulliken charges:
               1
     1  O   -0.489623
     2  O   -0.537134
     3  O   -0.520745
     4  O   -0.576935
     5  C    0.252326
     6  C    0.233333
     7  C    0.012416
     8  C   -0.196255
     9  C   -0.205163
    10  C    0.172512
    11  C   -0.331506
    12  C   -0.161577
    13  C   -0.301912
    14  C   -0.295817
    15  C   -0.071722
    16  C    0.103409
    17  C   -0.359083
    18  C   -0.125828
    19  C   -0.098704
    20  C    0.030596
    21  C    0.268485
    22  C   -0.168866
    23  C    0.168794
    24  C   -0.169777
    25  C   -0.115345
    26  C   -0.312751
    27  C   -0.317364
    28  C   -0.306870
    29  C   -0.077664
    30  C    0.188704
    31  C    0.054524
    32  C   -0.282134
    33  C   -0.348163
    34  C   -0.091051
    35  C    0.139343
    36  C   -0.369084
    37  C   -0.136364
    38  C   -0.096227
    39  C   -0.099416
    40  C   -0.103880
    41  C   -0.118555
    42  C   -0.111127
    43  C    0.126244
    44  C   -0.355075
    45  H    0.115362
    46  H    0.091928
    47  H    0.098847
    48  H    0.083491
    49  H    0.102547
    50  H    0.106926
    51  H    0.108414
    52  H    0.133766
    53  H    0.125095
    54  H    0.081891
    55  H    0.115676
    56  H    0.075990
    57  H    0.113171
    58  H    0.112100
    59  H    0.073877
    60  H    0.294670
    61  H    0.052598
    62  H    0.110632
    63  H    0.112139
    64  H    0.099862
    65  H    0.071885
    66  H    0.102951
    67  H    0.074255
    68  H    0.096958
    69  H    0.049589
    70  H    0.119307
    71  H    0.114265
    72  H    0.089563
    73  H    0.123014
    74  H    0.084144
    75  H    0.126482
    76  H    0.081509
    77  H    0.101084
    78  H    0.115150
    79  H    0.075582
    80  H    0.123406
    81  H    0.086920
    82  H    0.281395
    83  H    0.313564
    84  H    0.096205
    85  H    0.097827
    86  H    0.131263
    87  H    0.098392
    88  H    0.076339
    89  H    0.091887
    90  H    0.104178
    91  H    0.126907
    92  H    0.082186
    93  H    0.093874
    94  H    0.092819
    95  H    0.101448
    96  H    0.077696
    97  H    0.075418
    98  H    0.089113
    99  H    0.123686
   100  H    0.101790
 Sum of Mulliken charges =  -0.00000

 Dipole moment (field-independent basis, Debye):
    X=              2.1607    Y=             -0.1919    Z=              2.0034  Tot=              2.9528
 Quadrupole moment (field-independent basis, Debye-Ang):
   XX=           -273.8210   YY=           -262.3998   ZZ=           -276.6788
   XY=              3.1494   XZ=             20.8907   YZ=             -4.3055

 Normal termination of Gaussian 16 at Fri Aug  2 01:07:24 2019.
