 Gaussian 16, Revision A.03,
 Gaussian 16:  ES64L-G16RevA.03 25-Dec-2016

 -------------------------------------
 # td=(NStates=1) CAM-B3LYP/6-31G(d,p)
 -------------------------------------

 --
 TD
 --
 Symbolic Z-matrix:
 Charge =  0 Multiplicity = 1

                         Standard orientation:
 ---------------------------------------------------------------------
 Center     Atomic      Atomic             Coordinates (Angstroms)
 Number     Number       Type             X           Y           Z
 ---------------------------------------------------------------------
      1          8           0      -11.799745    0.327940   -1.442080
      2          8           0      -12.935688   -2.547746    1.407229
      3          8           0       10.565160   -1.164811   -2.063973
      4          8           0       14.579973   -1.107446   -0.137327
      5          6           0      -11.061139   -0.108572   -0.235732
      6          6           0      -11.587432   -1.100660   -1.198538
      7          6           0      -11.770326    0.260574    1.088648
      8          6           0      -12.953524   -1.698438   -0.952408
      9          6           0      -13.234716   -0.051793    0.979715
     10          6           0      -13.498199   -1.646957    0.509732
     11          6           0      -10.891709   -1.832379   -2.394586
     12          6           0       -9.497590    0.137610   -0.473952
     13          6           0      -11.019670   -0.240217    2.248320
     14          6           0      -11.750169    1.829296    1.193235
     15          6           0       -8.573915   -0.750001    0.032532
     16          6           0       -7.139037   -0.624947    0.064438
     17          6           0       -6.344758   -1.720205    0.356806
     18          6           0       -6.628236    0.673097   -0.025568
     19          6           0       -5.209488    0.890230   -0.083401
     20          6           0       11.910936    0.001995    1.343901
     21          6           0       11.589376   -0.650035   -1.183372
     22          6           0       12.620651   -1.290465    1.450376
     23          6           0       13.449119   -1.820376    0.247203
     24          6           0       12.370163   -1.919272   -0.853835
     25          6           0       11.074935    0.042865    0.045896
     26          6           0       11.022410    0.272068    2.631439
     27          6           0       12.861029    1.211740    1.435624
     28          6           0       12.459578    0.468663   -1.990372
     29          6           0       -4.749494    2.156998   -0.418863
     30          6           0        9.863150    0.466450    0.002030
     31          6           0       -3.303493    2.504951   -0.460442
     32          6           0        8.647818    0.947173   -0.185516
     33          6           0       -3.048370    4.064322   -0.628271
     34          6           0       -2.345603    1.670475   -0.205496
     35          6           0        7.412208    0.176212   -0.075895
     36          6           0        7.592212   -1.258184    0.178211
     37          6           0        6.161740    0.917593   -0.132212
     38          6           0       -0.967594    1.911335   -0.321386
     39          6           0        4.928234    0.182961    0.024439
     40          6           0        0.038996    0.907944   -0.280405
     41          6           0        3.758753    0.881244   -0.201603
     42          6           0        1.358277    1.209800   -0.332088
     43          6           0        2.398253    0.378737   -0.135662
     44          6           0        2.264673   -1.160011    0.242441
     45          1           0      -12.824908   -2.908353   -1.075638
     46          1           0      -13.730299   -1.451152   -1.615332
     47          1           0      -13.672748   -0.101333    1.918618
     48          1           0      -13.624065    0.568417    0.224365
     49          1           0      -14.619525   -1.744830    0.443643
     50          1           0      -10.777685   -2.862230   -2.090354
     51          1           0      -11.505384   -1.688309   -3.136835
     52          1           0      -10.025069   -1.288649   -2.609411
     53          1           0       -9.164543    1.127630   -0.964216
     54          1           0       -9.955531    0.156360    2.290125
     55          1           0      -11.628812   -0.202008    3.292880
     56          1           0      -10.821510   -1.228859    2.133571
     57          1           0      -12.244898    2.323961    0.181511
     58          1           0      -12.238122    2.338696    2.048832
     59          1           0      -10.682418    2.165593    1.277726
     60          1           0      -12.034764   -2.934308    1.112920
     61          1           0       -9.013116   -1.596925    0.633992
     62          1           0       -5.757562   -2.253146   -0.546250
     63          1           0       -5.525929   -1.532752    1.092171
     64          1           0       -6.950769   -2.614739    0.731711
     65          1           0       -7.373079    1.604492   -0.343250
     66          1           0       -4.496342    0.116165   -0.083926
     67          1           0       13.440811   -1.081700    2.240979
     68          1           0       12.166274   -2.223018    1.801005
     69          1           0       13.839520   -2.615104    0.447540
     70          1           0       12.653355   -2.187123   -1.736583
     71          1           0       11.725464   -2.682526   -0.368526
     72          1           0       11.657470    0.235496    3.567490
     73          1           0       10.417711    1.236131    2.577387
     74          1           0       10.358251   -0.562137    2.858015
     75          1           0       13.697750    1.173004    0.771717
     76          1           0       12.422421    2.063577    1.351865
     77          1           0       13.146635    1.282351    2.480261
     78          1           0       12.605126   -0.234108   -3.009427
     79          1           0       11.723374    1.278444   -2.255953
     80          1           0       13.442309    0.777791   -1.467932
     81          1           0       -5.377553    2.952399   -0.437748
     82          1           0       10.374817   -0.062366   -2.360130
     83          1           0       15.109750   -1.316619    0.528496
     84          1           0        8.621475    1.757593   -0.570466
     85          1           0       -2.246625    4.318976    0.180507
     86          1           0       -2.594652    4.211222   -1.560772
     87          1           0       -3.967476    4.688015   -0.592499
     88          1           0       -2.598962    0.552879   -0.113031
     89          1           0        6.803842   -1.734585    0.004244
     90          1           0        8.503908   -1.573102   -0.284170
     91          1           0        7.736083   -1.516136    1.187707
     92          1           0        5.962414    1.950961   -0.393564
     93          1           0       -0.692634    2.914628   -0.587803
     94          1           0        4.848405   -0.816717    0.509752
     95          1           0       -0.315977   -0.146728    0.199782
     96          1           0        4.021967    1.860005   -0.439292
     97          1           0        1.715764    2.312449   -0.468650
     98          1           0        1.243521   -1.529149    0.193842
     99          1           0        2.882727   -2.037173   -0.307676
    100          1           0        2.813915   -1.055756    1.193699
 ---------------------------------------------------------------------

 SCF Done:  E(RCAM-B3LYP) =  -1857.22670345     A.U. after   15 cycles

 Excitation energies and oscillator strengths:

 Excited State   1:      Singlet-A      2.3856 eV  519.73 nm  f=3.0644  <S**2>=0.000
     163 ->166        -0.15955
     164 ->165         0.68271
 This state for optimization and/or second-order correction.
 Total Energy, E(TD-HF/TD-DFT) =  -1857.13903572
 Copying the excited state density for this state as the 1-particle RhoCI density.

 The electronic state is 1-A.
 Alpha  occ. eigenvalues --  -19.23184 -19.22358 -19.21419 -19.21312 -10.32837
 Alpha  occ. eigenvalues --  -10.32262 -10.31768 -10.31084 -10.29378 -10.28673
 Alpha  occ. eigenvalues --  -10.27947 -10.27937 -10.27733 -10.27724 -10.27648
 Alpha  occ. eigenvalues --  -10.27387 -10.27211 -10.27126 -10.27002 -10.26981
 Alpha  occ. eigenvalues --  -10.26941 -10.26892 -10.26609 -10.26411 -10.26324
 Alpha  occ. eigenvalues --  -10.26311 -10.26306 -10.26137 -10.26123 -10.26093
 Alpha  occ. eigenvalues --  -10.26075 -10.25904 -10.25878 -10.25736 -10.25295
 Alpha  occ. eigenvalues --  -10.25294 -10.25214 -10.24516 -10.24363 -10.24019
 Alpha  occ. eigenvalues --  -10.23806 -10.23377 -10.22863 -10.22209  -1.14205
 Alpha  occ. eigenvalues --   -1.12740  -1.09424  -1.08288  -0.93507  -0.92570
 Alpha  occ. eigenvalues --   -0.91793  -0.91067  -0.90544  -0.90145  -0.87255
 Alpha  occ. eigenvalues --   -0.86408  -0.85646  -0.85554  -0.84518  -0.83056
 Alpha  occ. eigenvalues --   -0.81834  -0.80934  -0.80553  -0.78448  -0.78103
 Alpha  occ. eigenvalues --   -0.76445  -0.76296  -0.75807  -0.75764  -0.75273
 Alpha  occ. eigenvalues --   -0.74315  -0.73825  -0.73004  -0.71778  -0.69913
 Alpha  occ. eigenvalues --   -0.68473  -0.66796  -0.65123  -0.64801  -0.64312
 Alpha  occ. eigenvalues --   -0.64062  -0.62475  -0.61747  -0.60543  -0.60073
 Alpha  occ. eigenvalues --   -0.59436  -0.58822  -0.58085  -0.57669  -0.56151
 Alpha  occ. eigenvalues --   -0.55627  -0.55143  -0.54882  -0.54453  -0.54073
 Alpha  occ. eigenvalues --   -0.53405  -0.53287  -0.52451  -0.52303  -0.51853
 Alpha  occ. eigenvalues --   -0.51449  -0.51215  -0.50947  -0.50643  -0.49703
 Alpha  occ. eigenvalues --   -0.49499  -0.49249  -0.48730  -0.48444  -0.48240
 Alpha  occ. eigenvalues --   -0.47971  -0.47747  -0.47742  -0.47635  -0.47439
 Alpha  occ. eigenvalues --   -0.47306  -0.46540  -0.45288  -0.45252  -0.45086
 Alpha  occ. eigenvalues --   -0.44654  -0.44456  -0.44336  -0.44137  -0.43954
 Alpha  occ. eigenvalues --   -0.43852  -0.43451  -0.43299  -0.43137  -0.42566
 Alpha  occ. eigenvalues --   -0.42225  -0.42085  -0.41870  -0.41736  -0.41611
 Alpha  occ. eigenvalues --   -0.41420  -0.41055  -0.40795  -0.40351  -0.40191
 Alpha  occ. eigenvalues --   -0.40046  -0.39872  -0.39104  -0.38790  -0.38692
 Alpha  occ. eigenvalues --   -0.38263  -0.38101  -0.37589  -0.37523  -0.37417
 Alpha  occ. eigenvalues --   -0.36879  -0.35916  -0.35175  -0.35000  -0.33721
 Alpha  occ. eigenvalues --   -0.32996  -0.32615  -0.31784  -0.31279  -0.29753
 Alpha  occ. eigenvalues --   -0.29265  -0.27163  -0.23887  -0.19891
 Alpha virt. eigenvalues --   -0.05036  -0.00803   0.03155   0.07102   0.07816
 Alpha virt. eigenvalues --    0.08702   0.09001   0.10190   0.11279   0.11407
 Alpha virt. eigenvalues --    0.11972   0.12574   0.13317   0.13618   0.14047

 Mulliken charges:
               1
     1  O   -0.518373
     2  O   -0.543102
     3  O   -0.539405
     4  O   -0.517416
     5  C    0.198188
     6  C    0.203394
     7  C    0.037521
     8  C   -0.208344
     9  C   -0.188155
    10  C    0.157314
    11  C   -0.295507
    12  C   -0.124172
    13  C   -0.292794
    14  C   -0.302845
    15  C   -0.091824
    16  C    0.139583
    17  C   -0.405546
    18  C   -0.112776
    19  C   -0.060573
    20  C    0.023252
    21  C    0.180361
    22  C   -0.214786
    23  C    0.174183
    24  C   -0.157546
    25  C   -0.063963
    26  C   -0.314963
    27  C   -0.294802
    28  C   -0.320572
    29  C   -0.111211
    30  C    0.151549
    31  C    0.081012
    32  C   -0.209217
    33  C   -0.377596
    34  C   -0.105740
    35  C    0.075639
    36  C   -0.361382
    37  C   -0.131179
    38  C   -0.094320
    39  C   -0.068274
    40  C   -0.107609
    41  C   -0.124689
    42  C   -0.101997
    43  C    0.094931
    44  C   -0.361783
    45  H    0.047666
    46  H    0.127022
    47  H    0.103296
    48  H    0.117252
    49  H    0.086551
    50  H    0.102594
    51  H    0.132825
    52  H    0.121596
    53  H    0.103815
    54  H    0.104989
    55  H    0.091392
    56  H    0.089049
    57  H    0.092474
    58  H    0.106738
    59  H    0.089197
    60  H    0.315577
    61  H    0.072031
    62  H    0.107546
    63  H    0.128485
    64  H    0.104701
    65  H    0.081735
    66  H    0.093480
    67  H    0.062819
    68  H    0.107236
    69  H    0.067952
    70  H    0.101854
    71  H    0.102975
    72  H    0.093633
    73  H    0.113287
    74  H    0.100909
    75  H    0.113564
    76  H    0.113890
    77  H    0.093781
    78  H    0.098790
    79  H    0.093658
    80  H    0.147172
    81  H    0.078068
    82  H    0.299843
    83  H    0.289618
    84  H    0.072081
    85  H    0.115028
    86  H    0.135960
    87  H    0.111429
    88  H    0.068109
    89  H    0.110471
    90  H    0.144288
    91  H    0.120548
    92  H    0.090315
    93  H    0.082040
    94  H    0.082100
    95  H    0.080425
    96  H    0.067591
    97  H    0.081502
    98  H    0.112374
    99  H    0.102346
   100  H    0.129866
 Sum of Mulliken charges =  -0.00000

 Dipole moment (field-independent basis, Debye):
    X=              4.6036    Y=             -0.9727    Z=              1.9204  Tot=              5.0820
 Quadrupole moment (field-independent basis, Debye-Ang):
   XX=           -263.1563   YY=           -254.6182   ZZ=           -277.9242
   XY=              3.2364   XZ=             32.5095   YZ=             -5.8726

 Normal termination of Gaussian 16 at Tue Jul 30 19:19:51 2019.
