 Gaussian 16, Revision A.03,
 Gaussian 16:  ES64L-G16RevA.03 25-Dec-2016

 -------------------------------------
 # td=(NStates=1) CAM-B3LYP/6-31G(d,p)
 -------------------------------------

 --
 TD
 --
 Symbolic Z-matrix:
 Charge =  0 Multiplicity = 1

                         Standard orientation:
 ---------------------------------------------------------------------
 Center     Atomic      Atomic             Coordinates (Angstroms)
 Number     Number       Type             X           Y           Z
 ---------------------------------------------------------------------
      1          8           0      -11.982744    0.557560   -1.198992
      2          8           0      -12.903165   -2.485930    1.188418
      3          8           0       10.534454   -0.893314   -1.981337
      4          8           0       14.524041   -1.022123   -0.078806
      5          6           0      -11.091757   -0.031295   -0.139221
      6          6           0      -11.863663   -0.903147   -1.245855
      7          6           0      -11.665495    0.214677    1.248208
      8          6           0      -13.176021   -1.527878   -0.929572
      9          6           0      -13.229895   -0.105626    1.216390
     10          6           0      -13.479477   -1.392513    0.525168
     11          6           0      -11.123794   -1.561436   -2.378176
     12          6           0       -9.603653    0.130053   -0.348856
     13          6           0      -10.809391   -0.457917    2.344975
     14          6           0      -11.508868    1.764184    1.340749
     15          6           0       -8.599255   -0.860010   -0.144445
     16          6           0       -7.172007   -0.694943   -0.251326
     17          6           0       -6.384378   -1.987570   -0.076119
     18          6           0       -6.623170    0.659712   -0.220419
     19          6           0       -5.171226    0.749222   -0.221954
     20          6           0       11.915866   -0.013771    1.367486
     21          6           0       11.754311   -0.443331   -1.244048
     22          6           0       12.732258   -1.319190    1.504691
     23          6           0       13.341954   -1.845110    0.218987
     24          6           0       12.407687   -1.838073   -0.990292
     25          6           0       11.214167    0.078028    0.108218
     26          6           0       10.960960   -0.056523    2.581117
     27          6           0       12.877794    1.241143    1.555190
     28          6           0       12.473782    0.520613   -2.044794
     29          6           0       -4.647205    2.117201   -0.199363
     30          6           0        9.906710    0.424323    0.095712
     31          6           0       -3.299882    2.409377   -0.316666
     32          6           0        8.635386    0.973934   -0.086292
     33          6           0       -3.133397    3.985696   -0.378723
     34          6           0       -2.266198    1.567721   -0.353566
     35          6           0        7.403230    0.238513    0.004307
     36          6           0        7.629767   -1.260016    0.258570
     37          6           0        6.240502    0.823536   -0.079845
     38          6           0       -0.979136    1.865301   -0.519257
     39          6           0        4.911840    0.132876    0.063118
     40          6           0        0.083159    0.844705   -0.290172
     41          6           0        3.759555    0.812654   -0.275140
     42          6           0        1.409332    1.227679   -0.314705
     43          6           0        2.490042    0.257576   -0.232444
     44          6           0        2.283949   -1.155473   -0.002929
     45          1           0      -13.057679   -2.714712   -1.094942
     46          1           0      -13.816945   -1.170823   -1.598536
     47          1           0      -13.426212   -0.399183    2.254327
     48          1           0      -13.809954    0.736491    0.844999
     49          1           0      -14.540224   -1.673683    0.767213
     50          1           0      -10.969915   -2.615220   -2.210916
     51          1           0      -11.748840   -1.652852   -3.307535
     52          1           0      -10.218142   -1.063780   -2.359895
     53          1           0       -9.426220    1.078130   -0.752371
     54          1           0       -9.649278   -0.106208    2.051757
     55          1           0      -11.268850   -0.283831    3.396232
     56          1           0      -11.100473   -1.714416    2.199488
     57          1           0      -11.800285    2.350925    0.410754
     58          1           0      -12.122873    2.211487    2.056648
     59          1           0      -10.321739    1.918863    1.541049
     60          1           0      -11.987520   -2.172826    1.278340
     61          1           0       -8.932788   -1.788337    0.118252
     62          1           0       -5.844948   -2.227680   -0.981715
     63          1           0       -5.600825   -1.792015    0.720289
     64          1           0       -6.874561   -2.913878    0.351348
     65          1           0       -7.108417    1.509495   -0.392695
     66          1           0       -4.703411   -0.190194   -0.311262
     67          1           0       13.445203   -1.227172    2.323469
     68          1           0       12.057058   -2.184594    1.888783
     69          1           0       13.702187   -3.150074    0.469040
     70          1           0       12.791745   -2.166087   -1.885634
     71          1           0       11.530609   -2.474796   -0.854394
     72          1           0       11.457221   -0.197964    3.670167
     73          1           0       10.435254    0.886361    2.780657
     74          1           0       10.214486   -0.768584    2.609451
     75          1           0       13.689160    1.375499    0.645259
     76          1           0       12.385303    2.189197    1.588017
     77          1           0       13.399158    1.141510    2.464501
     78          1           0       12.802754    0.221242   -3.033609
     79          1           0       12.096961    1.484999   -2.328524
     80          1           0       13.424958    0.767108   -1.687453
     81          1           0       -5.462770    2.911209   -0.100207
     82          1           0       10.003741   -0.180993   -2.045709
     83          1           0       14.901043   -1.058542    0.730964
     84          1           0        8.539463    2.038470   -0.529409
     85          1           0       -2.713125    4.344202    0.518940
     86          1           0       -2.542593    4.204281   -1.449573
     87          1           0       -4.027140    4.521315   -0.598653
     88          1           0       -2.570401    0.553437   -0.071114
     89          1           0        6.636318   -1.630986   -0.104206
     90          1           0        8.380911   -1.375671   -0.385023
     91          1           0        7.873440   -1.587627    1.355658
     92          1           0        6.362235    1.845451   -0.283659
     93          1           0       -0.606283    2.949788   -0.539675
     94          1           0        4.889165   -0.863676    0.247618
     95          1           0       -0.152365   -0.167435   -0.174685
     96          1           0        3.931686    1.908686   -0.462965
     97          1           0        1.678559    2.153429   -0.393535
     98          1           0        1.308258   -1.440239    0.209004
     99          1           0        2.791610   -1.563510   -0.851510
    100          1           0        2.669315   -1.542951    0.970672
 ---------------------------------------------------------------------

 SCF Done:  E(RCAM-B3LYP) =  -1857.27392672     A.U. after   17 cycles

 Excitation energies and oscillator strengths:

 Excited State   1:      Singlet-A      1.7981 eV  689.54 nm  f=2.9766  <S**2>=0.000
     163 ->166         0.11935
     164 ->165         0.70764
     164 <-165        -0.14244
 This state for optimization and/or second-order correction.
 Total Energy, E(TD-HF/TD-DFT) =  -1857.20784896
 Copying the excited state density for this state as the 1-particle RhoCI density.

 The electronic state is 1-A.
 Alpha  occ. eigenvalues --  -19.21884 -19.21733 -19.20082 -19.19669 -10.34049
 Alpha  occ. eigenvalues --  -10.32731 -10.32017 -10.31299 -10.29429 -10.29036
 Alpha  occ. eigenvalues --  -10.28988 -10.28686 -10.28479 -10.28414 -10.27961
 Alpha  occ. eigenvalues --  -10.27943 -10.27778 -10.27559 -10.27340 -10.27178
 Alpha  occ. eigenvalues --  -10.27149 -10.27119 -10.27065 -10.26934 -10.26776
 Alpha  occ. eigenvalues --  -10.26744 -10.26705 -10.26377 -10.26295 -10.26221
 Alpha  occ. eigenvalues --  -10.26144 -10.25814 -10.25445 -10.25444 -10.25425
 Alpha  occ. eigenvalues --  -10.25275 -10.25236 -10.25228 -10.25221 -10.25072
 Alpha  occ. eigenvalues --  -10.24526 -10.24115 -10.23911 -10.23588  -1.11450
 Alpha  occ. eigenvalues --   -1.11443  -1.10055  -1.09589  -0.93918  -0.92948
 Alpha  occ. eigenvalues --   -0.92166  -0.91192  -0.90740  -0.89756  -0.87163
 Alpha  occ. eigenvalues --   -0.86921  -0.86452  -0.85201  -0.84431  -0.83185
 Alpha  occ. eigenvalues --   -0.82189  -0.80924  -0.80526  -0.79834  -0.77800
 Alpha  occ. eigenvalues --   -0.77177  -0.76781  -0.76570  -0.76378  -0.75874
 Alpha  occ. eigenvalues --   -0.75084  -0.74406  -0.73443  -0.69949  -0.69209
 Alpha  occ. eigenvalues --   -0.68639  -0.66962  -0.66481  -0.65581  -0.64504
 Alpha  occ. eigenvalues --   -0.63541  -0.63054  -0.61911  -0.61493  -0.59915
 Alpha  occ. eigenvalues --   -0.58557  -0.57994  -0.57673  -0.57160  -0.56595
 Alpha  occ. eigenvalues --   -0.55980  -0.55638  -0.54909  -0.54731  -0.54406
 Alpha  occ. eigenvalues --   -0.53761  -0.53011  -0.52653  -0.52620  -0.52232
 Alpha  occ. eigenvalues --   -0.52001  -0.51307  -0.50991  -0.50902  -0.49955
 Alpha  occ. eigenvalues --   -0.49562  -0.49488  -0.49298  -0.49188  -0.48853
 Alpha  occ. eigenvalues --   -0.48492  -0.48323  -0.47632  -0.47342  -0.46618
 Alpha  occ. eigenvalues --   -0.46559  -0.46346  -0.46046  -0.45804  -0.45427
 Alpha  occ. eigenvalues --   -0.45291  -0.44869  -0.44710  -0.44503  -0.44172
 Alpha  occ. eigenvalues --   -0.43870  -0.43728  -0.43380  -0.43035  -0.42768
 Alpha  occ. eigenvalues --   -0.42489  -0.42340  -0.42235  -0.41830  -0.41254
 Alpha  occ. eigenvalues --   -0.41123  -0.40784  -0.40732  -0.40529  -0.40396
 Alpha  occ. eigenvalues --   -0.39924  -0.39553  -0.39358  -0.39254  -0.38437
 Alpha  occ. eigenvalues --   -0.38233  -0.37947  -0.37768  -0.37725  -0.37543
 Alpha  occ. eigenvalues --   -0.36805  -0.35902  -0.34662  -0.34230  -0.33866
 Alpha  occ. eigenvalues --   -0.32726  -0.32434  -0.31904  -0.31581  -0.30334
 Alpha  occ. eigenvalues --   -0.29387  -0.27445  -0.24416  -0.18408
 Alpha virt. eigenvalues --   -0.07381  -0.01083   0.02651   0.04584   0.06130
 Alpha virt. eigenvalues --    0.09813   0.09928   0.10236   0.12006   0.12496
 Alpha virt. eigenvalues --    0.12662   0.13113   0.13252   0.13874   0.14287

 Mulliken charges:
               1
     1  O   -0.529865
     2  O   -0.551693
     3  O   -0.555587
     4  O   -0.519414
     5  C    0.197720
     6  C    0.234406
     7  C   -0.010604
     8  C   -0.160991
     9  C   -0.180331
    10  C    0.132367
    11  C   -0.330339
    12  C   -0.144411
    13  C   -0.289406
    14  C   -0.311179
    15  C   -0.083115
    16  C    0.053941
    17  C   -0.392489
    18  C   -0.077644
    19  C   -0.071896
    20  C    0.022357
    21  C    0.237297
    22  C   -0.196300
    23  C    0.143636
    24  C   -0.179749
    25  C   -0.022310
    26  C   -0.313753
    27  C   -0.311011
    28  C   -0.336146
    29  C   -0.155384
    30  C    0.062026
    31  C    0.097034
    32  C   -0.249435
    33  C   -0.369902
    34  C   -0.078209
    35  C    0.101201
    36  C   -0.340645
    37  C   -0.103389
    38  C   -0.116520
    39  C   -0.105541
    40  C   -0.089244
    41  C   -0.108888
    42  C   -0.074896
    43  C    0.090345
    44  C   -0.372335
    45  H    0.093558
    46  H    0.113580
    47  H    0.105962
    48  H    0.118250
    49  H    0.083163
    50  H    0.112640
    51  H    0.109961
    52  H    0.121890
    53  H    0.108393
    54  H    0.122415
    55  H    0.118699
    56  H    0.050216
    57  H    0.126133
    58  H    0.106571
    59  H    0.072305
    60  H    0.294675
    61  H    0.084916
    62  H    0.136008
    63  H    0.119507
    64  H    0.121284
    65  H    0.087602
    66  H    0.092573
    67  H    0.100046
    68  H    0.098631
    69  H    0.017263
    70  H    0.126139
    71  H    0.137445
    72  H    0.070830
    73  H    0.110256
    74  H    0.122378
    75  H    0.099521
    76  H    0.114557
    77  H    0.103605
    78  H    0.117116
    79  H    0.107413
    80  H    0.138757
    81  H    0.097326
    82  H    0.284977
    83  H    0.299102
    84  H    0.101043
    85  H    0.133469
    86  H    0.087829
    87  H    0.116209
    88  H    0.079868
    89  H    0.092750
    90  H    0.140851
    91  H    0.108244
    92  H    0.067560
    93  H    0.093804
    94  H    0.086733
    95  H    0.083014
    96  H    0.085906
    97  H    0.064823
    98  H    0.114496
    99  H    0.136807
   100  H    0.121226
 Sum of Mulliken charges =  -0.00000

 Dipole moment (field-independent basis, Debye):
    X=              3.9820    Y=              0.8347    Z=              2.2343  Tot=              4.6417
 Quadrupole moment (field-independent basis, Debye-Ang):
   XX=           -304.2313   YY=           -263.2089   ZZ=           -273.2872
   XY=             -0.3385   XZ=             22.9814   YZ=             -1.7380

 Normal termination of Gaussian 16 at Mon Jul 29 23:21:02 2019.
