 Gaussian 16, Revision A.03,
 Gaussian 16:  ES64L-G16RevA.03 25-Dec-2016

 -------------------------------------
 # td=(NStates=1) CAM-B3LYP/6-31G(d,p)
 -------------------------------------

 --
 TD
 --
 Symbolic Z-matrix:
 Charge =  0 Multiplicity = 1

                         Standard orientation:
 ---------------------------------------------------------------------
 Center     Atomic      Atomic             Coordinates (Angstroms)
 Number     Number       Type             X           Y           Z
 ---------------------------------------------------------------------
      1          8           0      -11.921884    0.457566   -1.384496
      2          8           0      -12.805221   -2.538257    1.308385
      3          8           0       10.693394   -1.014719   -2.017939
      4          8           0       14.582342   -1.068970   -0.116532
      5          6           0      -11.112005   -0.048108   -0.305910
      6          6           0      -11.839409   -0.948919   -1.302528
      7          6           0      -11.794969    0.233314    1.083397
      8          6           0      -13.124289   -1.637259   -0.910341
      9          6           0      -13.267466   -0.166319    1.042506
     10          6           0      -13.458267   -1.612481    0.534803
     11          6           0      -10.979430   -1.686456   -2.405633
     12          6           0       -9.659983    0.095020   -0.282076
     13          6           0      -11.021724   -0.267509    2.343677
     14          6           0      -11.716166    1.811894    1.161047
     15          6           0       -8.737776   -0.840161    0.074133
     16          6           0       -7.359410   -0.554638    0.005645
     17          6           0       -6.410350   -1.822789    0.335534
     18          6           0       -6.635031    0.659313   -0.125412
     19          6           0       -5.265270    0.874382   -0.354371
     20          6           0       11.980484    0.043675    1.391615
     21          6           0       11.807582   -0.566884   -1.124786
     22          6           0       12.654688   -1.283521    1.533586
     23          6           0       13.397813   -1.830924    0.301286
     24          6           0       12.494781   -1.834395   -0.824838
     25          6           0       11.128019    0.012503    0.041781
     26          6           0       10.973820    0.171108    2.582787
     27          6           0       12.925037    1.216328    1.387202
     28          6           0       12.480818    0.418799   -1.935193
     29          6           0       -4.751764    2.131236   -0.258998
     30          6           0        9.896076    0.485671    0.027458
     31          6           0       -3.430256    2.498654   -0.349982
     32          6           0        8.729746    1.021226   -0.188198
     33          6           0       -3.067123    3.963876   -0.493479
     34          6           0       -2.317581    1.620550   -0.190330
     35          6           0        7.484165    0.158817   -0.110090
     36          6           0        7.636920   -1.331645    0.172447
     37          6           0        6.304389    0.751151   -0.269758
     38          6           0       -0.937413    1.819603   -0.405973
     39          6           0        4.943615    0.224069   -0.117360
     40          6           0        0.104284    0.896158   -0.108612
     41          6           0        3.815036    0.909778   -0.275615
     42          6           0        1.463056    1.240312   -0.191675
     43          6           0        2.483809    0.345513   -0.066625
     44          6           0        2.318646   -1.103386    0.069079
     45          1           0      -12.879484   -2.730454   -1.026825
     46          1           0      -13.941361   -1.381922   -1.717668
     47          1           0      -13.797757   -0.091035    1.897759
     48          1           0      -13.729325    0.456890    0.134723
     49          1           0      -14.359382   -1.919536    0.566860
     50          1           0      -10.513875   -2.768465   -2.237189
     51          1           0      -11.634378   -1.881393   -3.264754
     52          1           0      -10.192938   -0.973903   -2.717479
     53          1           0       -9.241156    1.067141   -0.644807
     54          1           0      -10.004484    0.027019    2.342140
     55          1           0      -11.487363    0.254868    3.182887
     56          1           0      -11.120656   -1.418237    2.345562
     57          1           0      -12.166720    2.159749    0.285522
     58          1           0      -12.378668    2.047548    2.012866
     59          1           0      -10.816222    2.178038    1.346461
     60          1           0      -11.838387   -2.560404    1.127043
     61          1           0       -9.038887   -1.950028    0.279983
     62          1           0       -5.639646   -2.190165   -0.604245
     63          1           0       -5.899106   -1.531166    1.339333
     64          1           0       -7.042518   -2.840305    0.443732
     65          1           0       -7.133413    1.493700   -0.079924
     66          1           0       -4.543127    0.018901   -0.563914
     67          1           0       13.464863   -1.027222    2.329193
     68          1           0       12.104375   -1.942176    1.922514
     69          1           0       13.699423   -2.874962    0.539632
     70          1           0       12.982695   -2.479654   -1.690219
     71          1           0       11.762862   -2.637752   -0.489806
     72          1           0       11.547751    0.232784    3.475100
     73          1           0       10.147274    1.045932    2.269774
     74          1           0       10.320893   -0.663845    2.838320
     75          1           0       13.534223    1.379776    0.476143
     76          1           0       12.280284    2.133124    1.210900
     77          1           0       13.653331    1.218600    2.166364
     78          1           0       13.031280   -0.135844   -2.858774
     79          1           0       11.805882    1.133954   -2.261141
     80          1           0       13.237581    0.735515   -1.315773
     81          1           0       -5.422734    2.928391   -0.216510
     82          1           0       10.225483   -0.125854   -2.330879
     83          1           0       15.265435   -1.248788    0.460872
     84          1           0        8.453483    2.077740   -0.515123
     85          1           0       -2.280475    4.239464    0.202068
     86          1           0       -2.593435    4.039246   -1.614621
     87          1           0       -3.916925    4.465873   -0.468710
     88          1           0       -2.506017    0.635838    0.091197
     89          1           0        6.728494   -1.987420    0.094969
     90          1           0        8.445734   -2.129880   -0.381494
     91          1           0        7.684181   -1.331033    1.396364
     92          1           0        6.519453    1.848162   -0.566494
     93          1           0       -0.570759    2.895736   -0.483447
     94          1           0        4.703012   -0.857254    0.319864
     95          1           0       -0.262002   -0.015879    0.309480
     96          1           0        3.827778    2.028265   -0.370726
     97          1           0        1.600098    2.203555   -0.378733
     98          1           0        1.110404   -1.358332    0.014855
     99          1           0        2.834643   -1.543408   -0.810048
    100          1           0        2.768635   -1.439785    0.930290
 ---------------------------------------------------------------------

 SCF Done:  E(RCAM-B3LYP) =  -1857.30754330     A.U. after   15 cycles

 Excitation energies and oscillator strengths:

 Excited State   1:      Singlet-A      2.1277 eV  582.72 nm  f=2.7404  <S**2>=0.000
     163 ->166         0.12153
     164 ->165         0.70013
     164 <-165        -0.10431
 This state for optimization and/or second-order correction.
 Total Energy, E(TD-HF/TD-DFT) =  -1857.22935299
 Copying the excited state density for this state as the 1-particle RhoCI density.

 The electronic state is 1-A.
 Alpha  occ. eigenvalues --  -19.23159 -19.21619 -19.21211 -19.19592 -10.32455
 Alpha  occ. eigenvalues --  -10.31939 -10.31170 -10.30796 -10.29006 -10.28377
 Alpha  occ. eigenvalues --  -10.28324 -10.28027 -10.28023 -10.27912 -10.27880
 Alpha  occ. eigenvalues --  -10.27788 -10.27301 -10.27292 -10.27220 -10.27179
 Alpha  occ. eigenvalues --  -10.27104 -10.27006 -10.26987 -10.26915 -10.26764
 Alpha  occ. eigenvalues --  -10.26588 -10.26583 -10.26487 -10.26443 -10.26116
 Alpha  occ. eigenvalues --  -10.25992 -10.25747 -10.25585 -10.25578 -10.25526
 Alpha  occ. eigenvalues --  -10.25312 -10.25291 -10.24995 -10.24717 -10.24638
 Alpha  occ. eigenvalues --  -10.24634 -10.24183 -10.23741 -10.22410  -1.15898
 Alpha  occ. eigenvalues --   -1.11216  -1.09906  -1.06272  -0.93744  -0.92650
 Alpha  occ. eigenvalues --   -0.92206  -0.90951  -0.90536  -0.89596  -0.87643
 Alpha  occ. eigenvalues --   -0.87262  -0.86689  -0.86069  -0.85179  -0.83483
 Alpha  occ. eigenvalues --   -0.81881  -0.81124  -0.80101  -0.79148  -0.77408
 Alpha  occ. eigenvalues --   -0.76900  -0.76069  -0.75944  -0.75702  -0.75655
 Alpha  occ. eigenvalues --   -0.75243  -0.73944  -0.73408  -0.71565  -0.70434
 Alpha  occ. eigenvalues --   -0.68631  -0.66761  -0.65275  -0.64310  -0.64231
 Alpha  occ. eigenvalues --   -0.63546  -0.62746  -0.61622  -0.60159  -0.59457
 Alpha  occ. eigenvalues --   -0.58905  -0.58559  -0.58086  -0.56913  -0.56796
 Alpha  occ. eigenvalues --   -0.56182  -0.55959  -0.55320  -0.55087  -0.54702
 Alpha  occ. eigenvalues --   -0.54199  -0.53363  -0.53163  -0.52263  -0.51574
 Alpha  occ. eigenvalues --   -0.51290  -0.51117  -0.50404  -0.50286  -0.50226
 Alpha  occ. eigenvalues --   -0.49492  -0.49338  -0.49263  -0.48972  -0.48644
 Alpha  occ. eigenvalues --   -0.48302  -0.47589  -0.47525  -0.47177  -0.46441
 Alpha  occ. eigenvalues --   -0.46210  -0.46126  -0.45690  -0.45562  -0.45429
 Alpha  occ. eigenvalues --   -0.45231  -0.45167  -0.44541  -0.44196  -0.43841
 Alpha  occ. eigenvalues --   -0.43493  -0.43225  -0.43042  -0.42743  -0.42639
 Alpha  occ. eigenvalues --   -0.42563  -0.42093  -0.41074  -0.40742  -0.40588
 Alpha  occ. eigenvalues --   -0.40413  -0.40291  -0.40241  -0.40164  -0.39692
 Alpha  occ. eigenvalues --   -0.39527  -0.39407  -0.39268  -0.38814  -0.38567
 Alpha  occ. eigenvalues --   -0.38385  -0.38071  -0.37483  -0.37467  -0.37016
 Alpha  occ. eigenvalues --   -0.36723  -0.36297  -0.35705  -0.34288  -0.33825
 Alpha  occ. eigenvalues --   -0.32877  -0.32586  -0.31911  -0.31351  -0.30344
 Alpha  occ. eigenvalues --   -0.29843  -0.27705  -0.24746  -0.19568
 Alpha virt. eigenvalues --   -0.06177  -0.00471   0.03007   0.05408   0.06943
 Alpha virt. eigenvalues --    0.09470   0.10080   0.10768   0.12022   0.12345
 Alpha virt. eigenvalues --    0.12479   0.12839   0.12917   0.13756   0.14080

 Mulliken charges:
               1
     1  O   -0.502080
     2  O   -0.539972
     3  O   -0.581525
     4  O   -0.550891
     5  C    0.198438
     6  C    0.249924
     7  C    0.006748
     8  C   -0.245341
     9  C   -0.193577
    10  C    0.205704
    11  C   -0.334092
    12  C   -0.127121
    13  C   -0.295405
    14  C   -0.309979
    15  C   -0.066693
    16  C    0.062849
    17  C   -0.351319
    18  C   -0.102879
    19  C   -0.052862
    20  C    0.022533
    21  C    0.243098
    22  C   -0.153368
    23  C    0.127960
    24  C   -0.179967
    25  C   -0.081751
    26  C   -0.307350
    27  C   -0.302516
    28  C   -0.263632
    29  C   -0.111968
    30  C    0.191325
    31  C    0.077231
    32  C   -0.309716
    33  C   -0.350305
    34  C   -0.119997
    35  C    0.137429
    36  C   -0.368635
    37  C   -0.122894
    38  C   -0.100220
    39  C   -0.110971
    40  C   -0.093293
    41  C   -0.081637
    42  C   -0.094573
    43  C    0.110125
    44  C   -0.376737
    45  H    0.097871
    46  H    0.108772
    47  H    0.097696
    48  H    0.099384
    49  H    0.092957
    50  H    0.096850
    51  H    0.111595
    52  H    0.123142
    53  H    0.109275
    54  H    0.116132
    55  H    0.104709
    56  H    0.074146
    57  H    0.126956
    58  H    0.090770
    59  H    0.105019
    60  H    0.301775
    61  H    0.084009
    62  H    0.090763
    63  H    0.128588
    64  H    0.084721
    65  H    0.064400
    66  H    0.092856
    67  H    0.063852
    68  H    0.103282
    69  H    0.081950
    70  H    0.108247
    71  H    0.110706
    72  H    0.098015
    73  H    0.091612
    74  H    0.106877
    75  H    0.119939
    76  H    0.098327
    77  H    0.103286
    78  H    0.098864
    79  H    0.090296
    80  H    0.125639
    81  H    0.078924
    82  H    0.297193
    83  H    0.297916
    84  H    0.111503
    85  H    0.129609
    86  H    0.101885
    87  H    0.108947
    88  H    0.068302
    89  H    0.109695
    90  H    0.126802
    91  H    0.094706
    92  H    0.066676
    93  H    0.069566
    94  H    0.078778
    95  H    0.087251
    96  H    0.081298
    97  H    0.073816
    98  H    0.093384
    99  H    0.133970
   100  H    0.136404
 Sum of Mulliken charges =  -0.00000

 Dipole moment (field-independent basis, Debye):
    X=              3.5538    Y=             -0.6839    Z=              1.8202  Tot=              4.0510
 Quadrupole moment (field-independent basis, Debye-Ang):
   XX=           -259.0161   YY=           -259.5880   ZZ=           -278.0890
   XY=             -4.2102   XZ=             29.6594   YZ=             -2.4749

 Normal termination of Gaussian 16 at Tue Jul 30 04:03:55 2019.
