 Gaussian 16, Revision A.03,
 Gaussian 16:  ES64L-G16RevA.03 25-Dec-2016

 -------------------------------------
 # td=(NStates=1) CAM-B3LYP/6-31G(d,p)
 -------------------------------------

 --
 TD
 --
 Symbolic Z-matrix:
 Charge =  0 Multiplicity = 1

                         Standard orientation:
 ---------------------------------------------------------------------
 Center     Atomic      Atomic             Coordinates (Angstroms)
 Number     Number       Type             X           Y           Z
 ---------------------------------------------------------------------
      1          8           0      -11.512142   -0.127562   -1.705494
      2          8           0      -13.039930   -1.996574    1.755555
      3          8           0       10.744505   -1.202034   -2.086824
      4          8           0       14.487579   -1.031268   -0.036486
      5          6           0      -11.043092   -0.362568   -0.297856
      6          6           0      -11.683869   -1.398233   -1.115541
      7          6           0      -11.782796    0.572540    0.809692
      8          6           0      -13.027546   -1.890006   -0.796391
      9          6           0      -13.324992    0.221606    0.785528
     10          6           0      -13.537399   -1.307606    0.541939
     11          6           0      -10.779978   -2.505290   -1.848247
     12          6           0       -9.637368   -0.162486   -0.391430
     13          6           0      -11.251228    0.318304    2.166106
     14          6           0      -11.636805    2.036738    0.408379
     15          6           0       -8.595944   -0.820237    0.139206
     16          6           0       -7.159872   -0.685202    0.217325
     17          6           0       -6.303683   -1.887040    0.528470
     18          6           0       -6.641518    0.559322   -0.076473
     19          6           0       -5.265348    0.881835   -0.117708
     20          6           0       11.878681    0.135850    1.291753
     21          6           0       11.689507   -0.725473   -1.170098
     22          6           0       12.706636   -1.180356    1.574927
     23          6           0       13.450790   -1.769079    0.395724
     24          6           0       12.551229   -1.913756   -0.879002
     25          6           0       11.043884   -0.033285    0.058872
     26          6           0       10.948483    0.406811    2.543460
     27          6           0       12.819656    1.385257    1.323590
     28          6           0       12.583410    0.321736   -2.069589
     29          6           0       -4.694550    2.107076   -0.345264
     30          6           0        9.856014    0.466760   -0.051780
     31          6           0       -3.376568    2.443545   -0.507276
     32          6           0        8.623054    0.884748   -0.151156
     33          6           0       -3.087968    3.917602   -0.920086
     34          6           0       -2.301418    1.595354   -0.378465
     35          6           0        7.382132    0.152864   -0.057990
     36          6           0        7.501154   -1.394739    0.309762
     37          6           0        6.194765    0.737323   -0.322686
     38          6           0       -0.947554    1.923893   -0.386523
     39          6           0        4.875995    0.142011   -0.101876
     40          6           0       -0.000906    0.972397   -0.132121
     41          6           0        3.742581    0.952749   -0.054699
     42          6           0        1.389192    1.233803   -0.291722
     43          6           0        2.377252    0.401229    0.076353
     44          6           0        2.320870   -1.019704    0.463184
     45          1           0      -12.964201   -2.869252   -0.692993
     46          1           0      -13.787177   -1.482101   -1.477649
     47          1           0      -13.752633    0.876675    1.575043
     48          1           0      -13.781126    0.856934   -0.059565
     49          1           0      -14.630620   -1.408138    0.627933
     50          1           0      -10.424510   -3.244088   -0.984651
     51          1           0      -11.408277   -2.977336   -2.544067
     52          1           0       -9.969458   -1.929079   -2.315855
     53          1           0       -9.239011    0.798215   -0.890921
     54          1           0      -10.144120    0.573104    2.131067
     55          1           0      -11.736340    0.866891    2.991647
     56          1           0      -11.231546   -0.705691    2.567047
     57          1           0      -12.036238    2.493611   -0.469679
     58          1           0      -12.175668    2.707952    1.142392
     59          1           0      -10.646849    2.343089    0.738915
     60          1           0      -12.115704   -2.284229    1.589668
     61          1           0       -9.104578   -1.729472    0.696808
     62          1           0       -5.667009   -2.058319   -0.444857
     63          1           0       -5.635036   -1.528930    1.264778
     64          1           0       -6.974008   -2.717754    0.735266
     65          1           0       -7.378731    1.354171   -0.190773
     66          1           0       -4.591384    0.007329   -0.184026
     67          1           0       13.440527   -1.012790    2.390345
     68          1           0       12.167358   -1.839781    2.039322
     69          1           0       13.678489   -2.753301    0.631370
     70          1           0       13.276084   -2.227818   -1.777304
     71          1           0       11.822042   -2.770448   -0.681120
     72          1           0       11.372420    0.563803    3.465409
     73          1           0       10.401081    1.321157    2.435285
     74          1           0       10.137608   -0.366169    2.500332
     75          1           0       13.728226    1.281161    0.552336
     76          1           0       12.258022    2.214435    0.923769
     77          1           0       13.223622    1.546912    2.258943
     78          1           0       12.737156    0.008319   -2.926962
     79          1           0       12.075055    1.349884   -2.173729
     80          1           0       13.612190    0.612583   -1.649114
     81          1           0       -5.443549    2.992659   -0.628900
     82          1           0        9.908213   -0.495647   -2.026591
     83          1           0       15.211076   -0.830548    0.519598
     84          1           0        8.608500    1.994659   -0.471989
     85          1           0       -2.451662    4.319739   -0.081309
     86          1           0       -2.358300    3.885985   -1.728095
     87          1           0       -3.909772    4.504430   -1.273565
     88          1           0       -2.515264    0.548926   -0.156428
     89          1           0        6.556529   -2.005116    0.072293
     90          1           0        8.486682   -1.823779   -0.070024
     91          1           0        7.855131   -1.590375    1.419779
     92          1           0        6.242770    1.758195   -0.699031
     93          1           0       -0.770536    2.905196   -0.531411
     94          1           0        4.857383   -0.757486    0.351364
     95          1           0       -0.171269   -0.035156    0.240265
     96          1           0        3.675163    1.947767   -0.331425
     97          1           0        1.870092    2.106307   -0.438920
     98          1           0        1.430066   -1.641594    0.348773
     99          1           0        2.928796   -1.709731   -0.234077
    100          1           0        2.884904   -1.384194    1.489521
 ---------------------------------------------------------------------

 SCF Done:  E(RCAM-B3LYP) =  -1857.37200679     A.U. after   15 cycles

 Excitation energies and oscillator strengths:

 Excited State   1:      Singlet-A      2.3401 eV  529.82 nm  f=2.8864  <S**2>=0.000
     163 ->166         0.13593
     164 ->165         0.69429
 This state for optimization and/or second-order correction.
 Total Energy, E(TD-HF/TD-DFT) =  -1857.28600943
 Copying the excited state density for this state as the 1-particle RhoCI density.

 The electronic state is 1-A.
 Alpha  occ. eigenvalues --  -19.21793 -19.21211 -19.21022 -19.20651 -10.32391
 Alpha  occ. eigenvalues --  -10.31836 -10.31638 -10.31450 -10.29787 -10.28365
 Alpha  occ. eigenvalues --  -10.28261 -10.28247 -10.28212 -10.27816 -10.27621
 Alpha  occ. eigenvalues --  -10.27419 -10.27345 -10.27135 -10.27082 -10.27001
 Alpha  occ. eigenvalues --  -10.26979 -10.26900 -10.26827 -10.26615 -10.26588
 Alpha  occ. eigenvalues --  -10.26516 -10.26515 -10.26343 -10.26173 -10.26126
 Alpha  occ. eigenvalues --  -10.26018 -10.25801 -10.25798 -10.25792 -10.25785
 Alpha  occ. eigenvalues --  -10.25493 -10.25268 -10.25260 -10.24524 -10.24454
 Alpha  occ. eigenvalues --  -10.24447 -10.24041 -10.23810 -10.22188  -1.14327
 Alpha  occ. eigenvalues --   -1.12265  -1.07827  -1.07622  -0.93106  -0.92632
 Alpha  occ. eigenvalues --   -0.92227  -0.91286  -0.90522  -0.90249  -0.88032
 Alpha  occ. eigenvalues --   -0.87590  -0.86062  -0.85026  -0.84436  -0.83014
 Alpha  occ. eigenvalues --   -0.81994  -0.80314  -0.80000  -0.78789  -0.77033
 Alpha  occ. eigenvalues --   -0.77016  -0.76420  -0.76363  -0.75999  -0.75815
 Alpha  occ. eigenvalues --   -0.75285  -0.75098  -0.74049  -0.71059  -0.70547
 Alpha  occ. eigenvalues --   -0.69303  -0.67576  -0.65805  -0.65373  -0.64539
 Alpha  occ. eigenvalues --   -0.63754  -0.63032  -0.61816  -0.61143  -0.60025
 Alpha  occ. eigenvalues --   -0.59241  -0.58967  -0.58057  -0.57316  -0.57134
 Alpha  occ. eigenvalues --   -0.56592  -0.55341  -0.54956  -0.54785  -0.54469
 Alpha  occ. eigenvalues --   -0.53903  -0.53400  -0.52490  -0.52116  -0.51869
 Alpha  occ. eigenvalues --   -0.51000  -0.50761  -0.50549  -0.50105  -0.49183
 Alpha  occ. eigenvalues --   -0.48710  -0.48549  -0.48378  -0.48147  -0.47892
 Alpha  occ. eigenvalues --   -0.47561  -0.47482  -0.47325  -0.47225  -0.47075
 Alpha  occ. eigenvalues --   -0.46756  -0.46547  -0.46090  -0.45979  -0.45555
 Alpha  occ. eigenvalues --   -0.45445  -0.45168  -0.44873  -0.44546  -0.44439
 Alpha  occ. eigenvalues --   -0.43896  -0.43895  -0.43501  -0.43141  -0.42833
 Alpha  occ. eigenvalues --   -0.42694  -0.41812  -0.41577  -0.41038  -0.40985
 Alpha  occ. eigenvalues --   -0.40569  -0.40426  -0.40413  -0.40081  -0.39967
 Alpha  occ. eigenvalues --   -0.39855  -0.39670  -0.39134  -0.38869  -0.38828
 Alpha  occ. eigenvalues --   -0.38038  -0.37785  -0.37664  -0.37430  -0.36861
 Alpha  occ. eigenvalues --   -0.36004  -0.35700  -0.35100  -0.34707  -0.34137
 Alpha  occ. eigenvalues --   -0.32259  -0.32030  -0.31734  -0.31372  -0.30929
 Alpha  occ. eigenvalues --   -0.29393  -0.28195  -0.24877  -0.20413
 Alpha virt. eigenvalues --   -0.05773  -0.00838   0.03159   0.06171   0.07220
 Alpha virt. eigenvalues --    0.08971   0.10047   0.11163   0.11614   0.12116
 Alpha virt. eigenvalues --    0.12856   0.13076   0.13549   0.14006   0.14090

 Mulliken charges:
               1
     1  O   -0.502640
     2  O   -0.557519
     3  O   -0.578352
     4  O   -0.520385
     5  C    0.147001
     6  C    0.246488
     7  C    0.033474
     8  C   -0.191295
     9  C   -0.179939
    10  C    0.120489
    11  C   -0.323435
    12  C   -0.084054
    13  C   -0.303883
    14  C   -0.317363
    15  C   -0.090113
    16  C    0.081302
    17  C   -0.358465
    18  C   -0.101046
    19  C   -0.088722
    20  C    0.009941
    21  C    0.284750
    22  C   -0.182933
    23  C    0.171937
    24  C   -0.184035
    25  C   -0.070259
    26  C   -0.319390
    27  C   -0.295125
    28  C   -0.297225
    29  C   -0.125370
    30  C    0.148277
    31  C    0.097412
    32  C   -0.311282
    33  C   -0.383807
    34  C   -0.114615
    35  C    0.152588
    36  C   -0.381629
    37  C   -0.123955
    38  C   -0.047691
    39  C   -0.083042
    40  C   -0.099372
    41  C   -0.119577
    42  C   -0.100298
    43  C    0.143610
    44  C   -0.408819
    45  H    0.119005
    46  H    0.133295
    47  H    0.106253
    48  H    0.082228
    49  H    0.101159
    50  H    0.083629
    51  H    0.119142
    52  H    0.137300
    53  H    0.090024
    54  H    0.095093
    55  H    0.108225
    56  H    0.101980
    57  H    0.132197
    58  H    0.087157
    59  H    0.102590
    60  H    0.299193
    61  H    0.032174
    62  H    0.119252
    63  H    0.140453
    64  H    0.117656
    65  H    0.084490
    66  H    0.082188
    67  H    0.071745
    68  H    0.100034
    69  H    0.074374
    70  H    0.105432
    71  H    0.090695
    72  H    0.104349
    73  H    0.108465
    74  H    0.094432
    75  H    0.090170
    76  H    0.105295
    77  H    0.107138
    78  H    0.118524
    79  H    0.064179
    80  H    0.101639
    81  H    0.072309
    82  H    0.305294
    83  H    0.299305
    84  H    0.109826
    85  H    0.123009
    86  H    0.125378
    87  H    0.116971
    88  H    0.070764
    89  H    0.113765
    90  H    0.127680
    91  H    0.104212
    92  H    0.082642
    93  H    0.077296
    94  H    0.087619
    95  H    0.095718
    96  H    0.081271
    97  H    0.067185
    98  H    0.113785
    99  H    0.116290
   100  H    0.106895
 Sum of Mulliken charges =  -0.00000

 Dipole moment (field-independent basis, Debye):
    X=              1.3372    Y=              0.1317    Z=              2.4349  Tot=              2.7810
 Quadrupole moment (field-independent basis, Debye-Ang):
   XX=           -264.0683   YY=           -255.9106   ZZ=           -282.1734
   XY=              6.4724   XZ=             40.9452   YZ=             -4.1213

 Normal termination of Gaussian 16 at Thu Aug  1 12:59:11 2019.
