 Gaussian 16, Revision A.03,
 Gaussian 16:  ES64L-G16RevA.03 25-Dec-2016

 -------------------------------------
 # td=(NStates=1) CAM-B3LYP/6-31G(d,p)
 -------------------------------------

 --
 TD
 --
 Symbolic Z-matrix:
 Charge =  0 Multiplicity = 1

                         Standard orientation:
 ---------------------------------------------------------------------
 Center     Atomic      Atomic             Coordinates (Angstroms)
 Number     Number       Type             X           Y           Z
 ---------------------------------------------------------------------
      1          8           0      -11.742218    0.521392   -1.492432
      2          8           0      -13.037670   -2.613815    1.081030
      3          8           0       10.625974   -0.591087   -2.157554
      4          8           0       14.481991   -1.043071   -0.230533
      5          6           0      -11.070958   -0.029531   -0.310067
      6          6           0      -11.700326   -0.864109   -1.360902
      7          6           0      -11.865054    0.292287    1.168846
      8          6           0      -13.023186   -1.598457   -1.189841
      9          6           0      -13.273877   -0.144612    0.993343
     10          6           0      -13.518388   -1.569872    0.242729
     11          6           0      -10.764207   -1.615744   -2.343738
     12          6           0       -9.625287    0.150431   -0.245438
     13          6           0      -11.103088   -0.453449    2.310645
     14          6           0      -11.774160    1.802542    1.401724
     15          6           0       -8.701162   -0.776197    0.109202
     16          6           0       -7.264731   -0.636197    0.013585
     17          6           0       -6.292420   -1.973951    0.349432
     18          6           0       -6.588096    0.537899   -0.096694
     19          6           0       -5.221750    0.890192   -0.243680
     20          6           0       11.972872   -0.171964    1.412904
     21          6           0       11.617741   -0.374462   -1.321202
     22          6           0       12.760767   -1.545386    1.381779
     23          6           0       13.395105   -1.883299    0.032422
     24          6           0       12.389916   -1.722610   -1.184843
     25          6           0       11.041038   -0.050874    0.075736
     26          6           0       11.070707   -0.205104    2.660122
     27          6           0       12.921736    1.037812    1.472478
     28          6           0       12.624026    0.838325   -1.802991
     29          6           0       -4.714999    2.179003   -0.362176
     30          6           0        9.865730    0.665025    0.104356
     31          6           0       -3.315608    2.567711   -0.232332
     32          6           0        8.580686    1.039715   -0.056135
     33          6           0       -2.998667    3.968288   -0.446367
     34          6           0       -2.295344    1.590436   -0.213458
     35          6           0        7.452511    0.140031   -0.018998
     36          6           0        7.746693   -1.265917    0.025730
     37          6           0        6.249153    0.778540   -0.012506
     38          6           0       -0.960371    1.793094   -0.187730
     39          6           0        4.947943    0.138383    0.045039
     40          6           0        0.012832    0.793590   -0.123153
     41          6           0        3.724554    0.823963   -0.034323
     42          6           0        1.402908    1.174389   -0.117634
     43          6           0        2.484395    0.283705    0.020594
     44          6           0        2.273410   -1.200108    0.236152
     45          1           0      -13.083025   -2.501809   -1.668971
     46          1           0      -13.786110   -0.898578   -1.631489
     47          1           0      -13.762413   -0.265454    1.804985
     48          1           0      -13.877981    0.647386    0.468409
     49          1           0      -14.669417   -1.739634    0.099589
     50          1           0      -10.481855   -2.361020   -1.848159
     51          1           0      -11.309390   -1.423443   -3.303869
     52          1           0       -9.838014   -1.045714   -2.397892
     53          1           0       -9.387254    1.187507   -0.780425
     54          1           0       -9.953273   -0.243361    2.032750
     55          1           0      -11.521330   -0.088432    3.249540
     56          1           0      -11.445456   -1.427662    2.258152
     57          1           0      -12.293662    2.368163    0.520753
     58          1           0      -12.105999    2.063566    2.317450
     59          1           0      -10.637905    2.003884    1.514522
     60          1           0      -12.232803   -2.799022    0.808562
     61          1           0       -9.238623   -1.698011    0.431532
     62          1           0       -6.042415   -2.166091   -0.803491
     63          1           0       -5.518311   -1.642715    1.185878
     64          1           0       -6.930888   -2.875314    0.588470
     65          1           0       -7.172771    1.363722   -0.078326
     66          1           0       -4.535503   -0.028340   -0.004879
     67          1           0       13.400524   -1.508079    2.251890
     68          1           0       11.981783   -2.323230    1.402206
     69          1           0       13.810140   -2.890978    0.026759
     70          1           0       12.935054   -1.656794   -2.118722
     71          1           0       11.765989   -2.559283   -1.348135
     72          1           0       11.668602   -0.341849    3.535501
     73          1           0       10.427089    0.728864    3.024205
     74          1           0       10.421672   -1.071657    2.535868
     75          1           0       13.551080    1.302711    0.558754
     76          1           0       12.251019    1.917524    1.820223
     77          1           0       13.775293    0.804334    2.223796
     78          1           0       12.683626    0.422112   -2.824782
     79          1           0       12.040421    1.848820   -1.922673
     80          1           0       13.769809    0.881360   -1.293081
     81          1           0       -5.488692    2.887994   -0.500148
     82          1           0        9.759599    0.018292   -1.914575
     83          1           0       15.192722   -1.215910    0.371313
     84          1           0        8.318202    2.016481   -0.296975
     85          1           0       -2.467973    4.344822    0.545233
     86          1           0       -2.602781    4.034868   -1.421875
     87          1           0       -3.878244    4.560924   -0.534512
     88          1           0       -2.874587    0.469674   -0.248434
     89          1           0        6.869909   -1.759490   -0.462127
     90          1           0        8.811128   -1.443680   -0.668638
     91          1           0        8.038153   -1.848724    1.164610
     92          1           0        5.984837    1.865694   -0.116011
     93          1           0       -0.568869    2.849983   -0.253292
     94          1           0        5.147693   -0.908019    0.344975
     95          1           0       -0.303948   -0.164902    0.129175
     96          1           0        3.777620    1.962565    0.081228
     97          1           0        1.596419    2.237014   -0.262679
     98          1           0        1.216642   -1.356718    0.487610
     99          1           0        2.512067   -1.838531   -0.667155
    100          1           0        2.899521   -1.304292    1.067631
 ---------------------------------------------------------------------

 SCF Done:  E(RCAM-B3LYP) =  -1857.27017295     A.U. after   15 cycles

 Excitation energies and oscillator strengths:

 Excited State   1:      Singlet-A      2.0470 eV  605.68 nm  f=3.1893  <S**2>=0.000
     163 ->166        -0.13491
     164 ->165         0.69542
 This state for optimization and/or second-order correction.
 Total Energy, E(TD-HF/TD-DFT) =  -1857.19494596
 Copying the excited state density for this state as the 1-particle RhoCI density.

 The electronic state is 1-A.
 Alpha  occ. eigenvalues --  -19.22639 -19.21584 -19.21177 -19.21126 -10.31946
 Alpha  occ. eigenvalues --  -10.31915 -10.31763 -10.31709 -10.31407 -10.28995
 Alpha  occ. eigenvalues --  -10.28784 -10.28735 -10.28352 -10.28084 -10.27794
 Alpha  occ. eigenvalues --  -10.27716 -10.27659 -10.27631 -10.27565 -10.27312
 Alpha  occ. eigenvalues --  -10.27246 -10.27164 -10.27075 -10.27071 -10.26946
 Alpha  occ. eigenvalues --  -10.26904 -10.26869 -10.26721 -10.26693 -10.26601
 Alpha  occ. eigenvalues --  -10.26590 -10.25757 -10.25679 -10.25674 -10.25561
 Alpha  occ. eigenvalues --  -10.25542 -10.25518 -10.25453 -10.24992 -10.24641
 Alpha  occ. eigenvalues --  -10.24486 -10.24277 -10.23841 -10.23816  -1.15563
 Alpha  occ. eigenvalues --   -1.12307  -1.11735  -1.10852  -0.92796  -0.92290
 Alpha  occ. eigenvalues --   -0.91578  -0.90990  -0.90433  -0.89852  -0.87665
 Alpha  occ. eigenvalues --   -0.86975  -0.85918  -0.84630  -0.84128  -0.82499
 Alpha  occ. eigenvalues --   -0.81903  -0.80867  -0.79543  -0.78841  -0.77221
 Alpha  occ. eigenvalues --   -0.76608  -0.75931  -0.75726  -0.75660  -0.75109
 Alpha  occ. eigenvalues --   -0.74336  -0.74091  -0.72668  -0.70217  -0.69624
 Alpha  occ. eigenvalues --   -0.68707  -0.67153  -0.65454  -0.64165  -0.63408
 Alpha  occ. eigenvalues --   -0.63336  -0.62150  -0.60826  -0.60147  -0.59823
 Alpha  occ. eigenvalues --   -0.59177  -0.58956  -0.58400  -0.57586  -0.56794
 Alpha  occ. eigenvalues --   -0.55733  -0.55216  -0.54856  -0.54519  -0.54316
 Alpha  occ. eigenvalues --   -0.53968  -0.53574  -0.52440  -0.52002  -0.51410
 Alpha  occ. eigenvalues --   -0.51391  -0.51279  -0.51003  -0.50270  -0.50167
 Alpha  occ. eigenvalues --   -0.50016  -0.49892  -0.49611  -0.49064  -0.48678
 Alpha  occ. eigenvalues --   -0.48140  -0.48043  -0.47102  -0.46990  -0.46643
 Alpha  occ. eigenvalues --   -0.46596  -0.46481  -0.45682  -0.45482  -0.45044
 Alpha  occ. eigenvalues --   -0.44495  -0.44393  -0.44184  -0.43923  -0.43745
 Alpha  occ. eigenvalues --   -0.43561  -0.43061  -0.42965  -0.42715  -0.42568
 Alpha  occ. eigenvalues --   -0.42443  -0.41972  -0.41497  -0.41189  -0.41112
 Alpha  occ. eigenvalues --   -0.40955  -0.40789  -0.40601  -0.40426  -0.39951
 Alpha  occ. eigenvalues --   -0.39716  -0.39210  -0.39020  -0.38558  -0.38285
 Alpha  occ. eigenvalues --   -0.37986  -0.37703  -0.37262  -0.36393  -0.36101
 Alpha  occ. eigenvalues --   -0.35917  -0.35252  -0.34999  -0.34735  -0.33805
 Alpha  occ. eigenvalues --   -0.32400  -0.32308  -0.31952  -0.31272  -0.30712
 Alpha  occ. eigenvalues --   -0.28356  -0.28042  -0.24582  -0.19509
 Alpha virt. eigenvalues --   -0.06673  -0.01361   0.02692   0.05773   0.06752
 Alpha virt. eigenvalues --    0.09523   0.09969   0.10384   0.11170   0.11593
 Alpha virt. eigenvalues --    0.12026   0.12412   0.12993   0.13594   0.13862

 Mulliken charges:
               1
     1  O   -0.501688
     2  O   -0.510262
     3  O   -0.564916
     4  O   -0.538588
     5  C    0.176745
     6  C    0.214519
     7  C    0.018461
     8  C   -0.213282
     9  C   -0.166064
    10  C    0.119556
    11  C   -0.311044
    12  C   -0.111647
    13  C   -0.319959
    14  C   -0.294130
    15  C   -0.105402
    16  C    0.040002
    17  C   -0.358613
    18  C   -0.099788
    19  C   -0.056610
    20  C    0.020120
    21  C    0.286644
    22  C   -0.182709
    23  C    0.148167
    24  C   -0.198259
    25  C   -0.045108
    26  C   -0.302432
    27  C   -0.275255
    28  C   -0.311226
    29  C   -0.130381
    30  C    0.016334
    31  C    0.075765
    32  C   -0.235421
    33  C   -0.376015
    34  C   -0.087019
    35  C    0.147916
    36  C   -0.362629
    37  C   -0.106281
    38  C   -0.101738
    39  C   -0.117010
    40  C   -0.074282
    41  C   -0.130389
    42  C   -0.129622
    43  C    0.106169
    44  C   -0.350859
    45  H    0.112112
    46  H    0.126081
    47  H    0.108069
    48  H    0.088111
    49  H    0.079247
    50  H    0.103874
    51  H    0.121402
    52  H    0.115298
    53  H    0.108862
    54  H    0.104006
    55  H    0.101853
    56  H    0.104613
    57  H    0.109078
    58  H    0.112276
    59  H    0.085119
    60  H    0.288952
    61  H    0.090852
    62  H    0.124318
    63  H    0.130538
    64  H    0.109518
    65  H    0.070600
    66  H    0.074839
    67  H    0.092135
    68  H    0.095623
    69  H    0.079208
    70  H    0.114288
    71  H    0.114533
    72  H    0.099335
    73  H    0.095815
    74  H    0.105284
    75  H    0.115742
    76  H    0.096740
    77  H    0.067358
    78  H    0.107071
    79  H    0.087610
    80  H    0.124907
    81  H    0.090700
    82  H    0.317534
    83  H    0.302131
    84  H    0.103662
    85  H    0.115847
    86  H    0.144090
    87  H    0.113425
    88  H    0.064654
    89  H    0.113269
    90  H    0.099645
    91  H    0.090376
    92  H    0.079863
    93  H    0.090633
    94  H    0.085981
    95  H    0.088351
    96  H    0.086834
    97  H    0.082389
    98  H    0.106334
    99  H    0.124933
   100  H    0.132313
 Sum of Mulliken charges =  -0.00000

 Dipole moment (field-independent basis, Debye):
    X=              1.0612    Y=             -0.8847    Z=              1.8486  Tot=              2.3078
 Quadrupole moment (field-independent basis, Debye-Ang):
   XX=           -273.3032   YY=           -258.9724   ZZ=           -280.3455
   XY=            -12.2758   XZ=             34.3843   YZ=              0.5484

 Normal termination of Gaussian 16 at Thu Aug  1 13:58:25 2019.
