 Gaussian 16, Revision A.03,
 Gaussian 16:  ES64L-G16RevA.03 25-Dec-2016

 -------------------------------------
 # td=(NStates=1) CAM-B3LYP/6-31G(d,p)
 -------------------------------------

 --
 TD
 --
 Symbolic Z-matrix:
 Charge =  0 Multiplicity = 1

                         Standard orientation:
 ---------------------------------------------------------------------
 Center     Atomic      Atomic             Coordinates (Angstroms)
 Number     Number       Type             X           Y           Z
 ---------------------------------------------------------------------
      1          8           0       11.812538    0.389843    1.472498
      2          8           0       13.018484   -2.572605   -1.296037
      3          8           0      -10.522267   -1.087437    2.163086
      4          8           0      -14.503664   -0.781086    0.276916
      5          6           0       11.004756   -0.123513    0.381748
      6          6           0       11.736508   -1.083381    1.417403
      7          6           0       11.682393    0.276054   -0.934888
      8          6           0       13.016923   -1.710609    1.109148
      9          6           0       13.156696   -0.151131   -0.795972
     10          6           0       13.519839   -1.518922   -0.383337
     11          6           0       10.834427   -1.721174    2.347855
     12          6           0        9.499344    0.199830    0.478167
     13          6           0       11.036239   -0.249517   -2.204602
     14          6           0       11.718383    1.807637   -1.071473
     15          6           0        8.721423   -0.766418   -0.073236
     16          6           0        7.250373   -0.509814   -0.340574
     17          6           0        6.388324   -1.749463   -0.623659
     18          6           0        6.603671    0.681560   -0.010767
     19          6           0        5.216546    0.865783    0.039733
     20          6           0      -11.963788   -0.022674   -1.288450
     21          6           0      -11.575849   -0.587893    1.368454
     22          6           0      -12.822440   -1.300012   -1.260049
     23          6           0      -13.486335   -1.743220   -0.022081
     24          6           0      -12.455695   -1.878303    1.081381
     25          6           0      -11.046212   -0.059241   -0.105653
     26          6           0      -11.138806    0.145042   -2.555202
     27          6           0      -12.685744    1.306720   -1.079718
     28          6           0      -12.394783    0.581830    2.107491
     29          6           0        4.692661    2.205415    0.194700
     30          6           0       -9.847844    0.426013   -0.090536
     31          6           0        3.264551    2.605925    0.359273
     32          6           0       -8.587050    0.830379    0.076260
     33          6           0        2.955326    3.967871    0.731394
     34          6           0        2.285295    1.739808    0.121710
     35          6           0       -7.437674    0.007430   -0.117755
     36          6           0       -7.609328   -1.443656   -0.566016
     37          6           0       -6.231540    0.653811   -0.171487
     38          6           0        0.873964    1.938004    0.314340
     39          6           0       -4.981866    0.024558   -0.220136
     40          6           0       -0.047291    0.936384    0.148821
     41          6           0       -3.773777    0.792693   -0.171404
     42          6           0       -1.411718    1.073662    0.135998
     43          6           0       -2.465477    0.225599   -0.164981
     44          6           0       -2.257111   -1.256186   -0.384364
     45          1           0       13.107690   -2.891980    1.264280
     46          1           0       13.966740   -1.463457    1.668644
     47          1           0       13.764680    0.332532   -1.675848
     48          1           0       13.681455    0.471250    0.155499
     49          1           0       14.656351   -1.533413   -0.374147
     50          1           0       10.409903   -2.509952    1.931686
     51          1           0       11.386217   -2.112896    3.278107
     52          1           0        9.975774   -1.085095    2.703891
     53          1           0        9.404653    1.257270    0.942189
     54          1           0        9.980152    0.055675   -2.168994
     55          1           0       11.465152    0.184597   -3.130315
     56          1           0       11.087586   -1.327993   -2.198506
     57          1           0       12.014880    2.255123   -0.143639
     58          1           0       12.257423    2.317817   -1.980787
     59          1           0       10.633207    2.077764   -1.134633
     60          1           0       12.132612   -2.718424   -0.834805
     61          1           0        9.001834   -1.775321   -0.201498
     62          1           0        5.981598   -2.278233    0.162025
     63          1           0        5.402094   -1.542068   -1.236644
     64          1           0        6.983289   -2.498420   -1.303664
     65          1           0        7.415267    1.666473    0.340274
     66          1           0        4.427812    0.026386   -0.225149
     67          1           0      -13.360488   -1.072916   -2.179042
     68          1           0      -12.109172   -2.027596   -1.660282
     69          1           0      -14.050370   -2.663366   -0.113788
     70          1           0      -13.006663   -2.154150    1.962466
     71          1           0      -11.721704   -2.577216    0.884001
     72          1           0      -11.864207    0.040274   -3.539465
     73          1           0      -10.583582    1.054909   -2.798709
     74          1           0      -10.381351   -0.662008   -2.754274
     75          1           0      -13.299013    1.521799   -0.204437
     76          1           0      -11.922762    2.136091   -1.097000
     77          1           0      -13.351348    1.588754   -1.981091
     78          1           0      -12.654564    0.303651    3.138377
     79          1           0      -11.702432    1.493621    2.255021
     80          1           0      -13.437626    0.802650    1.815801
     81          1           0        5.476176    2.807771    0.459301
     82          1           0       -9.710126   -0.498379    2.215924
     83          1           0      -15.222573   -0.823566   -0.509743
     84          1           0       -8.388872    1.858155    0.444811
     85          1           0        2.409128    4.932617    0.176176
     86          1           0        2.517274    4.044574    1.598102
     87          1           0        3.904002    4.589498    1.045429
     88          1           0        2.541186    0.882784   -0.273996
     89          1           0       -6.648676   -1.962250   -0.426119
     90          1           0       -8.278887   -1.842744    0.253524
     91          1           0       -8.017179   -1.450593   -1.523642
     92          1           0       -6.109781    1.786150    0.189670
     93          1           0        0.450989    2.823057    0.674659
     94          1           0       -4.904192   -0.999427   -0.357056
     95          1           0        0.361337    0.058851   -0.018895
     96          1           0       -3.765749    2.013147   -0.177016
     97          1           0       -1.757889    1.901907    0.519201
     98          1           0       -1.078891   -1.255334   -0.425093
     99          1           0       -2.793092   -1.886012    0.401862
    100          1           0       -2.539875   -1.763344   -1.429560
 ---------------------------------------------------------------------

 SCF Done:  E(RCAM-B3LYP) =  -1857.31622204     A.U. after   15 cycles

 Excitation energies and oscillator strengths:

 Excited State   1:      Singlet-A      2.2491 eV  551.25 nm  f=3.1683  <S**2>=0.000
     163 ->166         0.15805
     164 ->165         0.68607
 This state for optimization and/or second-order correction.
 Total Energy, E(TD-HF/TD-DFT) =  -1857.23356760
 Copying the excited state density for this state as the 1-particle RhoCI density.

 The electronic state is 1-A.
 Alpha  occ. eigenvalues --  -19.22245 -19.21947 -19.21860 -19.21449 -10.33826
 Alpha  occ. eigenvalues --  -10.33092 -10.32174 -10.31264 -10.31048 -10.28603
 Alpha  occ. eigenvalues --  -10.28392 -10.28215 -10.28173 -10.28167 -10.28066
 Alpha  occ. eigenvalues --  -10.27848 -10.27809 -10.27732 -10.27665 -10.27599
 Alpha  occ. eigenvalues --  -10.27438 -10.27202 -10.26988 -10.26811 -10.26753
 Alpha  occ. eigenvalues --  -10.26733 -10.26579 -10.26489 -10.26437 -10.26196
 Alpha  occ. eigenvalues --  -10.26159 -10.25791 -10.25719 -10.25489 -10.25424
 Alpha  occ. eigenvalues --  -10.25190 -10.25173 -10.24987 -10.24918 -10.24857
 Alpha  occ. eigenvalues --  -10.24651 -10.24636 -10.24425 -10.23492  -1.13200
 Alpha  occ. eigenvalues --   -1.09325  -1.08598  -1.07332  -0.93519  -0.92827
 Alpha  occ. eigenvalues --   -0.91831  -0.91110  -0.90684  -0.89654  -0.87827
 Alpha  occ. eigenvalues --   -0.87352  -0.86162  -0.85706  -0.84764  -0.82993
 Alpha  occ. eigenvalues --   -0.82474  -0.81085  -0.80018  -0.78864  -0.76933
 Alpha  occ. eigenvalues --   -0.76324  -0.76078  -0.76060  -0.75457  -0.75292
 Alpha  occ. eigenvalues --   -0.75065  -0.74013  -0.73047  -0.70684  -0.69727
 Alpha  occ. eigenvalues --   -0.69009  -0.66594  -0.65284  -0.64814  -0.64363
 Alpha  occ. eigenvalues --   -0.63964  -0.62861  -0.61534  -0.60047  -0.59546
 Alpha  occ. eigenvalues --   -0.58819  -0.58299  -0.57616  -0.57351  -0.56485
 Alpha  occ. eigenvalues --   -0.56117  -0.55371  -0.54875  -0.54748  -0.54109
 Alpha  occ. eigenvalues --   -0.53387  -0.53081  -0.52528  -0.52436  -0.51709
 Alpha  occ. eigenvalues --   -0.51231  -0.50790  -0.50675  -0.50220  -0.50009
 Alpha  occ. eigenvalues --   -0.49810  -0.49550  -0.48475  -0.48366  -0.48012
 Alpha  occ. eigenvalues --   -0.47823  -0.47715  -0.47426  -0.47171  -0.46814
 Alpha  occ. eigenvalues --   -0.46721  -0.46174  -0.45835  -0.45593  -0.45362
 Alpha  occ. eigenvalues --   -0.45073  -0.44472  -0.44139  -0.43621  -0.43403
 Alpha  occ. eigenvalues --   -0.43361  -0.43072  -0.42585  -0.42539  -0.42442
 Alpha  occ. eigenvalues --   -0.41984  -0.41757  -0.41525  -0.41268  -0.41191
 Alpha  occ. eigenvalues --   -0.40718  -0.40368  -0.40339  -0.40106  -0.39984
 Alpha  occ. eigenvalues --   -0.39738  -0.39373  -0.39291  -0.39115  -0.38812
 Alpha  occ. eigenvalues --   -0.38405  -0.38288  -0.37909  -0.37198  -0.36745
 Alpha  occ. eigenvalues --   -0.36246  -0.35452  -0.35151  -0.34389  -0.33824
 Alpha  occ. eigenvalues --   -0.33011  -0.32852  -0.31848  -0.31337  -0.30514
 Alpha  occ. eigenvalues --   -0.29880  -0.27999  -0.23985  -0.20050
 Alpha virt. eigenvalues --   -0.05912  -0.01548   0.02819   0.06106   0.07382
 Alpha virt. eigenvalues --    0.09024   0.09099   0.09623   0.10327   0.10969
 Alpha virt. eigenvalues --    0.11743   0.12097   0.13301   0.13638   0.14056

 Mulliken charges:
               1
     1  O   -0.519758
     2  O   -0.539434
     3  O   -0.575553
     4  O   -0.562274
     5  C    0.140960
     6  C    0.297512
     7  C    0.045740
     8  C   -0.268369
     9  C   -0.158971
    10  C    0.131552
    11  C   -0.342441
    12  C   -0.106019
    13  C   -0.293577
    14  C   -0.314073
    15  C   -0.074797
    16  C    0.058979
    17  C   -0.376804
    18  C   -0.090161
    19  C   -0.078761
    20  C    0.026526
    21  C    0.281836
    22  C   -0.189957
    23  C    0.161767
    24  C   -0.191588
    25  C   -0.103196
    26  C   -0.317271
    27  C   -0.290987
    28  C   -0.328651
    29  C   -0.118013
    30  C    0.159805
    31  C    0.111918
    32  C   -0.289597
    33  C   -0.392216
    34  C   -0.084428
    35  C    0.084243
    36  C   -0.353382
    37  C   -0.091181
    38  C   -0.079739
    39  C   -0.093683
    40  C   -0.057751
    41  C   -0.136908
    42  C   -0.112844
    43  C    0.125443
    44  C   -0.363760
    45  H    0.099347
    46  H    0.132127
    47  H    0.079342
    48  H    0.086671
    49  H    0.096143
    50  H    0.122117
    51  H    0.100421
    52  H    0.129538
    53  H    0.133722
    54  H    0.106258
    55  H    0.103267
    56  H    0.092373
    57  H    0.123548
    58  H    0.098934
    59  H    0.085102
    60  H    0.300924
    61  H    0.097246
    62  H    0.139927
    63  H    0.099834
    64  H    0.092176
    65  H    0.062484
    66  H    0.089295
    67  H    0.085718
    68  H    0.097499
    69  H    0.089982
    70  H    0.113597
    71  H    0.129760
    72  H    0.067296
    73  H    0.129151
    74  H    0.102135
    75  H    0.130058
    76  H    0.097038
    77  H    0.068876
    78  H    0.104450
    79  H    0.086406
    80  H    0.142043
    81  H    0.083786
    82  H    0.314766
    83  H    0.313875
    84  H    0.105319
    85  H    0.103703
    86  H    0.144647
    87  H    0.087949
    88  H    0.061463
    89  H    0.107793
    90  H    0.121713
    91  H    0.140580
    92  H    0.072251
    93  H    0.078503
    94  H    0.085493
    95  H    0.063453
    96  H    0.078387
    97  H    0.065609
    98  H    0.097867
    99  H    0.124475
   100  H    0.103424
 Sum of Mulliken charges =  -0.00000

 Dipole moment (field-independent basis, Debye):
    X=             -4.4399    Y=             -0.9859    Z=              0.0420  Tot=              4.5482
 Quadrupole moment (field-independent basis, Debye-Ang):
   XX=           -274.4507   YY=           -260.3733   ZZ=           -279.2058
   XY=              5.2324   XZ=             40.3870   YZ=              1.2033

 Normal termination of Gaussian 16 at Tue Jul 30 02:23:25 2019.
