 Gaussian 16, Revision A.03,
 Gaussian 16:  ES64L-G16RevA.03 25-Dec-2016

 -------------------------------------
 # td=(NStates=1) CAM-B3LYP/6-31G(d,p)
 -------------------------------------

 --
 TD
 --
 Symbolic Z-matrix:
 Charge =  0 Multiplicity = 1

                         Standard orientation:
 ---------------------------------------------------------------------
 Center     Atomic      Atomic             Coordinates (Angstroms)
 Number     Number       Type             X           Y           Z
 ---------------------------------------------------------------------
      1          8           0       11.801345   -0.024187    1.737442
      2          8           0       13.127949   -2.222455   -1.589465
      3          8           0      -10.520562   -1.178013    2.099936
      4          8           0      -14.590526   -1.149697    0.291779
      5          6           0       11.100510   -0.117926    0.417172
      6          6           0       11.710374   -1.329027    1.154803
      7          6           0       11.815853    0.481237   -0.797125
      8          6           0       13.107980   -1.838640    0.849539
      9          6           0       13.369596   -0.000886   -0.805117
     10          6           0       13.625501   -1.386224   -0.482396
     11          6           0       10.937763   -2.238528    2.133467
     12          6           0        9.611827    0.029372    0.542707
     13          6           0       11.084910    0.182205   -2.115331
     14          6           0       11.692632    2.020054   -0.500646
     15          6           0        8.740260   -0.804130   -0.201819
     16          6           0        7.280850   -0.595761   -0.257340
     17          6           0        6.469131   -1.743574   -0.827449
     18          6           0        6.620082    0.564895   -0.001837
     19          6           0        5.172466    0.870036    0.051200
     20          6           0      -12.007653    0.117655   -1.273404
     21          6           0      -11.657705   -0.730882    1.251944
     22          6           0      -12.841241   -1.162802   -1.437841
     23          6           0      -13.407874   -1.807080   -0.179714
     24          6           0      -12.489315   -1.954016    0.936214
     25          6           0      -11.112387   -0.047427   -0.003054
     26          6           0      -11.150863    0.401761   -2.462107
     27          6           0      -12.974041    1.354562   -0.947095
     28          6           0      -12.341435    0.199770    2.255950
     29          6           0        4.698477    2.137771    0.355092
     30          6           0       -9.928570    0.471759    0.034845
     31          6           0        3.371041    2.485720    0.410812
     32          6           0       -8.694436    0.980018   -0.009874
     33          6           0        3.089762    3.800669    1.012361
     34          6           0        2.349019    1.537689    0.171915
     35          6           0       -7.520617    0.213254   -0.175171
     36          6           0       -7.658194   -1.193705   -0.708692
     37          6           0       -6.257095    0.779329    0.002320
     38          6           0        0.980921    1.802299    0.328170
     39          6           0       -5.053515    0.203629   -0.182710
     40          6           0       -0.063806    0.930001    0.096626
     41          6           0       -3.902089    0.968793    0.145848
     42          6           0       -1.467178    1.218291    0.114822
     43          6           0       -2.617291    0.446952   -0.131857
     44          6           0       -2.433749   -1.018730   -0.557551
     45          1           0       12.999483   -2.860923    0.855062
     46          1           0       13.988202   -1.421054    1.516461
     47          1           0       13.776076    0.119248   -1.799003
     48          1           0       13.638734    0.846059   -0.179876
     49          1           0       14.576267   -1.597977   -0.455342
     50          1           0       10.516021   -3.226383    1.822149
     51          1           0       11.584175   -2.488821    2.868475
     52          1           0       10.031272   -1.876325    2.618703
     53          1           0        9.259618    0.698428    1.049758
     54          1           0        9.994761    0.205606   -1.921442
     55          1           0       11.391492    1.030018   -2.965389
     56          1           0       11.386540   -0.981664   -2.123384
     57          1           0       12.041204    2.165892    0.593666
     58          1           0       12.538700    2.502520   -1.018581
     59          1           0       10.733833    2.589919   -0.783571
     60          1           0       12.058277   -2.263647   -1.582352
     61          1           0        9.159008   -1.651323   -0.798505
     62          1           0        5.606197   -2.027107   -0.050346
     63          1           0        5.906535   -1.324383   -1.848934
     64          1           0        7.118369   -2.659056   -0.983626
     65          1           0        7.219309    1.458385    0.220080
     66          1           0        4.519920    0.081354   -0.267778
     67          1           0      -13.507171   -0.984450   -2.302476
     68          1           0      -12.143937   -1.718161   -1.958047
     69          1           0      -13.838463   -2.771881   -0.537073
     70          1           0      -13.037687   -2.313069    1.837911
     71          1           0      -11.730835   -2.801042    0.459446
     72          1           0      -11.616473    0.320571   -3.299579
     73          1           0      -10.830111    1.390228   -2.011931
     74          1           0      -10.435007   -0.301031   -2.506179
     75          1           0      -13.725095    1.079128   -0.156197
     76          1           0      -12.246761    2.135100   -0.779788
     77          1           0      -13.498749    1.397163   -1.893737
     78          1           0      -12.389680   -0.398652    3.248353
     79          1           0      -11.587829    1.063057    2.513217
     80          1           0      -13.393877    0.489461    1.966039
     81          1           0        5.552699    2.768156    0.407351
     82          1           0       -9.987267   -0.154037    2.295414
     83          1           0      -15.146497   -1.276505   -0.591009
     84          1           0       -8.476941    2.141017    0.267751
     85          1           0        2.611826    4.277912    0.137219
     86          1           0        2.576005    3.672635    1.851327
     87          1           0        3.964122    4.286953    1.273554
     88          1           0        2.643689    0.653819   -0.346089
     89          1           0       -6.632680   -1.857705   -0.772491
     90          1           0       -8.401373   -1.729308   -0.142641
     91          1           0       -7.946347   -1.128159   -1.821512
     92          1           0       -6.321399    1.907171    0.182461
     93          1           0        0.695924    2.759893    0.752928
     94          1           0       -4.744890   -0.832992   -0.433221
     95          1           0        0.173224   -0.058653   -0.298851
     96          1           0       -4.079366    2.035228    0.282724
     97          1           0       -1.703678    2.451859    0.105387
     98          1           0       -1.301039   -1.631767   -0.402586
     99          1           0       -3.071931   -1.801964    0.006020
    100          1           0       -2.511456   -1.164210   -1.663516
 ---------------------------------------------------------------------

 SCF Done:  E(RCAM-B3LYP) =  -1857.25710997     A.U. after   15 cycles

 Excitation energies and oscillator strengths:

 Excited State   1:      Singlet-A      2.0108 eV  616.58 nm  f=3.1913  <S**2>=0.000
     163 ->166        -0.14293
     164 ->165         0.69273
 This state for optimization and/or second-order correction.
 Total Energy, E(TD-HF/TD-DFT) =  -1857.18321316
 Copying the excited state density for this state as the 1-particle RhoCI density.

 The electronic state is 1-A.
 Alpha  occ. eigenvalues --  -19.22765 -19.21721 -19.21527 -19.21473 -10.32669
 Alpha  occ. eigenvalues --  -10.32163 -10.32027 -10.31556 -10.29108 -10.28619
 Alpha  occ. eigenvalues --  -10.28460 -10.28415 -10.28312 -10.28309 -10.28290
 Alpha  occ. eigenvalues --  -10.27955 -10.27840 -10.27757 -10.27527 -10.27291
 Alpha  occ. eigenvalues --  -10.27129 -10.27053 -10.27037 -10.26981 -10.26826
 Alpha  occ. eigenvalues --  -10.26550 -10.26522 -10.26499 -10.26405 -10.26390
 Alpha  occ. eigenvalues --  -10.26263 -10.26137 -10.26134 -10.26059 -10.26032
 Alpha  occ. eigenvalues --  -10.25971 -10.25793 -10.25479 -10.25384 -10.24929
 Alpha  occ. eigenvalues --  -10.24791 -10.24326 -10.23867 -10.22987  -1.13012
 Alpha  occ. eigenvalues --   -1.09841  -1.06710  -1.05507  -0.93850  -0.92870
 Alpha  occ. eigenvalues --   -0.92014  -0.91158  -0.90189  -0.89896  -0.87566
 Alpha  occ. eigenvalues --   -0.87188  -0.86976  -0.85617  -0.84655  -0.83140
 Alpha  occ. eigenvalues --   -0.82415  -0.81191  -0.80191  -0.78503  -0.77964
 Alpha  occ. eigenvalues --   -0.76900  -0.76593  -0.76385  -0.75969  -0.75357
 Alpha  occ. eigenvalues --   -0.75208  -0.73736  -0.72816  -0.70721  -0.69939
 Alpha  occ. eigenvalues --   -0.68695  -0.67257  -0.66417  -0.64373  -0.64163
 Alpha  occ. eigenvalues --   -0.63845  -0.61720  -0.60534  -0.60487  -0.59422
 Alpha  occ. eigenvalues --   -0.58483  -0.58342  -0.57831  -0.57056  -0.56321
 Alpha  occ. eigenvalues --   -0.55619  -0.55150  -0.54933  -0.54666  -0.54289
 Alpha  occ. eigenvalues --   -0.53948  -0.53086  -0.52696  -0.52588  -0.52125
 Alpha  occ. eigenvalues --   -0.51955  -0.51419  -0.50644  -0.50392  -0.50080
 Alpha  occ. eigenvalues --   -0.49609  -0.49430  -0.49020  -0.48653  -0.48217
 Alpha  occ. eigenvalues --   -0.48107  -0.47917  -0.47532  -0.47204  -0.47050
 Alpha  occ. eigenvalues --   -0.46849  -0.46528  -0.46111  -0.45884  -0.45522
 Alpha  occ. eigenvalues --   -0.45374  -0.44942  -0.44480  -0.43764  -0.43699
 Alpha  occ. eigenvalues --   -0.43390  -0.43233  -0.42979  -0.42737  -0.42615
 Alpha  occ. eigenvalues --   -0.42463  -0.42094  -0.41663  -0.41597  -0.41214
 Alpha  occ. eigenvalues --   -0.41005  -0.40560  -0.40371  -0.40013  -0.39870
 Alpha  occ. eigenvalues --   -0.39473  -0.39341  -0.39080  -0.39043  -0.38728
 Alpha  occ. eigenvalues --   -0.38598  -0.38063  -0.37884  -0.37255  -0.37131
 Alpha  occ. eigenvalues --   -0.36411  -0.35287  -0.35114  -0.34623  -0.33894
 Alpha  occ. eigenvalues --   -0.32544  -0.32103  -0.31802  -0.31657  -0.31012
 Alpha  occ. eigenvalues --   -0.30206  -0.27981  -0.23992  -0.19203
 Alpha virt. eigenvalues --   -0.06513  -0.01714   0.02509   0.05734   0.06177
 Alpha virt. eigenvalues --    0.07453   0.08398   0.09136   0.10324   0.11018
 Alpha virt. eigenvalues --    0.11534   0.12660   0.12960   0.13293   0.13535

 Mulliken charges:
               1
     1  O   -0.511821
     2  O   -0.568862
     3  O   -0.566891
     4  O   -0.546604
     5  C    0.203945
     6  C    0.212770
     7  C   -0.004901
     8  C   -0.188249
     9  C   -0.174296
    10  C    0.158556
    11  C   -0.339138
    12  C   -0.039297
    13  C   -0.271735
    14  C   -0.345670
    15  C   -0.109937
    16  C    0.091721
    17  C   -0.362948
    18  C   -0.132869
    19  C   -0.053760
    20  C   -0.043655
    21  C    0.232485
    22  C   -0.204151
    23  C    0.152235
    24  C   -0.182098
    25  C   -0.037470
    26  C   -0.271931
    27  C   -0.292247
    28  C   -0.292894
    29  C   -0.118927
    30  C    0.134598
    31  C    0.054273
    32  C   -0.300502
    33  C   -0.354131
    34  C   -0.094881
    35  C    0.143100
    36  C   -0.369469
    37  C   -0.123671
    38  C   -0.084917
    39  C   -0.062724
    40  C   -0.081455
    41  C   -0.114835
    42  C   -0.138608
    43  C    0.120024
    44  C   -0.383217
    45  H    0.112779
    46  H    0.108038
    47  H    0.114630
    48  H    0.111572
    49  H    0.105750
    50  H    0.090660
    51  H    0.127521
    52  H    0.120982
    53  H    0.073699
    54  H    0.118307
    55  H    0.096521
    56  H    0.041770
    57  H    0.121465
    58  H    0.101248
    59  H    0.107901
    60  H    0.302529
    61  H    0.086313
    62  H    0.111195
    63  H    0.106580
    64  H    0.105171
    65  H    0.071318
    66  H    0.080553
    67  H    0.081090
    68  H    0.105332
    69  H    0.083087
    70  H    0.125392
    71  H    0.097788
    72  H    0.098056
    73  H    0.107004
    74  H    0.114452
    75  H    0.131079
    76  H    0.101753
    77  H    0.094170
    78  H    0.117686
    79  H    0.074884
    80  H    0.120101
    81  H    0.087354
    82  H    0.295311
    83  H    0.307274
    84  H    0.096399
    85  H    0.128100
    86  H    0.140563
    87  H    0.112490
    88  H    0.081943
    89  H    0.087995
    90  H    0.140158
    91  H    0.115819
    92  H    0.073813
    93  H    0.084149
    94  H    0.093916
    95  H    0.076088
    96  H    0.087409
    97  H    0.055201
    98  H    0.078970
    99  H    0.119238
   100  H    0.134490
 Sum of Mulliken charges =  -0.00000

 Dipole moment (field-independent basis, Debye):
    X=             -3.4153    Y=              0.2308    Z=             -2.8816  Tot=              4.4745
 Quadrupole moment (field-independent basis, Debye-Ang):
   XX=           -268.6558   YY=           -260.6434   ZZ=           -279.0507
   XY=             10.6343   XZ=             37.0228   YZ=              4.7033

 Normal termination of Gaussian 16 at Tue Jul 30 18:22:50 2019.
