 Gaussian 16, Revision A.03,
 Gaussian 16:  ES64L-G16RevA.03 25-Dec-2016

 -------------------------------------
 # td=(NStates=1) CAM-B3LYP/6-31G(d,p)
 -------------------------------------

 --
 TD
 --
 Symbolic Z-matrix:
 Charge =  0 Multiplicity = 1

                         Standard orientation:
 ---------------------------------------------------------------------
 Center     Atomic      Atomic             Coordinates (Angstroms)
 Number     Number       Type             X           Y           Z
 ---------------------------------------------------------------------
      1          8           0      -11.578203    0.400549   -1.478105
      2          8           0      -13.135012   -2.389791    1.208808
      3          8           0       10.760337   -0.785155   -2.219238
      4          8           0       14.443490   -1.203808   -0.161835
      5          6           0      -10.987266   -0.188657   -0.287573
      6          6           0      -11.743974   -1.060918   -1.226007
      7          6           0      -11.727413    0.371048    0.934126
      8          6           0      -13.151535   -1.563057   -0.969354
      9          6           0      -13.308220    0.048284    0.865382
     10          6           0      -13.574643   -1.266504    0.396853
     11          6           0      -10.985383   -1.957539   -2.107334
     12          6           0       -9.478262    0.028316   -0.267507
     13          6           0      -11.322114   -0.155253    2.344693
     14          6           0      -11.597736    1.952313    0.989420
     15          6           0       -8.660588   -0.954146    0.133403
     16          6           0       -7.157698   -0.663681   -0.044617
     17          6           0       -6.334016   -1.920173    0.515446
     18          6           0       -6.587723    0.503177   -0.278361
     19          6           0       -5.258241    0.799898   -0.246597
     20          6           0       11.907510    0.138089    1.343298
     21          6           0       11.810376   -0.482275   -1.238590
     22          6           0       12.614755   -1.249548    1.508534
     23          6           0       13.350470   -1.920987    0.250343
     24          6           0       12.383907   -1.903668   -0.919682
     25          6           0       11.167230    0.038240    0.007033
     26          6           0       10.937670    0.293908    2.527547
     27          6           0       12.953189    1.186377    1.290779
     28          6           0       12.641461    0.503367   -2.045118
     29          6           0       -4.780607    2.016579   -0.494844
     30          6           0        9.841671    0.450769    0.013986
     31          6           0       -3.401668    2.472306   -0.489668
     32          6           0        8.634855    0.908599   -0.051727
     33          6           0       -2.971525    3.939570   -0.683719
     34          6           0       -2.449633    1.558565   -0.163806
     35          6           0        7.436223    0.067774    0.051542
     36          6           0        7.755764   -1.352752    0.261804
     37          6           0        6.263574    0.707991   -0.073742
     38          6           0       -1.019904    1.807750   -0.121186
     39          6           0        4.950708    0.130969    0.083734
     40          6           0       -0.004666    0.879766    0.091076
     41          6           0        3.769191    0.901929   -0.006867
     42          6           0        1.403065    1.224523   -0.012715
     43          6           0        2.496801    0.367914    0.056323
     44          6           0        2.269213   -1.127975    0.374677
     45          1           0      -13.041824   -2.564935   -1.236416
     46          1           0      -13.687326   -1.070734   -1.819564
     47          1           0      -13.561119    0.243684    1.866831
     48          1           0      -13.771689    0.791177    0.266752
     49          1           0      -14.756955   -1.333864    0.393415
     50          1           0      -10.846991   -3.158379   -1.652995
     51          1           0      -11.450087   -2.124409   -2.948411
     52          1           0       -9.913035   -1.665496   -2.312975
     53          1           0       -9.085505    0.883862   -0.731949
     54          1           0      -10.196445   -0.082855    2.544008
     55          1           0      -11.905375    0.475392    3.069502
     56          1           0      -11.631063   -1.445485    2.680456
     57          1           0      -11.986117    2.377373   -0.100972
     58          1           0      -12.096027    2.366082    1.755340
     59          1           0      -10.580138    2.496671    1.059382
     60          1           0      -12.299296   -2.868272    0.604730
     61          1           0       -8.927437   -1.971240    0.221775
     62          1           0       -5.457937   -1.888398   -0.099166
     63          1           0       -5.992323   -1.755697    1.697338
     64          1           0       -7.170567   -2.921830    0.357386
     65          1           0       -7.202886    1.538375   -0.631241
     66          1           0       -4.537306    0.131563   -0.179691
     67          1           0       13.366882   -1.190472    2.212428
     68          1           0       11.891887   -2.027478    1.863491
     69          1           0       13.792846   -2.915720    0.435579
     70          1           0       12.963858   -2.192868   -1.758551
     71          1           0       11.692583   -2.675977   -0.837447
     72          1           0       11.647069    0.145706    3.475733
     73          1           0       10.331523    1.308951    2.455744
     74          1           0       10.089183   -0.391633    2.590605
     75          1           0       13.638912    0.986474    0.375966
     76          1           0       12.654429    2.197218    1.060533
     77          1           0       13.461459    1.458739    2.297816
     78          1           0       12.905781    0.162462   -3.077709
     79          1           0       12.267406    1.419219   -2.371406
     80          1           0       13.558660    0.851745   -1.502667
     81          1           0       -5.534160    2.716226   -0.803669
     82          1           0       10.246098    0.047905   -2.541468
     83          1           0       15.030447   -0.908287    0.725537
     84          1           0        8.445312    2.075499   -0.458881
     85          1           0       -2.697793    4.466033    0.233683
     86          1           0       -1.947404    3.841133   -1.364198
     87          1           0       -3.683194    4.589099   -1.210442
     88          1           0       -2.718429    0.608501   -0.054360
     89          1           0        6.782501   -1.883345    0.019836
     90          1           0        8.480080   -1.834585   -0.507304
     91          1           0        8.164156   -1.567534    1.259519
     92          1           0        6.421563    1.697466   -0.357808
     93          1           0       -0.707923    2.853159   -0.562625
     94          1           0        4.900595   -0.968052    0.070261
     95          1           0        0.035898   -0.357633    0.389305
     96          1           0        3.822136    1.969258   -0.183839
     97          1           0        1.589178    2.165088   -0.563700
     98          1           0        1.214588   -1.292766    0.582253
     99          1           0        2.527803   -1.758759   -0.625106
    100          1           0        3.029706   -1.407038    1.266395
 ---------------------------------------------------------------------

 SCF Done:  E(RCAM-B3LYP) =  -1857.24558809     A.U. after   15 cycles

 Excitation energies and oscillator strengths:

 Excited State   1:      Singlet-A      2.4991 eV  496.12 nm  f=3.0833  <S**2>=0.000
     163 ->166         0.15022
     164 ->165         0.68806
 This state for optimization and/or second-order correction.
 Total Energy, E(TD-HF/TD-DFT) =  -1857.15374947
 Copying the excited state density for this state as the 1-particle RhoCI density.

 The electronic state is 1-A.
 Alpha  occ. eigenvalues --  -19.22617 -19.22451 -19.21973 -19.20272 -10.32654
 Alpha  occ. eigenvalues --  -10.32441 -10.31727 -10.30957 -10.30860 -10.29137
 Alpha  occ. eigenvalues --  -10.28553 -10.28328 -10.27972 -10.27773 -10.27763
 Alpha  occ. eigenvalues --  -10.27698 -10.27587 -10.27515 -10.27394 -10.27268
 Alpha  occ. eigenvalues --  -10.27214 -10.27030 -10.26919 -10.26911 -10.26834
 Alpha  occ. eigenvalues --  -10.26712 -10.26562 -10.26474 -10.26372 -10.26277
 Alpha  occ. eigenvalues --  -10.26242 -10.26217 -10.26203 -10.25840 -10.25676
 Alpha  occ. eigenvalues --  -10.25462 -10.25436 -10.25193 -10.25146 -10.24978
 Alpha  occ. eigenvalues --  -10.24372 -10.24305 -10.24281 -10.24039  -1.13200
 Alpha  occ. eigenvalues --   -1.10047  -1.07150  -1.06881  -0.92878  -0.92776
 Alpha  occ. eigenvalues --   -0.91864  -0.90780  -0.90331  -0.89949  -0.88268
 Alpha  occ. eigenvalues --   -0.87022  -0.85550  -0.85417  -0.83902  -0.82745
 Alpha  occ. eigenvalues --   -0.81759  -0.80846  -0.79952  -0.77571  -0.77463
 Alpha  occ. eigenvalues --   -0.76841  -0.76476  -0.76240  -0.75647  -0.75561
 Alpha  occ. eigenvalues --   -0.74103  -0.73437  -0.72863  -0.70242  -0.69032
 Alpha  occ. eigenvalues --   -0.68441  -0.67050  -0.65681  -0.64854  -0.64813
 Alpha  occ. eigenvalues --   -0.63529  -0.62064  -0.60378  -0.60085  -0.59765
 Alpha  occ. eigenvalues --   -0.58356  -0.58023  -0.57471  -0.56850  -0.56337
 Alpha  occ. eigenvalues --   -0.55706  -0.55297  -0.55127  -0.54395  -0.54201
 Alpha  occ. eigenvalues --   -0.53863  -0.52647  -0.52454  -0.52046  -0.51972
 Alpha  occ. eigenvalues --   -0.51507  -0.51249  -0.50109  -0.49628  -0.49068
 Alpha  occ. eigenvalues --   -0.48866  -0.48541  -0.48366  -0.48157  -0.47884
 Alpha  occ. eigenvalues --   -0.47468  -0.47250  -0.47178  -0.47120  -0.46708
 Alpha  occ. eigenvalues --   -0.46384  -0.46257  -0.45923  -0.45390  -0.45019
 Alpha  occ. eigenvalues --   -0.44999  -0.44818  -0.44329  -0.44044  -0.43809
 Alpha  occ. eigenvalues --   -0.43578  -0.43457  -0.42960  -0.42676  -0.41953
 Alpha  occ. eigenvalues --   -0.41826  -0.41540  -0.41486  -0.41421  -0.41156
 Alpha  occ. eigenvalues --   -0.40485  -0.40459  -0.40386  -0.40124  -0.39951
 Alpha  occ. eigenvalues --   -0.39665  -0.39412  -0.38713  -0.37929  -0.37905
 Alpha  occ. eigenvalues --   -0.37725  -0.37529  -0.37018  -0.36994  -0.36868
 Alpha  occ. eigenvalues --   -0.35976  -0.35808  -0.35339  -0.34662  -0.33540
 Alpha  occ. eigenvalues --   -0.32192  -0.32039  -0.31714  -0.31542  -0.30601
 Alpha  occ. eigenvalues --   -0.28672  -0.28391  -0.24616  -0.20413
 Alpha virt. eigenvalues --   -0.04989  -0.00309   0.03788   0.04510   0.06738
 Alpha virt. eigenvalues --    0.07074   0.08816   0.09588   0.10716   0.10766
 Alpha virt. eigenvalues --    0.11653   0.12038   0.12309   0.12763   0.13254

 Mulliken charges:
               1
     1  O   -0.515629
     2  O   -0.560199
     3  O   -0.591546
     4  O   -0.540150
     5  C    0.183340
     6  C    0.231929
     7  C    0.018268
     8  C   -0.236930
     9  C   -0.161487
    10  C    0.192792
    11  C   -0.326980
    12  C   -0.077207
    13  C   -0.297240
    14  C   -0.315399
    15  C   -0.062101
    16  C   -0.005606
    17  C   -0.323950
    18  C   -0.071923
    19  C   -0.002092
    20  C    0.046437
    21  C    0.278738
    22  C   -0.201601
    23  C    0.153137
    24  C   -0.180371
    25  C   -0.059896
    26  C   -0.301238
    27  C   -0.319767
    28  C   -0.320158
    29  C   -0.150406
    30  C    0.154755
    31  C    0.089193
    32  C   -0.314186
    33  C   -0.362738
    34  C   -0.078876
    35  C    0.132834
    36  C   -0.382654
    37  C   -0.086645
    38  C   -0.125066
    39  C   -0.121894
    40  C   -0.068319
    41  C   -0.100875
    42  C   -0.137068
    43  C    0.116041
    44  C   -0.348834
    45  H    0.115134
    46  H    0.131177
    47  H    0.110202
    48  H    0.114184
    49  H    0.074436
    50  H    0.050553
    51  H    0.132418
    52  H    0.128454
    53  H    0.117489
    54  H    0.097520
    55  H    0.097190
    56  H    0.080007
    57  H    0.099718
    58  H    0.111608
    59  H    0.091340
    60  H    0.301229
    61  H    0.086960
    62  H    0.126431
    63  H    0.111339
    64  H    0.070232
    65  H    0.066702
    66  H    0.065856
    67  H    0.079801
    68  H    0.096095
    69  H    0.077563
    70  H    0.119041
    71  H    0.121426
    72  H    0.080686
    73  H    0.100650
    74  H    0.113981
    75  H    0.110676
    76  H    0.108886
    77  H    0.087661
    78  H    0.114348
    79  H    0.106099
    80  H    0.106291
    81  H    0.066423
    82  H    0.306733
    83  H    0.306214
    84  H    0.085724
    85  H    0.137918
    86  H    0.096227
    87  H    0.112581
    88  H    0.073271
    89  H    0.094075
    90  H    0.139115
    91  H    0.126740
    92  H    0.072576
    93  H    0.079054
    94  H    0.095221
    95  H    0.062932
    96  H    0.086028
    97  H    0.078922
    98  H    0.107061
    99  H    0.109727
   100  H    0.111640
 Sum of Mulliken charges =  -0.00000

 Dipole moment (field-independent basis, Debye):
    X=              2.6138    Y=             -0.2046    Z=             -0.0993  Tot=              2.6237
 Quadrupole moment (field-independent basis, Debye-Ang):
   XX=           -259.9028   YY=           -258.0035   ZZ=           -277.6384
   XY=             11.2122   XZ=             36.0567   YZ=             -1.6194

 Normal termination of Gaussian 16 at Wed Jul 31 15:46:13 2019.
