 Gaussian 16, Revision A.03,
 Gaussian 16:  ES64L-G16RevA.03 25-Dec-2016

 -------------------------------------
 # td=(NStates=1) CAM-B3LYP/6-31G(d,p)
 -------------------------------------

 --
 TD
 --
 Symbolic Z-matrix:
 Charge =  0 Multiplicity = 1

                         Standard orientation:
 ---------------------------------------------------------------------
 Center     Atomic      Atomic             Coordinates (Angstroms)
 Number     Number       Type             X           Y           Z
 ---------------------------------------------------------------------
      1          8           0      -11.658194    0.528952   -1.389638
      2          8           0      -12.945154   -2.547690    1.081912
      3          8           0       10.559671   -1.100618   -2.089422
      4          8           0       14.477576   -0.993578   -0.218977
      5          6           0      -11.061234   -0.132211   -0.205014
      6          6           0      -11.655552   -0.912770   -1.267531
      7          6           0      -11.741383    0.293906    1.148581
      8          6           0      -13.078819   -1.502458   -1.183369
      9          6           0      -13.254302   -0.214557    1.086784
     10          6           0      -13.560891   -1.612926    0.437276
     11          6           0      -10.799456   -1.680899   -2.269961
     12          6           0       -9.548562    0.100787   -0.296430
     13          6           0      -11.056349   -0.341956    2.348061
     14          6           0      -11.708847    1.797278    1.248408
     15          6           0       -8.669926   -0.773906    0.013144
     16          6           0       -7.234488   -0.729812    0.170461
     17          6           0       -6.453152   -1.943584    0.305149
     18          6           0       -6.685313    0.680790   -0.013761
     19          6           0       -5.341282    0.835117   -0.183789
     20          6           0       11.919567    0.020794    1.394737
     21          6           0       11.610794   -0.679031   -1.313442
     22          6           0       12.634581   -1.348372    1.570823
     23          6           0       13.340384   -1.736735    0.201348
     24          6           0       12.384750   -1.883248   -0.889965
     25          6           0       11.138408    0.051558    0.022211
     26          6           0       11.026788    0.174943    2.650075
     27          6           0       12.968017    1.192677    1.482630
     28          6           0       12.600741    0.344247   -2.146602
     29          6           0       -4.809280    2.103901   -0.287029
     30          6           0        9.931501    0.550706    0.056472
     31          6           0       -3.337845    2.525950   -0.343976
     32          6           0        8.653622    0.949247   -0.101703
     33          6           0       -2.970729    3.909588   -0.837732
     34          6           0       -2.382199    1.497797   -0.190811
     35          6           0        7.440088    0.167585    0.035589
     36          6           0        7.659998   -1.355681    0.282998
     37          6           0        6.227584    0.763768   -0.066338
     38          6           0       -1.005622    1.888785   -0.303581
     39          6           0        5.023136    0.251750    0.037473
     40          6           0        0.072335    0.967115   -0.309154
     41          6           0        3.787865    0.951016   -0.105049
     42          6           0        1.376601    1.251272   -0.357202
     43          6           0        2.399538    0.440981   -0.049742
     44          6           0        2.286141   -0.982248    0.305954
     45          1           0      -13.066257   -2.564946   -1.562525
     46          1           0      -13.995665   -1.070701   -1.728306
     47          1           0      -13.592598   -0.278631    2.028873
     48          1           0      -13.690679    0.587905    0.643635
     49          1           0      -14.740271   -1.728247    0.549977
     50          1           0      -10.741522   -2.807518   -2.089596
     51          1           0      -11.409211   -1.714566   -3.194007
     52          1           0      -10.037176   -1.279538   -2.485585
     53          1           0       -9.226856    1.082877   -0.398867
     54          1           0      -10.000972    0.011611    2.289091
     55          1           0      -11.444279    0.106000    3.209534
     56          1           0      -11.212871   -1.451508    2.422404
     57          1           0      -11.841787    2.164915    0.216919
     58          1           0      -12.281672    2.199308    2.042562
     59          1           0      -10.711021    1.953879    1.375537
     60          1           0      -12.079106   -2.531802    0.823916
     61          1           0       -9.000296   -1.670135    0.093489
     62          1           0       -6.093466   -2.393180   -0.578030
     63          1           0       -5.492744   -1.605212    0.906569
     64          1           0       -6.989372   -2.791889    0.861321
     65          1           0       -7.330230    1.520178   -0.159230
     66          1           0       -4.776034    0.067412   -0.360960
     67          1           0       13.393168   -1.164658    2.447741
     68          1           0       11.814738   -2.164946    1.909591
     69          1           0       13.652981   -2.654493    0.418363
     70          1           0       12.838962   -2.330795   -1.924676
     71          1           0       11.663249   -2.519475   -0.446145
     72          1           0       11.575421   -0.151463    3.414479
     73          1           0       10.706937    1.215083    2.777091
     74          1           0       10.092358   -0.503007    2.656850
     75          1           0       13.638142    1.069722    0.570055
     76          1           0       12.609628    2.261980    1.494142
     77          1           0       13.627383    1.245452    2.347944
     78          1           0       12.665872   -0.135003   -3.070665
     79          1           0       12.319749    1.328060   -2.427842
     80          1           0       13.526675    0.457293   -1.529267
     81          1           0       -5.503959    3.063028   -0.498976
     82          1           0       10.072680   -0.234339   -2.263740
     83          1           0       15.095353   -1.002995    0.435950
     84          1           0        8.764869    1.961788   -0.423305
     85          1           0       -2.399442    4.321570    0.184434
     86          1           0       -2.225725    4.068349   -1.593852
     87          1           0       -3.780867    4.603085   -0.901307
     88          1           0       -2.706010    0.439245    0.146244
     89          1           0        6.813147   -1.850464   -0.244492
     90          1           0        8.650004   -1.717460   -0.314095
     91          1           0        7.847744   -1.688026    1.302826
     92          1           0        6.271715    1.804291   -0.551210
     93          1           0       -0.632332    2.996243   -0.424408
     94          1           0        5.052473   -0.717468    0.627600
     95          1           0       -0.275060   -0.076336   -0.560128
     96          1           0        3.818071    1.871773   -0.553041
     97          1           0        1.406605    2.270401   -0.497919
     98          1           0        1.266725   -1.269457    0.770737
     99          1           0        2.670906   -1.580267   -0.745121
    100          1           0        3.187505   -1.406434    1.032489
 ---------------------------------------------------------------------

 SCF Done:  E(RCAM-B3LYP) =  -1857.24933551     A.U. after   15 cycles

 Excitation energies and oscillator strengths:

 Excited State   1:      Singlet-A      2.0737 eV  597.89 nm  f=2.9918  <S**2>=0.000
     163 ->166        -0.14973
     164 ->165         0.69105
 This state for optimization and/or second-order correction.
 Total Energy, E(TD-HF/TD-DFT) =  -1857.17312871
 Copying the excited state density for this state as the 1-particle RhoCI density.

 The electronic state is 1-A.
 Alpha  occ. eigenvalues --  -19.22469 -19.22019 -19.21991 -19.21545 -10.32543
 Alpha  occ. eigenvalues --  -10.32525 -10.31740 -10.31663 -10.30364 -10.28889
 Alpha  occ. eigenvalues --  -10.28658 -10.28562 -10.28423 -10.28330 -10.28198
 Alpha  occ. eigenvalues --  -10.28118 -10.27746 -10.27627 -10.27611 -10.27223
 Alpha  occ. eigenvalues --  -10.27150 -10.26926 -10.26828 -10.26803 -10.26661
 Alpha  occ. eigenvalues --  -10.26630 -10.26546 -10.26388 -10.26335 -10.26317
 Alpha  occ. eigenvalues --  -10.25996 -10.25477 -10.25365 -10.25166 -10.25071
 Alpha  occ. eigenvalues --  -10.24649 -10.24431 -10.23961 -10.23947 -10.23937
 Alpha  occ. eigenvalues --  -10.23734 -10.23024 -10.22808 -10.21889  -1.16232
 Alpha  occ. eigenvalues --   -1.13431  -1.12169  -1.11525  -0.92695  -0.92341
 Alpha  occ. eigenvalues --   -0.92081  -0.91226  -0.90456  -0.89642  -0.87591
 Alpha  occ. eigenvalues --   -0.87041  -0.86247  -0.85201  -0.84502  -0.83281
 Alpha  occ. eigenvalues --   -0.82184  -0.80813  -0.79700  -0.78432  -0.76600
 Alpha  occ. eigenvalues --   -0.76312  -0.76159  -0.75903  -0.75831  -0.75198
 Alpha  occ. eigenvalues --   -0.75156  -0.74363  -0.72460  -0.71216  -0.70905
 Alpha  occ. eigenvalues --   -0.69048  -0.67756  -0.66443  -0.64813  -0.64218
 Alpha  occ. eigenvalues --   -0.63400  -0.62620  -0.61257  -0.60936  -0.59952
 Alpha  occ. eigenvalues --   -0.59549  -0.59046  -0.58663  -0.58222  -0.56848
 Alpha  occ. eigenvalues --   -0.56057  -0.55098  -0.54968  -0.54029  -0.53744
 Alpha  occ. eigenvalues --   -0.53373  -0.52954  -0.52603  -0.52192  -0.51803
 Alpha  occ. eigenvalues --   -0.51340  -0.51278  -0.51046  -0.50036  -0.49769
 Alpha  occ. eigenvalues --   -0.49432  -0.49087  -0.49031  -0.48709  -0.48344
 Alpha  occ. eigenvalues --   -0.48278  -0.47975  -0.47679  -0.47470  -0.47283
 Alpha  occ. eigenvalues --   -0.46808  -0.46615  -0.46509  -0.46001  -0.45838
 Alpha  occ. eigenvalues --   -0.45259  -0.45177  -0.44889  -0.44674  -0.44054
 Alpha  occ. eigenvalues --   -0.43862  -0.43680  -0.43300  -0.42988  -0.42835
 Alpha  occ. eigenvalues --   -0.42309  -0.42252  -0.41754  -0.41628  -0.41405
 Alpha  occ. eigenvalues --   -0.41109  -0.40945  -0.40639  -0.39891  -0.39711
 Alpha  occ. eigenvalues --   -0.39430  -0.39405  -0.39108  -0.38790  -0.38492
 Alpha  occ. eigenvalues --   -0.38329  -0.38188  -0.37903  -0.37793  -0.37233
 Alpha  occ. eigenvalues --   -0.37010  -0.35830  -0.35239  -0.34228  -0.33619
 Alpha  occ. eigenvalues --   -0.32855  -0.32232  -0.31485  -0.31277  -0.30202
 Alpha  occ. eigenvalues --   -0.29389  -0.27042  -0.23394  -0.19440
 Alpha virt. eigenvalues --   -0.06234  -0.01835   0.02678   0.07346   0.07900
 Alpha virt. eigenvalues --    0.10053   0.10438   0.11272   0.11777   0.11961
 Alpha virt. eigenvalues --    0.12548   0.12886   0.12907   0.13173   0.14138

 Mulliken charges:
               1
     1  O   -0.517240
     2  O   -0.456994
     3  O   -0.543051
     4  O   -0.527916
     5  C    0.151190
     6  C    0.253493
     7  C   -0.002511
     8  C   -0.242377
     9  C   -0.175248
    10  C    0.121130
    11  C   -0.298206
    12  C   -0.104192
    13  C   -0.307258
    14  C   -0.321165
    15  C   -0.011771
    16  C    0.059258
    17  C   -0.385609
    18  C   -0.105317
    19  C   -0.030164
    20  C    0.024576
    21  C    0.255133
    22  C   -0.222259
    23  C    0.171383
    24  C   -0.179580
    25  C   -0.077946
    26  C   -0.293615
    27  C   -0.323290
    28  C   -0.345378
    29  C   -0.142977
    30  C    0.087463
    31  C    0.082724
    32  C   -0.243049
    33  C   -0.366897
    34  C   -0.114394
    35  C    0.106913
    36  C   -0.385966
    37  C   -0.071904
    38  C   -0.112322
    39  C   -0.101021
    40  C   -0.092693
    41  C   -0.121029
    42  C   -0.100467
    43  C    0.134204
    44  C   -0.363218
    45  H    0.090068
    46  H    0.117726
    47  H    0.093985
    48  H    0.102052
    49  H    0.071797
    50  H    0.097228
    51  H    0.111602
    52  H    0.110376
    53  H    0.081888
    54  H    0.103082
    55  H    0.108855
    56  H    0.092174
    57  H    0.134661
    58  H    0.109675
    59  H    0.102088
    60  H    0.302165
    61  H    0.034943
    62  H    0.142023
    63  H    0.108977
    64  H    0.112097
    65  H    0.093931
    66  H    0.082242
    67  H    0.084300
    68  H    0.095509
    69  H    0.095948
    70  H    0.099699
    71  H    0.113846
    72  H    0.106122
    73  H    0.105461
    74  H    0.086820
    75  H    0.112052
    76  H    0.099792
    77  H    0.093184
    78  H    0.109934
    79  H    0.093802
    80  H    0.142042
    81  H    0.069841
    82  H    0.315429
    83  H    0.297502
    84  H    0.110941
    85  H    0.097957
    86  H    0.142587
    87  H    0.120032
    88  H    0.100496
    89  H    0.115962
    90  H    0.122823
    91  H    0.125965
    92  H    0.070327
    93  H    0.082717
    94  H    0.079073
    95  H    0.079019
    96  H    0.076346
    97  H    0.074221
    98  H    0.111413
    99  H    0.101507
   100  H    0.103256
 Sum of Mulliken charges =  -0.00000

 Dipole moment (field-independent basis, Debye):
    X=              3.7103    Y=             -0.6037    Z=              1.3894  Tot=              4.0076
 Quadrupole moment (field-independent basis, Debye-Ang):
   XX=           -270.9403   YY=           -258.3582   ZZ=           -275.1862
   XY=              1.6312   XZ=             26.8187   YZ=             -3.1877

 Normal termination of Gaussian 16 at Wed Jul 31 01:36:01 2019.
