 Gaussian 16, Revision A.03,
 Gaussian 16:  ES64L-G16RevA.03 25-Dec-2016

 -------------------------------------
 # td=(NStates=1) CAM-B3LYP/6-31G(d,p)
 -------------------------------------

 --
 TD
 --
 Symbolic Z-matrix:
 Charge =  0 Multiplicity = 1

                         Standard orientation:
 ---------------------------------------------------------------------
 Center     Atomic      Atomic             Coordinates (Angstroms)
 Number     Number       Type             X           Y           Z
 ---------------------------------------------------------------------
      1          8           0      -11.905990    0.584651   -1.254175
      2          8           0      -12.922792   -2.639877    1.107881
      3          8           0       10.660714   -0.770277   -2.137500
      4          8           0       14.604864   -0.831988   -0.220386
      5          6           0      -11.059437   -0.121389   -0.174757
      6          6           0      -11.764439   -0.880630   -1.365030
      7          6           0      -11.679252    0.171800    1.213568
      8          6           0      -13.140941   -1.548030   -0.969573
      9          6           0      -13.112602   -0.264434    1.164996
     10          6           0      -13.471011   -1.512045    0.517356
     11          6           0      -11.014315   -1.388411   -2.531872
     12          6           0       -9.521317    0.194107   -0.272772
     13          6           0      -10.857999   -0.724387    2.222071
     14          6           0      -11.502541    1.681423    1.633462
     15          6           0       -8.680764   -0.708243    0.009875
     16          6           0       -7.215206   -0.585169   -0.256908
     17          6           0       -6.311961   -1.720648   -0.121789
     18          6           0       -6.666517    0.705879   -0.319537
     19          6           0       -5.330745    0.943492   -0.226810
     20          6           0       11.913749   -0.130019    1.456569
     21          6           0       11.665453   -0.392280   -1.252087
     22          6           0       12.729813   -1.414156    1.341047
     23          6           0       13.560751   -1.780296    0.092500
     24          6           0       12.492576   -1.712816   -1.158816
     25          6           0       11.092699    0.104590    0.135007
     26          6           0       10.991479   -0.258793    2.643033
     27          6           0       12.873457    1.136672    1.733782
     28          6           0       12.440156    0.678109   -1.904527
     29          6           0       -4.769668    2.252984   -0.212640
     30          6           0        9.857783    0.480271    0.120228
     31          6           0       -3.326773    2.535135   -0.339559
     32          6           0        8.614052    0.896186    0.037369
     33          6           0       -2.955319    3.981461   -0.383454
     34          6           0       -2.412318    1.467058   -0.221674
     35          6           0        7.406519    0.148506    0.093493
     36          6           0        7.608293   -1.343397    0.096176
     37          6           0        6.126651    0.744297    0.038569
     38          6           0       -1.017880    1.753776   -0.321735
     39          6           0        4.926831    0.145508    0.008521
     40          6           0       -0.052565    0.806987   -0.253483
     41          6           0        3.741738    0.888741   -0.208304
     42          6           0        1.328593    1.080755   -0.248115
     43          6           0        2.427057    0.250997   -0.147583
     44          6           0        2.194710   -1.221187    0.171726
     45          1           0      -13.035874   -2.519134   -1.441028
     46          1           0      -13.683478   -0.924958   -1.441750
     47          1           0      -13.357989   -0.080761    2.142322
     48          1           0      -13.597327    0.636843    0.536630
     49          1           0      -14.623224   -1.537593    0.762322
     50          1           0      -10.758742   -2.530854   -2.120457
     51          1           0      -11.657002   -1.339101   -3.234300
     52          1           0      -10.037281   -0.862413   -2.774394
     53          1           0       -9.508673    1.277483   -0.462018
     54          1           0       -9.777521   -0.311825    2.183579
     55          1           0      -11.048957   -0.558356    3.186397
     56          1           0      -10.846520   -1.757780    2.275289
     57          1           0      -11.808446    2.018809    0.637872
     58          1           0      -12.001385    2.023761    2.558377
     59          1           0      -10.385291    1.779338    1.748202
     60          1           0      -12.041699   -2.636731    0.652138
     61          1           0       -8.939124   -1.500032    0.332303
     62          1           0       -5.600097   -1.795438   -0.991137
     63          1           0       -5.941265   -1.863998    1.140466
     64          1           0       -6.902762   -2.736455   -0.411739
     65          1           0       -7.164234    1.711006   -0.205322
     66          1           0       -4.783952    0.134209   -0.399763
     67          1           0       13.308779   -1.513501    2.045735
     68          1           0       12.105442   -2.260194    1.524832
     69          1           0       13.982193   -2.806469    0.184023
     70          1           0       12.996898   -2.027194   -2.166185
     71          1           0       11.825370   -2.527581   -0.897766
     72          1           0       11.454785   -0.262066    3.642214
     73          1           0       10.383656    0.683239    2.498724
     74          1           0       10.050857   -1.061148    2.715136
     75          1           0       13.768442    1.237103    1.010011
     76          1           0       12.415854    2.011986    1.520293
     77          1           0       13.448964    0.998987    2.644825
     78          1           0       12.460426    0.327082   -3.076642
     79          1           0       11.704720    1.485768   -1.841048
     80          1           0       13.343588    1.051605   -1.593964
     81          1           0       -5.401811    3.149401   -0.166569
     82          1           0       10.143833    0.029873   -2.124540
     83          1           0       15.351925   -1.161576    0.357232
     84          1           0        8.489495    2.122246    0.102960
     85          1           0       -2.629466    4.381122    0.377876
     86          1           0       -2.311458    4.322604   -1.197457
     87          1           0       -3.923159    4.663009   -0.701886
     88          1           0       -2.764055    0.431569   -0.078021
     89          1           0        6.654544   -1.983116   -0.060550
     90          1           0        8.367845   -1.726740   -0.707013
     91          1           0        8.034521   -1.553959    0.948306
     92          1           0        6.052528    1.752435   -0.242098
     93          1           0       -0.639220    2.780467   -0.644563
     94          1           0        4.914337   -1.015848    0.018161
     95          1           0       -0.450261   -0.249674   -0.229870
     96          1           0        3.839013    1.990288   -0.211755
     97          1           0        1.620486    2.155455   -0.499014
     98          1           0        1.145287   -1.463986    0.183970
     99          1           0        2.935048   -2.118446   -0.255926
    100          1           0        2.554334   -1.263252    1.250070
 ---------------------------------------------------------------------

 SCF Done:  E(RCAM-B3LYP) =  -1857.18970378     A.U. after   15 cycles

 Excitation energies and oscillator strengths:

 Excited State   1:      Singlet-A      2.1526 eV  575.97 nm  f=3.1131  <S**2>=0.000
     163 ->166         0.15342
     164 ->165         0.68938
 This state for optimization and/or second-order correction.
 Total Energy, E(TD-HF/TD-DFT) =  -1857.11059621
 Copying the excited state density for this state as the 1-particle RhoCI density.

 The electronic state is 1-A.
 Alpha  occ. eigenvalues --  -19.22101 -19.21445 -19.21397 -19.20990 -10.33039
 Alpha  occ. eigenvalues --  -10.31742 -10.31643 -10.31572 -10.30959 -10.29391
 Alpha  occ. eigenvalues --  -10.29187 -10.28256 -10.28132 -10.28003 -10.27901
 Alpha  occ. eigenvalues --  -10.27695 -10.27561 -10.27323 -10.27298 -10.27267
 Alpha  occ. eigenvalues --  -10.27210 -10.26848 -10.26807 -10.26693 -10.26574
 Alpha  occ. eigenvalues --  -10.26477 -10.26343 -10.26292 -10.26098 -10.25883
 Alpha  occ. eigenvalues --  -10.25827 -10.25403 -10.25383 -10.25317 -10.25296
 Alpha  occ. eigenvalues --  -10.25037 -10.24887 -10.24845 -10.24541 -10.24418
 Alpha  occ. eigenvalues --  -10.23821 -10.23646 -10.23129 -10.22736  -1.11885
 Alpha  occ. eigenvalues --   -1.11376  -1.10060  -1.08813  -0.92714  -0.92630
 Alpha  occ. eigenvalues --   -0.91760  -0.91167  -0.90617  -0.89821  -0.87841
 Alpha  occ. eigenvalues --   -0.87208  -0.86672  -0.85272  -0.84669  -0.83434
 Alpha  occ. eigenvalues --   -0.82934  -0.81715  -0.80566  -0.78478  -0.77834
 Alpha  occ. eigenvalues --   -0.76761  -0.76581  -0.76166  -0.76124  -0.75898
 Alpha  occ. eigenvalues --   -0.75453  -0.74000  -0.72696  -0.69999  -0.69504
 Alpha  occ. eigenvalues --   -0.68363  -0.67191  -0.65623  -0.64694  -0.64041
 Alpha  occ. eigenvalues --   -0.63349  -0.61495  -0.60936  -0.60669  -0.60422
 Alpha  occ. eigenvalues --   -0.58677  -0.58593  -0.58070  -0.57221  -0.57077
 Alpha  occ. eigenvalues --   -0.55721  -0.55353  -0.55131  -0.54646  -0.54022
 Alpha  occ. eigenvalues --   -0.53792  -0.53358  -0.52745  -0.52346  -0.51872
 Alpha  occ. eigenvalues --   -0.51467  -0.51114  -0.50673  -0.50552  -0.50296
 Alpha  occ. eigenvalues --   -0.49815  -0.49619  -0.49355  -0.49119  -0.48867
 Alpha  occ. eigenvalues --   -0.48701  -0.47953  -0.47607  -0.47355  -0.47081
 Alpha  occ. eigenvalues --   -0.46688  -0.46541  -0.45809  -0.45578  -0.45235
 Alpha  occ. eigenvalues --   -0.44801  -0.44514  -0.44263  -0.44103  -0.43970
 Alpha  occ. eigenvalues --   -0.43293  -0.43054  -0.42864  -0.42482  -0.42452
 Alpha  occ. eigenvalues --   -0.42228  -0.41735  -0.41170  -0.41078  -0.40979
 Alpha  occ. eigenvalues --   -0.40619  -0.40495  -0.40451  -0.40333  -0.39966
 Alpha  occ. eigenvalues --   -0.39534  -0.39379  -0.39230  -0.39219  -0.38731
 Alpha  occ. eigenvalues --   -0.38603  -0.38320  -0.37867  -0.37656  -0.36976
 Alpha  occ. eigenvalues --   -0.35801  -0.35337  -0.34984  -0.34329  -0.33745
 Alpha  occ. eigenvalues --   -0.33084  -0.32370  -0.31727  -0.31371  -0.30955
 Alpha  occ. eigenvalues --   -0.30244  -0.27902  -0.23511  -0.19414
 Alpha virt. eigenvalues --   -0.05831  -0.01628   0.03510   0.06252   0.07416
 Alpha virt. eigenvalues --    0.09570   0.09762   0.10459   0.11071   0.11810
 Alpha virt. eigenvalues --    0.12032   0.12270   0.13204   0.13533   0.13786

 Mulliken charges:
               1
     1  O   -0.540619
     2  O   -0.527652
     3  O   -0.533839
     4  O   -0.533170
     5  C    0.122478
     6  C    0.206804
     7  C    0.005880
     8  C   -0.195691
     9  C   -0.147399
    10  C    0.148353
    11  C   -0.300602
    12  C   -0.094743
    13  C   -0.328215
    14  C   -0.321455
    15  C    0.014771
    16  C    0.037374
    17  C   -0.368270
    18  C   -0.082315
    19  C   -0.042339
    20  C    0.024714
    21  C    0.229184
    22  C   -0.144230
    23  C    0.104130
    24  C   -0.173837
    25  C   -0.116565
    26  C   -0.303893
    27  C   -0.321243
    28  C   -0.279041
    29  C   -0.142385
    30  C    0.199512
    31  C    0.085240
    32  C   -0.305240
    33  C   -0.369325
    34  C   -0.113296
    35  C    0.113636
    36  C   -0.376391
    37  C   -0.102151
    38  C   -0.080886
    39  C   -0.069094
    40  C   -0.083817
    41  C   -0.143620
    42  C   -0.142747
    43  C    0.124129
    44  C   -0.367530
    45  H    0.103747
    46  H    0.131581
    47  H    0.099284
    48  H    0.088352
    49  H    0.085671
    50  H    0.077696
    51  H    0.134349
    52  H    0.135157
    53  H    0.116830
    54  H    0.086075
    55  H    0.103135
    56  H    0.104964
    57  H    0.138841
    58  H    0.115386
    59  H    0.099918
    60  H    0.303132
    61  H    0.042215
    62  H    0.135522
    63  H    0.101992
    64  H    0.084320
    65  H    0.079458
    66  H    0.070559
    67  H    0.075677
    68  H    0.097229
    69  H    0.080519
    70  H    0.095233
    71  H    0.101165
    72  H    0.104001
    73  H    0.106752
    74  H    0.083488
    75  H    0.113836
    76  H    0.116359
    77  H    0.102420
    78  H    0.093103
    79  H    0.074069
    80  H    0.136105
    81  H    0.084536
    82  H    0.296364
    83  H    0.305522
    84  H    0.095254
    85  H    0.147227
    86  H    0.121879
    87  H    0.078813
    88  H    0.095238
    89  H    0.093096
    90  H    0.130404
    91  H    0.137339
    92  H    0.077411
    93  H    0.085937
    94  H    0.077411
    95  H    0.078973
    96  H    0.094717
    97  H    0.073178
    98  H    0.117897
    99  H    0.100255
   100  H    0.125811
 Sum of Mulliken charges =  -0.00000

 Dipole moment (field-independent basis, Debye):
    X=              2.8126    Y=             -0.6306    Z=              1.7222  Tot=              3.3577
 Quadrupole moment (field-independent basis, Debye-Ang):
   XX=           -270.1699   YY=           -258.2813   ZZ=           -276.1398
   XY=             -9.2702   XZ=             36.7315   YZ=              0.7020

 Normal termination of Gaussian 16 at Tue Jul 30 12:55:30 2019.
