 Gaussian 16, Revision A.03,
 Gaussian 16:  ES64L-G16RevA.03 25-Dec-2016

 -------------------------------------
 # td=(NStates=1) CAM-B3LYP/6-31G(d,p)
 -------------------------------------

 --
 TD
 --
 Symbolic Z-matrix:
 Charge =  0 Multiplicity = 1

                         Standard orientation:
 ---------------------------------------------------------------------
 Center     Atomic      Atomic             Coordinates (Angstroms)
 Number     Number       Type             X           Y           Z
 ---------------------------------------------------------------------
      1          8           0      -11.737078    0.594826   -1.284482
      2          8           0      -13.151422   -2.607053    1.101538
      3          8           0       10.716182   -0.717927   -2.144768
      4          8           0       14.469960   -0.972733   -0.164460
      5          6           0      -11.027508   -0.172109   -0.135749
      6          6           0      -11.727425   -0.842963   -1.265313
      7          6           0      -11.713328    0.127511    1.136179
      8          6           0      -13.020106   -1.619751   -1.147477
      9          6           0      -13.254849   -0.204167    1.042501
     10          6           0      -13.550995   -1.495904    0.282303
     11          6           0      -10.925244   -1.500182   -2.437514
     12          6           0       -9.516872    0.100431   -0.337243
     13          6           0      -11.057637   -0.628104    2.281959
     14          6           0      -11.598206    1.708700    1.386941
     15          6           0       -8.633014   -0.750474    0.089733
     16          6           0       -7.197791   -0.683601    0.008059
     17          6           0       -6.239717   -1.753855    0.138792
     18          6           0       -6.651725    0.692811   -0.081846
     19          6           0       -5.263265    0.959539   -0.148403
     20          6           0       11.808164   -0.188894    1.489869
     21          6           0       11.750687   -0.454801   -1.189868
     22          6           0       12.624700   -1.495016    1.458195
     23          6           0       13.356963   -1.833105    0.170546
     24          6           0       12.370162   -1.701981   -1.101656
     25          6           0       11.063769   -0.108884    0.109527
     26          6           0       10.928105   -0.170102    2.579231
     27          6           0       12.730140    1.064853    1.704447
     28          6           0       12.668110    0.677518   -1.725834
     29          6           0       -4.706861    2.197838   -0.263654
     30          6           0        9.871754    0.473980    0.107285
     31          6           0       -3.351915    2.536247   -0.293282
     32          6           0        8.660295    0.947079   -0.061306
     33          6           0       -2.988699    4.026820   -0.459523
     34          6           0       -2.322211    1.585807   -0.224367
     35          6           0        7.473168    0.114401   -0.219932
     36          6           0        7.624968   -1.423549   -0.155349
     37          6           0        6.242660    0.720821   -0.205574
     38          6           0       -0.965292    1.878914   -0.322774
     39          6           0        4.915876    0.177931   -0.004156
     40          6           0        0.088626    0.942708   -0.149135
     41          6           0        3.803471    0.983648   -0.047138
     42          6           0        1.429870    1.243168   -0.285599
     43          6           0        2.443836    0.367041   -0.130941
     44          6           0        2.303312   -1.109817    0.014612
     45          1           0      -13.033716   -2.693023   -1.402485
     46          1           0      -13.604518   -1.375482   -1.808153
     47          1           0      -13.358629   -0.179660    2.239599
     48          1           0      -13.910294    0.631636    0.490145
     49          1           0      -14.465877   -1.590898    0.537902
     50          1           0      -10.523455   -2.509980   -2.230824
     51          1           0      -11.459112   -1.365200   -3.308161
     52          1           0      -10.017974   -1.080455   -2.557624
     53          1           0       -9.243423    1.243225   -0.478527
     54          1           0       -9.971124   -0.183903    2.330083
     55          1           0      -11.619135   -0.463916    3.139178
     56          1           0      -11.105472   -1.692207    2.278413
     57          1           0      -11.904101    2.170134    0.549687
     58          1           0      -12.202683    2.121240    2.277435
     59          1           0      -10.518354    1.946611    1.778768
     60          1           0      -12.264671   -2.942212    0.821007
     61          1           0       -9.084208   -1.602594    0.531216
     62          1           0       -5.680331   -2.027644   -0.678946
     63          1           0       -5.609863   -1.686253    1.142495
     64          1           0       -6.696873   -2.727760    0.355624
     65          1           0       -7.407913    1.455972   -0.151405
     66          1           0       -4.514897    0.163050   -0.265334
     67          1           0       13.360575   -1.500777    2.126778
     68          1           0       11.960552   -2.256047    1.666135
     69          1           0       13.544238   -2.864989    0.367250
     70          1           0       12.974975   -1.827292   -2.059812
     71          1           0       11.482795   -2.371184   -0.943342
     72          1           0       11.352932   -0.027014    3.670599
     73          1           0       10.412834    0.645007    2.387614
     74          1           0       10.157909   -1.004200    2.602894
     75          1           0       13.357759    1.206601    0.750214
     76          1           0       12.041686    1.823148    1.906608
     77          1           0       13.388355    0.895318    2.670764
     78          1           0       12.943157    0.453923   -2.864611
     79          1           0       12.318681    1.601544   -1.881415
     80          1           0       13.539204    0.890210   -1.066696
     81          1           0       -5.382841    3.077297   -0.367971
     82          1           0        9.875142   -0.170022   -1.713375
     83          1           0       15.178607   -0.890229    0.453400
     84          1           0        8.570351    2.074504   -0.017028
     85          1           0       -2.556134    4.601142    0.438890
     86          1           0       -2.468524    4.320838   -1.458939
     87          1           0       -4.130648    4.389881   -0.604805
     88          1           0       -2.594947    0.477226   -0.135790
     89          1           0        6.646167   -1.936476   -0.497328
     90          1           0        8.301880   -1.703811   -0.937471
     91          1           0        7.813841   -1.925656    0.803451
     92          1           0        6.258431    1.804176   -0.137103
     93          1           0       -0.474243    2.887283   -0.378699
     94          1           0        4.844120   -0.884837   -0.113567
     95          1           0       -0.044346   -0.100890   -0.139082
     96          1           0        3.968919    1.917714   -0.045283
     97          1           0        1.688275    2.397149   -0.104861
     98          1           0        1.153995   -1.320041    0.362481
     99          1           0        2.690036   -1.676014   -0.901177
    100          1           0        2.965914   -1.334108    0.869261
 ---------------------------------------------------------------------

 SCF Done:  E(RCAM-B3LYP) =  -1857.27813213     A.U. after   15 cycles

 Excitation energies and oscillator strengths:

 Excited State   1:      Singlet-A      2.1507 eV  576.48 nm  f=2.8108  <S**2>=0.000
     163 ->166        -0.13313
     164 ->165         0.69721
 This state for optimization and/or second-order correction.
 Total Energy, E(TD-HF/TD-DFT) =  -1857.19909488
 Copying the excited state density for this state as the 1-particle RhoCI density.

 The electronic state is 1-A.
 Alpha  occ. eigenvalues --  -19.21564 -19.21528 -19.20575 -19.19435 -10.32598
 Alpha  occ. eigenvalues --  -10.31772 -10.30689 -10.30090 -10.28906 -10.28627
 Alpha  occ. eigenvalues --  -10.28500 -10.28328 -10.28058 -10.28012 -10.27933
 Alpha  occ. eigenvalues --  -10.27853 -10.27503 -10.27396 -10.27364 -10.27200
 Alpha  occ. eigenvalues --  -10.27187 -10.27072 -10.26990 -10.26875 -10.26694
 Alpha  occ. eigenvalues --  -10.26648 -10.26616 -10.26592 -10.26548 -10.26512
 Alpha  occ. eigenvalues --  -10.26296 -10.26187 -10.26132 -10.26114 -10.26093
 Alpha  occ. eigenvalues --  -10.25543 -10.25090 -10.24831 -10.24382 -10.24184
 Alpha  occ. eigenvalues --  -10.23644 -10.23573 -10.23185 -10.22969  -1.11833
 Alpha  occ. eigenvalues --   -1.09187  -1.08517  -1.07184  -0.93937  -0.92845
 Alpha  occ. eigenvalues --   -0.92297  -0.91404  -0.90948  -0.89983  -0.87937
 Alpha  occ. eigenvalues --   -0.87504  -0.86712  -0.86047  -0.84902  -0.83612
 Alpha  occ. eigenvalues --   -0.82376  -0.81257  -0.81118  -0.78780  -0.77460
 Alpha  occ. eigenvalues --   -0.77362  -0.76646  -0.76414  -0.76303  -0.76057
 Alpha  occ. eigenvalues --   -0.75307  -0.74561  -0.73527  -0.70907  -0.70399
 Alpha  occ. eigenvalues --   -0.68812  -0.67447  -0.65980  -0.65081  -0.64265
 Alpha  occ. eigenvalues --   -0.63759  -0.62497  -0.61267  -0.60974  -0.60132
 Alpha  occ. eigenvalues --   -0.58745  -0.58553  -0.57898  -0.57823  -0.57380
 Alpha  occ. eigenvalues --   -0.55967  -0.55406  -0.55298  -0.54784  -0.54072
 Alpha  occ. eigenvalues --   -0.53837  -0.53049  -0.52905  -0.52748  -0.52089
 Alpha  occ. eigenvalues --   -0.51689  -0.50681  -0.50545  -0.50362  -0.49886
 Alpha  occ. eigenvalues --   -0.49706  -0.49486  -0.49289  -0.49153  -0.48862
 Alpha  occ. eigenvalues --   -0.48291  -0.47892  -0.47839  -0.47202  -0.46632
 Alpha  occ. eigenvalues --   -0.46580  -0.46199  -0.45937  -0.45771  -0.45464
 Alpha  occ. eigenvalues --   -0.44898  -0.44451  -0.44287  -0.44013  -0.43816
 Alpha  occ. eigenvalues --   -0.43196  -0.43115  -0.42623  -0.42298  -0.42257
 Alpha  occ. eigenvalues --   -0.42047  -0.41647  -0.41514  -0.41023  -0.40848
 Alpha  occ. eigenvalues --   -0.40632  -0.40506  -0.40476  -0.40066  -0.39835
 Alpha  occ. eigenvalues --   -0.39781  -0.39698  -0.39339  -0.39278  -0.39097
 Alpha  occ. eigenvalues --   -0.38375  -0.38263  -0.37931  -0.37832  -0.37022
 Alpha  occ. eigenvalues --   -0.36431  -0.36004  -0.35347  -0.34703  -0.34567
 Alpha  occ. eigenvalues --   -0.32774  -0.32471  -0.31900  -0.31115  -0.30310
 Alpha  occ. eigenvalues --   -0.30042  -0.28036  -0.24860  -0.20018
 Alpha virt. eigenvalues --   -0.06527  -0.01330   0.02478   0.05591   0.07283
 Alpha virt. eigenvalues --    0.09767   0.10346   0.10983   0.11287   0.11883
 Alpha virt. eigenvalues --    0.12245   0.12790   0.13238   0.13391   0.13897

 Mulliken charges:
               1
     1  O   -0.525141
     2  O   -0.573922
     3  O   -0.597813
     4  O   -0.555108
     5  C    0.141050
     6  C    0.259852
     7  C    0.008826
     8  C   -0.196252
     9  C   -0.182665
    10  C    0.185908
    11  C   -0.335001
    12  C   -0.091913
    13  C   -0.304351
    14  C   -0.304963
    15  C   -0.072576
    16  C    0.082747
    17  C   -0.392746
    18  C   -0.104551
    19  C   -0.064807
    20  C    0.016291
    21  C    0.287994
    22  C   -0.166664
    23  C    0.137964
    24  C   -0.162267
    25  C   -0.058035
    26  C   -0.295261
    27  C   -0.287533
    28  C   -0.294468
    29  C   -0.116315
    30  C    0.076486
    31  C    0.097133
    32  C   -0.286441
    33  C   -0.363394
    34  C   -0.115816
    35  C    0.100922
    36  C   -0.373407
    37  C   -0.115474
    38  C   -0.084516
    39  C   -0.091272
    40  C   -0.088688
    41  C   -0.056038
    42  C   -0.110150
    43  C    0.097123
    44  C   -0.370562
    45  H    0.116610
    46  H    0.123293
    47  H    0.089646
    48  H    0.088656
    49  H    0.096485
    50  H    0.094328
    51  H    0.118282
    52  H    0.124006
    53  H    0.103419
    54  H    0.098996
    55  H    0.109419
    56  H    0.099159
    57  H    0.142659
    58  H    0.089328
    59  H    0.080412
    60  H    0.293600
    61  H    0.081777
    62  H    0.141517
    63  H    0.116405
    64  H    0.103700
    65  H    0.081131
    66  H    0.088560
    67  H    0.082410
    68  H    0.099294
    69  H    0.084734
    70  H    0.110605
    71  H    0.103633
    72  H    0.085315
    73  H    0.116372
    74  H    0.087277
    75  H    0.104383
    76  H    0.107466
    77  H    0.081175
    78  H    0.088148
    79  H    0.102446
    80  H    0.121804
    81  H    0.080958
    82  H    0.305671
    83  H    0.302641
    84  H    0.118681
    85  H    0.125701
    86  H    0.121891
    87  H    0.083544
    88  H    0.082797
    89  H    0.096243
    90  H    0.133552
    91  H    0.129313
    92  H    0.074720
    93  H    0.086646
    94  H    0.079565
    95  H    0.070027
    96  H    0.065515
    97  H    0.068568
    98  H    0.099960
    99  H    0.130557
   100  H    0.132813
 Sum of Mulliken charges =  -0.00000

 Dipole moment (field-independent basis, Debye):
    X=              1.4176    Y=             -1.1148    Z=              2.8524  Tot=              3.3747
 Quadrupole moment (field-independent basis, Debye-Ang):
   XX=           -293.6579   YY=           -258.1623   ZZ=           -280.2707
   XY=              9.5760   XZ=             46.8464   YZ=              1.5011

 Normal termination of Gaussian 16 at Tue Jul 30 21:54:21 2019.
