 Gaussian 16, Revision A.03,
 Gaussian 16:  ES64L-G16RevA.03 25-Dec-2016

 -------------------------------------
 # td=(NStates=1) CAM-B3LYP/6-31G(d,p)
 -------------------------------------

 --
 TD
 --
 Symbolic Z-matrix:
 Charge =  0 Multiplicity = 1

                         Standard orientation:
 ---------------------------------------------------------------------
 Center     Atomic      Atomic             Coordinates (Angstroms)
 Number     Number       Type             X           Y           Z
 ---------------------------------------------------------------------
      1          8           0      -11.822299    0.214822   -1.513828
      2          8           0      -12.643489   -2.691037    1.517224
      3          8           0       10.510053   -1.046237   -2.041787
      4          8           0       14.515109   -1.021629   -0.172790
      5          6           0      -11.058741   -0.165864   -0.352685
      6          6           0      -11.666831   -1.240579   -1.229613
      7          6           0      -11.806036    0.287032    0.975892
      8          6           0      -12.898463   -2.082057   -0.782724
      9          6           0      -13.242876   -0.347024    1.113085
     10          6           0      -13.309891   -1.793707    0.577565
     11          6           0      -10.728871   -1.979514   -2.172810
     12          6           0       -9.607247    0.164324   -0.325392
     13          6           0      -10.922118   -0.038601    2.280451
     14          6           0      -11.987020    1.830412    0.936482
     15          6           0       -8.551604   -0.665535    0.006964
     16          6           0       -7.196408   -0.432939   -0.116361
     17          6           0       -6.242983   -1.592830    0.071218
     18          6           0       -6.722707    0.848639   -0.111535
     19          6           0       -5.331904    1.109586   -0.204006
     20          6           0       11.977174   -0.056815    1.388672
     21          6           0       11.585385   -0.536653   -1.213295
     22          6           0       12.684768   -1.450504    1.478841
     23          6           0       13.446512   -1.905306    0.170927
     24          6           0       12.421329   -1.919456   -1.056693
     25          6           0       11.034594   -0.058586    0.118425
     26          6           0       11.143642    0.048582    2.713520
     27          6           0       12.827278    1.157233    1.381605
     28          6           0       12.349615    0.484284   -1.961807
     29          6           0       -4.723552    2.355946   -0.374062
     30          6           0        9.856601    0.459447    0.140355
     31          6           0       -3.337933    2.686849   -0.416360
     32          6           0        8.633499    0.823179   -0.089615
     33          6           0       -2.958504    4.081381   -0.484171
     34          6           0       -2.426148    1.667891   -0.380577
     35          6           0        7.375626    0.125039    0.062468
     36          6           0        7.641829   -1.319010    0.284289
     37          6           0        6.186679    0.730959   -0.178988
     38          6           0       -1.048297    1.926314   -0.405100
     39          6           0        4.912483    0.238700   -0.169965
     40          6           0        0.012170    1.025549   -0.213485
     41          6           0        3.770780    0.999959   -0.142809
     42          6           0        1.302539    1.328968   -0.035900
     43          6           0        2.326471    0.448475    0.012008
     44          6           0        2.170557   -0.947770    0.153611
     45          1           0      -12.649292   -3.190579   -0.761091
     46          1           0      -13.602995   -2.004061   -1.503188
     47          1           0      -13.600271   -0.228830    2.219484
     48          1           0      -13.809353    0.306681    0.320501
     49          1           0      -14.309516   -2.047311    0.645232
     50          1           0      -10.354913   -2.894953   -2.092779
     51          1           0      -11.307485   -2.213225   -3.103345
     52          1           0       -9.905623   -1.219570   -2.515271
     53          1           0       -9.305432    1.078605   -0.933863
     54          1           0       -9.930519    0.504043    2.544947
     55          1           0      -11.295392    0.395118    3.212918
     56          1           0      -10.682099   -1.130607    2.367225
     57          1           0      -12.428126    2.123413   -0.130226
     58          1           0      -12.705056    2.330660    1.871362
     59          1           0      -11.165415    2.450686    0.919894
     60          1           0      -11.804164   -2.752957    1.313141
     61          1           0       -8.932119   -1.676586    0.495779
     62          1           0       -5.825850   -2.104365   -0.914779
     63          1           0       -5.640818   -1.578030    0.861380
     64          1           0       -6.856237   -2.439180    0.280480
     65          1           0       -7.369731    1.774847   -0.102588
     66          1           0       -4.589788    0.060838   -0.136050
     67          1           0       13.555351   -1.602937    2.248738
     68          1           0       11.949409   -2.197418    1.650309
     69          1           0       13.952554   -2.981492    0.258290
     70          1           0       12.847510   -2.298179   -2.058948
     71          1           0       11.745520   -2.791485   -0.820666
     72          1           0       11.788008   -0.086220    3.490179
     73          1           0       10.740922    1.004716    2.589776
     74          1           0       10.327740   -0.696384    2.684750
     75          1           0       13.469490    1.066262    0.505748
     76          1           0       12.366067    2.062070    1.261661
     77          1           0       13.380117    1.140756    2.337298
     78          1           0       12.613816    0.325244   -3.096389
     79          1           0       11.850078    1.483132   -1.993738
     80          1           0       13.297746    0.795863   -1.480984
     81          1           0       -5.309635    3.293173   -0.321649
     82          1           0       10.120861   -0.242324   -2.156240
     83          1           0       15.036820   -1.061196    0.722250
     84          1           0        8.439249    2.026514   -0.241273
     85          1           0       -2.545092    4.541752    0.383634
     86          1           0       -2.283416    4.472907   -1.236661
     87          1           0       -3.919750    4.641208   -0.768835
     88          1           0       -2.565331    0.654104   -0.195459
     89          1           0        6.817737   -1.891188    0.297405
     90          1           0        8.073840   -1.741702   -0.569357
     91          1           0        8.195731   -1.629334    1.311968
     92          1           0        6.141683    1.949721   -0.175875
     93          1           0       -0.654240    2.935318   -0.630321
     94          1           0        4.965918   -0.715484    0.157561
     95          1           0       -0.375459    0.027898   -0.230126
     96          1           0        4.013487    2.170512   -0.194676
     97          1           0        1.647393    2.505929   -0.286620
     98          1           0        1.269998   -1.059522    0.368828
     99          1           0        2.705832   -1.532510   -0.722738
    100          1           0        2.586861   -1.537684    1.051915
 ---------------------------------------------------------------------

 SCF Done:  E(RCAM-B3LYP) =  -1857.27283326     A.U. after   15 cycles

 Excitation energies and oscillator strengths:

 Excited State   1:      Singlet-A      2.2203 eV  558.41 nm  f=2.9891  <S**2>=0.000
     163 ->166        -0.13556
     164 ->165         0.69411
 This state for optimization and/or second-order correction.
 Total Energy, E(TD-HF/TD-DFT) =  -1857.19123813
 Copying the excited state density for this state as the 1-particle RhoCI density.

 The electronic state is 1-A.
 Alpha  occ. eigenvalues --  -19.23351 -19.22260 -19.19975 -19.19889 -10.33520
 Alpha  occ. eigenvalues --  -10.32601 -10.32333 -10.31903 -10.29936 -10.28648
 Alpha  occ. eigenvalues --  -10.28401 -10.28231 -10.28214 -10.27989 -10.27695
 Alpha  occ. eigenvalues --  -10.27592 -10.27589 -10.27470 -10.27402 -10.27133
 Alpha  occ. eigenvalues --  -10.27111 -10.27075 -10.26993 -10.26921 -10.26893
 Alpha  occ. eigenvalues --  -10.26688 -10.26670 -10.26329 -10.26292 -10.26171
 Alpha  occ. eigenvalues --  -10.26084 -10.25923 -10.25916 -10.25734 -10.25689
 Alpha  occ. eigenvalues --  -10.25561 -10.25484 -10.25276 -10.25140 -10.25038
 Alpha  occ. eigenvalues --  -10.24914 -10.24376 -10.23444 -10.23360  -1.13873
 Alpha  occ. eigenvalues --   -1.10859  -1.10591  -1.08888  -0.93287  -0.92973
 Alpha  occ. eigenvalues --   -0.92650  -0.91866  -0.91255  -0.89542  -0.87669
 Alpha  occ. eigenvalues --   -0.87381  -0.86252  -0.85278  -0.84674  -0.83202
 Alpha  occ. eigenvalues --   -0.82697  -0.81202  -0.80813  -0.80047  -0.77582
 Alpha  occ. eigenvalues --   -0.77158  -0.76637  -0.76464  -0.76378  -0.75336
 Alpha  occ. eigenvalues --   -0.74960  -0.74654  -0.73472  -0.71162  -0.69596
 Alpha  occ. eigenvalues --   -0.68047  -0.66920  -0.65883  -0.64843  -0.64180
 Alpha  occ. eigenvalues --   -0.63289  -0.61915  -0.61441  -0.60499  -0.59675
 Alpha  occ. eigenvalues --   -0.58552  -0.58497  -0.57022  -0.56793  -0.56262
 Alpha  occ. eigenvalues --   -0.56082  -0.55704  -0.54877  -0.54784  -0.54493
 Alpha  occ. eigenvalues --   -0.53947  -0.53798  -0.53223  -0.52923  -0.52225
 Alpha  occ. eigenvalues --   -0.52120  -0.51473  -0.50986  -0.50706  -0.50142
 Alpha  occ. eigenvalues --   -0.49797  -0.49171  -0.48975  -0.48721  -0.48602
 Alpha  occ. eigenvalues --   -0.48357  -0.47809  -0.47392  -0.47126  -0.46730
 Alpha  occ. eigenvalues --   -0.46391  -0.46369  -0.45873  -0.45759  -0.44994
 Alpha  occ. eigenvalues --   -0.44607  -0.44361  -0.44005  -0.43663  -0.43194
 Alpha  occ. eigenvalues --   -0.43033  -0.42928  -0.42734  -0.42448  -0.42277
 Alpha  occ. eigenvalues --   -0.42124  -0.41874  -0.41616  -0.41363  -0.41075
 Alpha  occ. eigenvalues --   -0.40804  -0.40754  -0.40517  -0.40290  -0.40180
 Alpha  occ. eigenvalues --   -0.39673  -0.39577  -0.39469  -0.39133  -0.38917
 Alpha  occ. eigenvalues --   -0.38311  -0.38227  -0.37527  -0.37233  -0.36784
 Alpha  occ. eigenvalues --   -0.36247  -0.35612  -0.35463  -0.34486  -0.34124
 Alpha  occ. eigenvalues --   -0.33120  -0.33008  -0.32372  -0.31734  -0.31465
 Alpha  occ. eigenvalues --   -0.30062  -0.27599  -0.24626  -0.20052
 Alpha virt. eigenvalues --   -0.06096  -0.01194   0.02399   0.06083   0.06895
 Alpha virt. eigenvalues --    0.09584   0.10129   0.10548   0.11404   0.12065
 Alpha virt. eigenvalues --    0.12415   0.12709   0.12809   0.13109   0.13573

 Mulliken charges:
               1
     1  O   -0.510290
     2  O   -0.543408
     3  O   -0.531436
     4  O   -0.530688
     5  C    0.198875
     6  C    0.240254
     7  C    0.044729
     8  C   -0.236163
     9  C   -0.177082
    10  C    0.161362
    11  C   -0.339095
    12  C   -0.112744
    13  C   -0.315172
    14  C   -0.306940
    15  C   -0.081971
    16  C    0.093464
    17  C   -0.384582
    18  C   -0.099754
    19  C   -0.067395
    20  C   -0.008530
    21  C    0.225333
    22  C   -0.186880
    23  C    0.130035
    24  C   -0.183595
    25  C   -0.069788
    26  C   -0.289909
    27  C   -0.300231
    28  C   -0.334030
    29  C   -0.138229
    30  C    0.183580
    31  C    0.123795
    32  C   -0.293072
    33  C   -0.397960
    34  C   -0.090735
    35  C    0.127213
    36  C   -0.376641
    37  C   -0.119505
    38  C   -0.096409
    39  C   -0.053609
    40  C   -0.093491
    41  C   -0.132551
    42  C   -0.109516
    43  C    0.110299
    44  C   -0.349921
    45  H    0.119872
    46  H    0.132214
    47  H    0.110375
    48  H    0.099356
    49  H    0.105960
    50  H    0.124270
    51  H    0.099951
    52  H    0.116496
    53  H    0.099543
    54  H    0.090757
    55  H    0.101626
    56  H    0.086024
    57  H    0.104290
    58  H    0.068001
    59  H    0.113408
    60  H    0.283039
    61  H    0.065797
    62  H    0.110422
    63  H    0.142701
    64  H    0.110472
    65  H    0.098200
    66  H    0.077492
    67  H    0.066083
    68  H    0.114653
    69  H    0.060821
    70  H    0.106355
    71  H    0.103424
    72  H    0.106601
    73  H    0.112392
    74  H    0.097705
    75  H    0.120049
    76  H    0.114495
    77  H    0.088058
    78  H    0.110554
    79  H    0.091254
    80  H    0.140936
    81  H    0.075787
    82  H    0.288903
    83  H    0.303128
    84  H    0.081185
    85  H    0.138806
    86  H    0.131205
    87  H    0.097222
    88  H    0.077742
    89  H    0.105900
    90  H    0.152050
    91  H    0.102225
    92  H    0.056919
    93  H    0.069235
    94  H    0.079519
    95  H    0.084257
    96  H    0.076956
    97  H    0.073112
    98  H    0.109051
    99  H    0.118123
   100  H    0.107414
 Sum of Mulliken charges =  -0.00000

 Dipole moment (field-independent basis, Debye):
    X=              1.2099    Y=             -0.7023    Z=              1.6988  Tot=              2.2007
 Quadrupole moment (field-independent basis, Debye-Ang):
   XX=           -288.7206   YY=           -254.7649   ZZ=           -278.7431
   XY=              7.4217   XZ=             36.2728   YZ=              0.5550

 Normal termination of Gaussian 16 at Wed Jul 31 13:38:58 2019.
