 Gaussian 16, Revision A.03,
 Gaussian 16:  ES64L-G16RevA.03 25-Dec-2016

 -------------------------------------
 # td=(NStates=1) CAM-B3LYP/6-31G(d,p)
 -------------------------------------

 --
 TD
 --
 Symbolic Z-matrix:
 Charge =  0 Multiplicity = 1

                         Standard orientation:
 ---------------------------------------------------------------------
 Center     Atomic      Atomic             Coordinates (Angstroms)
 Number     Number       Type             X           Y           Z
 ---------------------------------------------------------------------
      1          8           0      -11.844522    0.229862   -1.407163
      2          8           0      -12.677788   -2.755248    1.406096
      3          8           0       10.606419   -0.974813   -2.141411
      4          8           0       14.521889   -1.208929   -0.103208
      5          6           0      -11.011521   -0.197769   -0.242433
      6          6           0      -11.736883   -1.158036   -1.219882
      7          6           0      -11.717928    0.131908    1.150754
      8          6           0      -13.085789   -1.746517   -0.902782
      9          6           0      -13.244182   -0.297571    1.173082
     10          6           0      -13.351514   -1.756742    0.627869
     11          6           0      -10.960855   -1.891043   -2.344675
     12          6           0       -9.598748    0.112968   -0.523111
     13          6           0      -10.944253   -0.442462    2.333326
     14          6           0      -11.699450    1.713772    1.173101
     15          6           0       -8.663846   -0.748942   -0.025386
     16          6           0       -7.177732   -0.502903   -0.087724
     17          6           0       -6.420034   -1.780365   -0.030416
     18          6           0       -6.635715    0.745138   -0.162984
     19          6           0       -5.234215    1.011976   -0.430517
     20          6           0       11.916478   -0.173277    1.365668
     21          6           0       11.604053   -0.586249   -1.188234
     22          6           0       12.617089   -1.557324    1.505348
     23          6           0       13.288321   -2.037256    0.168459
     24          6           0       12.440591   -1.949876   -1.053533
     25          6           0       11.051845    0.025219    0.109008
     26          6           0       11.144097   -0.111336    2.676042
     27          6           0       12.982025    1.126271    1.444882
     28          6           0       12.476604    0.411875   -1.962822
     29          6           0       -4.757462    2.331701   -0.284930
     30          6           0        9.859665    0.549566    0.117749
     31          6           0       -3.415387    2.757620   -0.298571
     32          6           0        8.715551    1.060153    0.020697
     33          6           0       -3.205785    4.219616   -0.446109
     34          6           0       -2.303904    1.911531   -0.276113
     35          6           0        7.491441    0.269072    0.056610
     36          6           0        7.724104   -1.241691    0.043081
     37          6           0        6.247253    0.866019   -0.008650
     38          6           0       -0.973047    2.247202   -0.359913
     39          6           0        4.960645    0.269484   -0.099463
     40          6           0        0.003168    1.215297   -0.179787
     41          6           0        3.695140    0.955480   -0.141376
     42          6           0        1.339791    1.420558   -0.294790
     43          6           0        2.364670    0.476747   -0.096143
     44          6           0        2.265222   -0.998141    0.086095
     45          1           0      -13.087393   -2.793468   -1.341260
     46          1           0      -14.004645   -1.287560   -1.518520
     47          1           0      -13.779636   -0.128414    2.105418
     48          1           0      -13.713486    0.202163    0.245458
     49          1           0      -14.557564   -1.995677    0.743546
     50          1           0      -10.693713   -2.985682   -2.025958
     51          1           0      -11.692045   -1.866485   -3.288136
     52          1           0      -10.000926   -1.416799   -2.544335
     53          1           0       -9.421642    0.975380   -1.099060
     54          1           0       -9.852369   -0.007501    2.334898
     55          1           0      -11.611493   -0.116108    3.255975
     56          1           0      -10.701879   -1.552368    2.458092
     57          1           0      -12.197750    2.132788    0.327414
     58          1           0      -12.258334    2.109284    2.059180
     59          1           0      -10.678134    2.232401    1.337224
     60          1           0      -11.805135   -2.565765    1.111458
     61          1           0       -8.809877   -1.747239    0.403429
     62          1           0       -6.206891   -2.183581   -0.949714
     63          1           0       -5.459248   -1.478488    0.663919
     64          1           0       -7.027613   -2.490064    0.578015
     65          1           0       -7.309567    1.717404    0.221000
     66          1           0       -4.485184    0.079661   -0.314379
     67          1           0       13.411920   -1.435580    2.215922
     68          1           0       11.916536   -2.518441    1.962271
     69          1           0       13.558008   -3.067738    0.416715
     70          1           0       13.200860   -1.973261   -1.809524
     71          1           0       11.720335   -2.785690   -1.201747
     72          1           0       11.813650    0.155460    3.505173
     73          1           0       10.360486    0.798324    2.645970
     74          1           0       10.632404   -0.906979    2.932148
     75          1           0       13.597884    1.129731    0.549437
     76          1           0       12.277478    2.035609    1.446839
     77          1           0       13.487504    0.887727    2.299113
     78          1           0       12.958353   -0.144792   -2.903087
     79          1           0       11.976254    1.320503   -2.166324
     80          1           0       13.301198    0.523724   -1.271934
     81          1           0       -5.557208    3.111005   -0.202228
     82          1           0       10.255787   -0.058871   -2.394816
     83          1           0       14.906066   -1.350517    0.698646
     84          1           0        8.734144    2.099947   -0.096087
     85          1           0       -2.681208    4.694909    0.237703
     86          1           0       -2.447265    4.442028   -1.301957
     87          1           0       -4.162076    4.682207   -0.529758
     88          1           0       -2.584966    0.830595    0.116427
     89          1           0        6.786463   -1.821420    0.070230
     90          1           0        8.236472   -1.804165   -0.646182
     91          1           0        8.186285   -1.310607    1.011638
     92          1           0        6.226767    2.015066    0.064820
     93          1           0       -0.673210    3.392397   -0.280396
     94          1           0        4.901720   -0.790340   -0.235226
     95          1           0       -0.316878    0.320573    0.051953
     96          1           0        3.704322    2.158380   -0.111303
     97          1           0        1.557013    2.378282   -0.611199
     98          1           0        1.306594   -1.367234    0.072560
     99          1           0        2.857601   -1.526442   -0.652589
    100          1           0        2.760220   -1.185286    0.970053
 ---------------------------------------------------------------------

 SCF Done:  E(RCAM-B3LYP) =  -1857.36277094     A.U. after   15 cycles

 Excitation energies and oscillator strengths:

 Excited State   1:      Singlet-A      1.9766 eV  627.27 nm  f=3.0209  <S**2>=0.000
     163 ->166        -0.12368
     164 ->165         0.70161
     164 <-165        -0.11842
 This state for optimization and/or second-order correction.
 Total Energy, E(TD-HF/TD-DFT) =  -1857.29013292
 Copying the excited state density for this state as the 1-particle RhoCI density.

 The electronic state is 1-A.
 Alpha  occ. eigenvalues --  -19.21907 -19.21564 -19.21504 -19.21100 -10.32364
 Alpha  occ. eigenvalues --  -10.32110 -10.31992 -10.31845 -10.31553 -10.29027
 Alpha  occ. eigenvalues --  -10.28927 -10.28568 -10.28282 -10.27999 -10.27815
 Alpha  occ. eigenvalues --  -10.27794 -10.27649 -10.27613 -10.27520 -10.27247
 Alpha  occ. eigenvalues --  -10.27207 -10.27184 -10.27109 -10.26991 -10.26941
 Alpha  occ. eigenvalues --  -10.26919 -10.26868 -10.26812 -10.26801 -10.26633
 Alpha  occ. eigenvalues --  -10.26570 -10.26302 -10.26137 -10.25965 -10.25755
 Alpha  occ. eigenvalues --  -10.25617 -10.25531 -10.25466 -10.24993 -10.24584
 Alpha  occ. eigenvalues --  -10.24428 -10.24409 -10.24400 -10.24379  -1.13879
 Alpha  occ. eigenvalues --   -1.10449  -1.10264  -1.08953  -0.92969  -0.92505
 Alpha  occ. eigenvalues --   -0.91639  -0.91010  -0.90647  -0.89382  -0.87643
 Alpha  occ. eigenvalues --   -0.86160  -0.85858  -0.85660  -0.84546  -0.83089
 Alpha  occ. eigenvalues --   -0.82377  -0.80676  -0.80081  -0.79759  -0.77651
 Alpha  occ. eigenvalues --   -0.76871  -0.76443  -0.76221  -0.76077  -0.75278
 Alpha  occ. eigenvalues --   -0.74844  -0.73843  -0.73150  -0.70094  -0.68952
 Alpha  occ. eigenvalues --   -0.68367  -0.66559  -0.64992  -0.64814  -0.63889
 Alpha  occ. eigenvalues --   -0.63052  -0.62809  -0.61310  -0.59818  -0.58886
 Alpha  occ. eigenvalues --   -0.58172  -0.58005  -0.57737  -0.56709  -0.56624
 Alpha  occ. eigenvalues --   -0.56148  -0.55715  -0.54773  -0.54386  -0.53792
 Alpha  occ. eigenvalues --   -0.53340  -0.52772  -0.52551  -0.51997  -0.51754
 Alpha  occ. eigenvalues --   -0.51456  -0.51178  -0.50410  -0.50162  -0.49758
 Alpha  occ. eigenvalues --   -0.49427  -0.49366  -0.49005  -0.48925  -0.48790
 Alpha  occ. eigenvalues --   -0.48691  -0.48395  -0.47414  -0.47060  -0.46608
 Alpha  occ. eigenvalues --   -0.46356  -0.46174  -0.45994  -0.45778  -0.45361
 Alpha  occ. eigenvalues --   -0.45296  -0.44679  -0.44407  -0.44340  -0.43967
 Alpha  occ. eigenvalues --   -0.43667  -0.43517  -0.43382  -0.43265  -0.43160
 Alpha  occ. eigenvalues --   -0.42900  -0.42706  -0.42185  -0.41908  -0.41620
 Alpha  occ. eigenvalues --   -0.41344  -0.41254  -0.40965  -0.40630  -0.39861
 Alpha  occ. eigenvalues --   -0.39706  -0.39427  -0.39179  -0.38832  -0.38661
 Alpha  occ. eigenvalues --   -0.38315  -0.38289  -0.38077  -0.37770  -0.37379
 Alpha  occ. eigenvalues --   -0.37249  -0.35561  -0.35253  -0.34758  -0.33514
 Alpha  occ. eigenvalues --   -0.32995  -0.32470  -0.31747  -0.31150  -0.30664
 Alpha  occ. eigenvalues --   -0.29701  -0.28137  -0.24803  -0.19134
 Alpha virt. eigenvalues --   -0.06932  -0.00781   0.02921   0.06093   0.06716
 Alpha virt. eigenvalues --    0.09894   0.10140   0.10227   0.10659   0.11624
 Alpha virt. eigenvalues --    0.12288   0.12583   0.12788   0.13507   0.13928

 Mulliken charges:
               1
     1  O   -0.511656
     2  O   -0.521897
     3  O   -0.557290
     4  O   -0.539489
     5  C    0.162400
     6  C    0.259075
     7  C    0.023991
     8  C   -0.220303
     9  C   -0.187044
    10  C    0.135530
    11  C   -0.321111
    12  C   -0.100971
    13  C   -0.301175
    14  C   -0.316042
    15  C   -0.077976
    16  C    0.058066
    17  C   -0.360370
    18  C   -0.109728
    19  C   -0.089293
    20  C    0.000934
    21  C    0.221252
    22  C   -0.188730
    23  C    0.113857
    24  C   -0.195697
    25  C   -0.080493
    26  C   -0.292745
    27  C   -0.302314
    28  C   -0.313496
    29  C   -0.127326
    30  C    0.220949
    31  C    0.104966
    32  C   -0.282723
    33  C   -0.378194
    34  C   -0.109245
    35  C    0.074358
    36  C   -0.365345
    37  C   -0.104082
    38  C   -0.103900
    39  C   -0.103529
    40  C   -0.052938
    41  C   -0.128444
    42  C   -0.115832
    43  C    0.111556
    44  C   -0.375192
    45  H    0.102588
    46  H    0.113716
    47  H    0.110441
    48  H    0.116215
    49  H    0.063694
    50  H    0.091191
    51  H    0.103755
    52  H    0.123008
    53  H    0.126645
    54  H    0.099377
    55  H    0.096952
    56  H    0.099188
    57  H    0.134221
    58  H    0.091906
    59  H    0.090349
    60  H    0.298864
    61  H    0.079147
    62  H    0.143670
    63  H    0.095282
    64  H    0.107705
    65  H    0.080908
    66  H    0.083713
    67  H    0.092700
    68  H    0.076190
    69  H    0.090572
    70  H    0.131262
    71  H    0.120398
    72  H    0.095273
    73  H    0.077942
    74  H    0.114371
    75  H    0.127702
    76  H    0.103794
    77  H    0.104311
    78  H    0.101311
    79  H    0.092465
    80  H    0.133065
    81  H    0.086723
    82  H    0.302757
    83  H    0.298074
    84  H    0.111542
    85  H    0.134050
    86  H    0.106937
    87  H    0.107392
    88  H    0.072649
    89  H    0.094002
    90  H    0.151173
    91  H    0.125656
    92  H    0.076451
    93  H    0.090019
    94  H    0.081549
    95  H    0.067579
    96  H    0.066519
    97  H    0.079854
    98  H    0.112114
    99  H    0.130343
   100  H    0.138364
 Sum of Mulliken charges =  -0.00000

 Dipole moment (field-independent basis, Debye):
    X=              4.0975    Y=             -0.1262    Z=              2.1850  Tot=              4.6454
 Quadrupole moment (field-independent basis, Debye-Ang):
   XX=           -287.1367   YY=           -259.8217   ZZ=           -278.6340
   XY=            -12.4136   XZ=             30.8029   YZ=              0.4232

 Normal termination of Gaussian 16 at Thu Aug  1 09:19:44 2019.
