 Gaussian 16, Revision A.03,
 Gaussian 16:  ES64L-G16RevA.03 25-Dec-2016

 -------------------------------------
 # td=(NStates=1) CAM-B3LYP/6-31G(d,p)
 -------------------------------------

 --
 TD
 --
 Symbolic Z-matrix:
 Charge =  0 Multiplicity = 1

                         Standard orientation:
 ---------------------------------------------------------------------
 Center     Atomic      Atomic             Coordinates (Angstroms)
 Number     Number       Type             X           Y           Z
 ---------------------------------------------------------------------
      1          8           0      -11.579914    0.129698   -1.644300
      2          8           0      -13.115266   -2.326776    1.369702
      3          8           0       10.485974   -1.346717   -1.979226
      4          8           0       14.442210   -0.965036   -0.158915
      5          6           0      -10.973444   -0.109225   -0.401000
      6          6           0      -11.551226   -1.294045   -1.170866
      7          6           0      -11.812271    0.465354    0.868571
      8          6           0      -12.916032   -1.858155   -0.979806
      9          6           0      -13.327628   -0.036605    0.738411
     10          6           0      -13.546520   -1.464300    0.386582
     11          6           0      -10.729499   -2.069645   -2.037550
     12          6           0       -9.504032    0.067908   -0.391983
     13          6           0      -11.241737    0.002298    2.237725
     14          6           0      -11.679652    1.950174    0.724639
     15          6           0       -8.646478   -0.787904    0.290421
     16          6           0       -7.239153   -0.505250    0.355442
     17          6           0       -6.343754   -1.697495    0.783702
     18          6           0       -6.568387    0.614872    0.007371
     19          6           0       -5.198958    0.898682   -0.090191
     20          6           0       11.951126    0.262684    1.231346
     21          6           0       11.532890   -0.775923   -1.242773
     22          6           0       12.664979   -1.125045    1.466390
     23          6           0       13.376164   -1.771429    0.353087
     24          6           0       12.357125   -1.925748   -0.711338
     25          6           0       11.060926    0.129754   -0.046265
     26          6           0       11.165704    0.606109    2.474507
     27          6           0       13.056011    1.349247    0.975896
     28          6           0       12.508836    0.108591   -2.230290
     29          6           0       -4.707303    2.114627   -0.368170
     30          6           0        9.871995    0.444982   -0.128935
     31          6           0       -3.409827    2.566657   -0.604433
     32          6           0        8.635076    0.908860   -0.227599
     33          6           0       -3.149201    3.910669   -0.965877
     34          6           0       -2.342992    1.619748   -0.281641
     35          6           0        7.423378    0.042473    0.141408
     36          6           0        7.693540   -1.348533    0.581661
     37          6           0        6.199152    0.619576   -0.002499
     38          6           0       -0.941045    1.957933   -0.244454
     39          6           0        4.880746    0.000510    0.070005
     40          6           0        0.043923    1.031897   -0.077258
     41          6           0        3.736163    0.834286   -0.074908
     42          6           0        1.413491    1.295218   -0.151977
     43          6           0        2.445735    0.376722    0.029751
     44          6           0        2.076483   -1.099279    0.406146
     45          1           0      -13.103510   -2.934962   -1.248125
     46          1           0      -13.512326   -1.513861   -1.786432
     47          1           0      -14.070212    0.164926    1.530374
     48          1           0      -13.688711    0.530924    0.115612
     49          1           0      -14.706817   -1.610192    0.511075
     50          1           0      -10.188964   -2.976283   -1.487556
     51          1           0      -11.510172   -2.283257   -2.775337
     52          1           0       -9.803082   -1.639688   -2.666773
     53          1           0       -9.058672    0.989111   -0.795432
     54          1           0      -10.153161    0.164011    2.363479
     55          1           0      -11.631269    0.491853    3.014284
     56          1           0      -11.428357   -0.983347    2.344100
     57          1           0      -11.917997    2.371288   -0.101263
     58          1           0      -12.197449    2.429015    1.488755
     59          1           0      -10.638692    2.231686    0.992517
     60          1           0      -12.181963   -2.429750    1.190998
     61          1           0       -8.833318   -1.895529    0.746340
     62          1           0       -5.501031   -2.050366    0.160174
     63          1           0       -5.804452   -1.577351    1.756793
     64          1           0       -7.010563   -2.519463    0.858212
     65          1           0       -7.195799    1.547618   -0.282523
     66          1           0       -4.434108    0.204534    0.003310
     67          1           0       13.352482   -0.784343    2.398125
     68          1           0       12.080673   -1.730833    1.828267
     69          1           0       13.779676   -2.897393    0.668394
     70          1           0       12.958018   -2.308615   -1.615905
     71          1           0       11.657433   -2.803481   -0.457720
     72          1           0       11.809106    0.454341    3.468761
     73          1           0       10.876550    1.631659    2.457879
     74          1           0       10.349211   -0.079201    2.594830
     75          1           0       13.722180    1.365337   -0.050789
     76          1           0       12.402195    2.328984    0.886205
     77          1           0       13.876291    1.320335    1.822450
     78          1           0       12.872525   -0.765680   -2.858291
     79          1           0       12.132689    1.061133   -2.579413
     80          1           0       13.581704    0.290187   -1.882762
     81          1           0       -5.479849    2.903309   -0.564909
     82          1           0        9.992007   -0.599136   -2.217781
     83          1           0       15.218910   -0.890501    0.446469
     84          1           0        8.354892    1.846682   -0.587922
     85          1           0       -2.626468    4.333031   -0.147269
     86          1           0       -2.244022    4.022156   -1.677945
     87          1           0       -3.833840    4.439186   -1.207139
     88          1           0       -2.631062    0.481568   -0.103004
     89          1           0        6.963210   -2.051080    0.547163
     90          1           0        8.473581   -1.819419   -0.019076
     91          1           0        8.125562   -1.036810    1.706847
     92          1           0        6.125878    1.675479   -0.209653
     93          1           0       -0.665456    3.049566   -0.491404
     94          1           0        4.841001   -1.138911    0.324853
     95          1           0       -0.439773    0.162844    0.307728
     96          1           0        3.806025    1.792749   -0.410181
     97          1           0        1.764124    2.206990   -0.607487
     98          1           0        0.972111   -1.505789    0.087360
     99          1           0        2.656400   -1.929922   -0.065634
    100          1           0        2.296783   -1.532188    1.418793
 ---------------------------------------------------------------------

 SCF Done:  E(RCAM-B3LYP) =  -1857.26020418     A.U. after   15 cycles

 Excitation energies and oscillator strengths:

 Excited State   1:      Singlet-A      2.0692 eV  599.20 nm  f=2.9529  <S**2>=0.000
     163 ->166        -0.13190
     164 ->165         0.69604
 This state for optimization and/or second-order correction.
 Total Energy, E(TD-HF/TD-DFT) =  -1857.18416426
 Copying the excited state density for this state as the 1-particle RhoCI density.

 The electronic state is 1-A.
 Alpha  occ. eigenvalues --  -19.22262 -19.22180 -19.21541 -19.20888 -10.33121
 Alpha  occ. eigenvalues --  -10.32571 -10.32004 -10.31699 -10.30790 -10.29188
 Alpha  occ. eigenvalues --  -10.28332 -10.27958 -10.27873 -10.27741 -10.27703
 Alpha  occ. eigenvalues --  -10.27526 -10.27367 -10.27266 -10.27221 -10.26899
 Alpha  occ. eigenvalues --  -10.26898 -10.26791 -10.26741 -10.26421 -10.26335
 Alpha  occ. eigenvalues --  -10.26060 -10.26004 -10.25972 -10.25942 -10.25941
 Alpha  occ. eigenvalues --  -10.25783 -10.25755 -10.25730 -10.25727 -10.25607
 Alpha  occ. eigenvalues --  -10.25489 -10.25112 -10.24966 -10.24873 -10.24749
 Alpha  occ. eigenvalues --  -10.23733 -10.22584 -10.22024 -10.21963  -1.13878
 Alpha  occ. eigenvalues --   -1.12467  -1.11446  -1.09751  -0.93464  -0.92659
 Alpha  occ. eigenvalues --   -0.91746  -0.90693  -0.90225  -0.89641  -0.87918
 Alpha  occ. eigenvalues --   -0.87563  -0.86774  -0.85929  -0.85465  -0.83070
 Alpha  occ. eigenvalues --   -0.82428  -0.81327  -0.80612  -0.78214  -0.77549
 Alpha  occ. eigenvalues --   -0.77351  -0.77059  -0.76594  -0.76293  -0.75697
 Alpha  occ. eigenvalues --   -0.74696  -0.74109  -0.72752  -0.70476  -0.69970
 Alpha  occ. eigenvalues --   -0.68887  -0.67037  -0.65949  -0.64526  -0.64265
 Alpha  occ. eigenvalues --   -0.63066  -0.62338  -0.61283  -0.60283  -0.60025
 Alpha  occ. eigenvalues --   -0.59256  -0.59010  -0.58260  -0.57870  -0.57599
 Alpha  occ. eigenvalues --   -0.56080  -0.55947  -0.54799  -0.54677  -0.54486
 Alpha  occ. eigenvalues --   -0.53686  -0.53264  -0.52807  -0.52747  -0.52327
 Alpha  occ. eigenvalues --   -0.52066  -0.51744  -0.50952  -0.50482  -0.50347
 Alpha  occ. eigenvalues --   -0.49907  -0.49205  -0.49148  -0.48662  -0.48053
 Alpha  occ. eigenvalues --   -0.48004  -0.47550  -0.47071  -0.46752  -0.46606
 Alpha  occ. eigenvalues --   -0.46483  -0.46143  -0.45942  -0.45844  -0.45597
 Alpha  occ. eigenvalues --   -0.45273  -0.45069  -0.44576  -0.44403  -0.44083
 Alpha  occ. eigenvalues --   -0.44003  -0.43141  -0.42799  -0.42630  -0.42383
 Alpha  occ. eigenvalues --   -0.42036  -0.41943  -0.41896  -0.41314  -0.41056
 Alpha  occ. eigenvalues --   -0.40814  -0.40498  -0.40282  -0.39947  -0.39840
 Alpha  occ. eigenvalues --   -0.39701  -0.39439  -0.39299  -0.38967  -0.38683
 Alpha  occ. eigenvalues --   -0.38634  -0.37976  -0.37609  -0.37349  -0.37187
 Alpha  occ. eigenvalues --   -0.36440  -0.35606  -0.35277  -0.34428  -0.33575
 Alpha  occ. eigenvalues --   -0.33471  -0.32773  -0.31711  -0.31292  -0.30864
 Alpha  occ. eigenvalues --   -0.30201  -0.27716  -0.23955  -0.19048
 Alpha virt. eigenvalues --   -0.05956  -0.00588   0.03406   0.06766   0.08059
 Alpha virt. eigenvalues --    0.09483   0.10323   0.10781   0.11601   0.12199
 Alpha virt. eigenvalues --    0.12352   0.12858   0.13185   0.13548   0.13786

 Mulliken charges:
               1
     1  O   -0.516607
     2  O   -0.516674
     3  O   -0.532222
     4  O   -0.553014
     5  C    0.245926
     6  C    0.201808
     7  C   -0.001859
     8  C   -0.241956
     9  C   -0.152474
    10  C    0.132084
    11  C   -0.316108
    12  C   -0.126702
    13  C   -0.304206
    14  C   -0.311308
    15  C   -0.070708
    16  C    0.080725
    17  C   -0.376660
    18  C   -0.125164
    19  C   -0.014561
    20  C    0.012881
    21  C    0.247730
    22  C   -0.143466
    23  C    0.174664
    24  C   -0.205826
    25  C   -0.129119
    26  C   -0.299229
    27  C   -0.274812
    28  C   -0.337921
    29  C   -0.134743
    30  C    0.232501
    31  C    0.111994
    32  C   -0.285166
    33  C   -0.356824
    34  C   -0.145320
    35  C    0.088492
    36  C   -0.353422
    37  C   -0.114351
    38  C   -0.084478
    39  C   -0.095683
    40  C   -0.067831
    41  C   -0.120671
    42  C   -0.151835
    43  C    0.159891
    44  C   -0.386699
    45  H    0.114563
    46  H    0.137552
    47  H    0.091902
    48  H    0.105677
    49  H    0.075891
    50  H    0.090759
    51  H    0.109056
    52  H    0.119017
    53  H    0.113317
    54  H    0.097326
    55  H    0.111104
    56  H    0.092952
    57  H    0.122607
    58  H    0.101569
    59  H    0.095085
    60  H    0.301031
    61  H    0.079208
    62  H    0.117509
    63  H    0.117465
    64  H    0.095055
    65  H    0.062623
    66  H    0.064533
    67  H    0.054246
    68  H    0.096093
    69  H    0.063202
    70  H    0.102900
    71  H    0.112167
    72  H    0.082806
    73  H    0.117116
    74  H    0.115799
    75  H    0.111635
    76  H    0.080073
    77  H    0.078363
    78  H    0.104976
    79  H    0.103425
    80  H    0.134177
    81  H    0.062922
    82  H    0.303869
    83  H    0.312174
    84  H    0.105928
    85  H    0.141637
    86  H    0.114006
    87  H    0.102774
    88  H    0.081334
    89  H    0.115035
    90  H    0.135113
    91  H    0.103055
    92  H    0.072910
    93  H    0.068435
    94  H    0.087111
    95  H    0.087869
    96  H    0.082133
    97  H    0.082236
    98  H    0.096851
    99  H    0.110598
   100  H    0.120157
 Sum of Mulliken charges =  -0.00000

 Dipole moment (field-independent basis, Debye):
    X=              5.0294    Y=              0.0422    Z=              1.3476  Tot=              5.2070
 Quadrupole moment (field-independent basis, Debye-Ang):
   XX=           -251.1456   YY=           -256.5708   ZZ=           -279.7336
   XY=             -3.3863   XZ=             28.4863   YZ=             -4.5075

 Normal termination of Gaussian 16 at Thu Aug  1 17:10:30 2019.
