 Gaussian 16, Revision A.03,
 Gaussian 16:  ES64L-G16RevA.03 25-Dec-2016

 -------------------------------------
 # td=(NStates=1) CAM-B3LYP/6-31G(d,p)
 -------------------------------------

 --
 TD
 --
 Symbolic Z-matrix:
 Charge =  0 Multiplicity = 1

                         Standard orientation:
 ---------------------------------------------------------------------
 Center     Atomic      Atomic             Coordinates (Angstroms)
 Number     Number       Type             X           Y           Z
 ---------------------------------------------------------------------
      1          8           0      -11.681256    0.222966   -1.687822
      2          8           0      -13.225607   -2.424035    1.275731
      3          8           0       10.665532   -1.157808   -2.041655
      4          8           0       14.635718   -0.967189   -0.110888
      5          6           0      -11.078230   -0.133375   -0.358735
      6          6           0      -11.703556   -1.204189   -1.236348
      7          6           0      -11.831348    0.365331    0.879102
      8          6           0      -13.066419   -1.801444   -1.092399
      9          6           0      -13.350932   -0.069813    0.808758
     10          6           0      -13.624655   -1.504604    0.361471
     11          6           0      -10.747573   -1.899774   -2.087208
     12          6           0       -9.614727    0.083925   -0.330899
     13          6           0      -11.164856   -0.176444    2.235855
     14          6           0      -11.802759    1.948590    0.817609
     15          6           0       -8.758960   -0.734409    0.195308
     16          6           0       -7.238571   -0.627782    0.281504
     17          6           0       -6.330998   -1.801451    0.741603
     18          6           0       -6.590087    0.588998   -0.101344
     19          6           0       -5.216447    0.905648    0.002157
     20          6           0       11.996613   -0.035728    1.339633
     21          6           0       11.690589   -0.619652   -1.177629
     22          6           0       12.753627   -1.258049    1.530642
     23          6           0       13.536060   -1.724777    0.228570
     24          6           0       12.459408   -1.917553   -0.903558
     25          6           0       11.132020   -0.083323    0.014417
     26          6           0       10.922938    0.063104    2.480200
     27          6           0       12.900541    1.267603    1.373176
     28          6           0       12.550093    0.372605   -2.089160
     29          6           0       -4.686665    2.193142   -0.315232
     30          6           0        9.990048    0.446891    0.049628
     31          6           0       -3.343314    2.582093   -0.388278
     32          6           0        8.748676    0.917857   -0.157694
     33          6           0       -3.049455    4.002613   -0.821137
     34          6           0       -2.338193    1.611096    0.000506
     35          6           0        7.444258    0.219353   -0.136385
     36          6           0        7.614558   -1.340449    0.010517
     37          6           0        6.230558    0.874902   -0.139635
     38          6           0       -0.944789    1.885223   -0.138897
     39          6           0        4.965555    0.320674   -0.143149
     40          6           0        0.031631    0.885088    0.087580
     41          6           0        3.806654    0.991315   -0.175333
     42          6           0        1.376836    1.311840   -0.036874
     43          6           0        2.527367    0.402298    0.026803
     44          6           0        2.302174   -1.028978    0.180956
     45          1           0      -13.168354   -2.993990   -1.319907
     46          1           0      -13.803624   -1.469217   -1.710394
     47          1           0      -13.675666    0.053043    1.916732
     48          1           0      -13.906899    0.353031    0.128770
     49          1           0      -14.722544   -1.934553    0.386168
     50          1           0      -10.501433   -2.819562   -1.563614
     51          1           0      -11.264446   -2.220211   -3.089080
     52          1           0       -9.907879   -1.281397   -2.140333
     53          1           0       -9.374484    1.080703   -0.482634
     54          1           0      -10.149953    0.279763    2.512786
     55          1           0      -11.954309   -0.025811    2.993153
     56          1           0      -10.899408   -1.227695    2.160394
     57          1           0      -12.396985    2.371881   -0.115079
     58          1           0      -12.338703    2.230456    1.766654
     59          1           0      -10.693572    2.314217    0.747101
     60          1           0      -12.158446   -2.412181    1.416257
     61          1           0       -9.105938   -1.754147    0.604847
     62          1           0       -5.818092   -2.246808   -0.066640
     63          1           0       -5.708304   -1.488071    1.555987
     64          1           0       -6.990345   -2.673633    1.064232
     65          1           0       -7.272170    1.397576   -0.469154
     66          1           0       -4.589003   -0.020934    0.359940
     67          1           0       13.585635   -1.185367    2.407813
     68          1           0       11.959332   -2.019920    1.634954
     69          1           0       13.991322   -2.684365    0.485321
     70          1           0       12.856314   -2.210882   -1.758726
     71          1           0       11.708594   -2.690625   -0.509234
     72          1           0       11.467767    0.235621    3.536600
     73          1           0       10.362002    0.878105    2.380480
     74          1           0       10.301328   -0.923941    2.561055
     75          1           0       13.595559    1.202133    0.585606
     76          1           0       12.047084    2.049563    1.227274
     77          1           0       13.210614    1.163084    2.442385
     78          1           0       12.927715   -0.136281   -2.931391
     79          1           0       11.871780    1.247288   -2.290401
     80          1           0       13.405025    0.678602   -1.611578
     81          1           0       -5.340111    2.951305   -0.741615
     82          1           0        9.953531   -0.577289   -2.177892
     83          1           0       15.432627   -0.859688    0.496261
     84          1           0        8.706709    2.066787   -0.085710
     85          1           0       -2.562234    4.715775   -0.082509
     86          1           0       -2.616273    4.046925   -1.827591
     87          1           0       -3.845975    4.533528   -1.084581
     88          1           0       -2.605980    0.644184    0.479877
     89          1           0        6.722345   -1.997159   -0.150331
     90          1           0        8.301974   -1.782525   -0.854861
     91          1           0        8.272277   -1.586888    0.968370
     92          1           0        6.305335    1.819139   -0.338367
     93          1           0       -0.470159    2.787929   -0.337434
     94          1           0        4.864203   -0.798595    0.055635
     95          1           0       -0.454410   -0.137613    0.059164
     96          1           0        3.695344    2.103469   -0.228821
     97          1           0        1.560084    2.318405   -0.214322
     98          1           0        1.322528   -1.252390    0.807442
     99          1           0        2.524846   -1.647319   -0.793495
    100          1           0        3.202743   -1.525318    0.854908
 ---------------------------------------------------------------------

 SCF Done:  E(RCAM-B3LYP) =  -1857.33887592     A.U. after   15 cycles

 Excitation energies and oscillator strengths:

 Excited State   1:      Singlet-A      1.9377 eV  639.87 nm  f=2.9325  <S**2>=0.000
     163 ->166         0.12364
     164 ->165         0.70193
     164 <-165        -0.11560
 This state for optimization and/or second-order correction.
 Total Energy, E(TD-HF/TD-DFT) =  -1857.26766828
 Copying the excited state density for this state as the 1-particle RhoCI density.

 The electronic state is 1-A.
 Alpha  occ. eigenvalues --  -19.21874 -19.20927 -19.20921 -19.19581 -10.31787
 Alpha  occ. eigenvalues --  -10.31310 -10.31145 -10.31058 -10.30727 -10.28869
 Alpha  occ. eigenvalues --  -10.28811 -10.28779 -10.28260 -10.28202 -10.28137
 Alpha  occ. eigenvalues --  -10.27975 -10.27859 -10.27857 -10.27607 -10.27597
 Alpha  occ. eigenvalues --  -10.27279 -10.27236 -10.27167 -10.26940 -10.26931
 Alpha  occ. eigenvalues --  -10.26772 -10.26759 -10.26753 -10.26335 -10.26309
 Alpha  occ. eigenvalues --  -10.26282 -10.26142 -10.26031 -10.25957 -10.25917
 Alpha  occ. eigenvalues --  -10.25566 -10.25468 -10.25361 -10.25226 -10.24977
 Alpha  occ. eigenvalues --  -10.24787 -10.24719 -10.23930 -10.23584  -1.10963
 Alpha  occ. eigenvalues --   -1.10129  -1.09357  -1.09158  -0.93797  -0.92198
 Alpha  occ. eigenvalues --   -0.91460  -0.90803  -0.89881  -0.89038  -0.87566
 Alpha  occ. eigenvalues --   -0.86295  -0.86110  -0.85753  -0.85274  -0.82875
 Alpha  occ. eigenvalues --   -0.81929  -0.80728  -0.79854  -0.78714  -0.76792
 Alpha  occ. eigenvalues --   -0.76578  -0.76554  -0.75811  -0.75774  -0.75613
 Alpha  occ. eigenvalues --   -0.75530  -0.74291  -0.72639  -0.70914  -0.70028
 Alpha  occ. eigenvalues --   -0.68296  -0.66980  -0.65368  -0.65087  -0.63690
 Alpha  occ. eigenvalues --   -0.63271  -0.62939  -0.61368  -0.60434  -0.59847
 Alpha  occ. eigenvalues --   -0.59813  -0.58805  -0.58259  -0.56844  -0.56747
 Alpha  occ. eigenvalues --   -0.55787  -0.55006  -0.54683  -0.54620  -0.54443
 Alpha  occ. eigenvalues --   -0.53428  -0.52633  -0.52318  -0.51905  -0.51539
 Alpha  occ. eigenvalues --   -0.51101  -0.50620  -0.50121  -0.49983  -0.49897
 Alpha  occ. eigenvalues --   -0.49623  -0.49200  -0.48912  -0.48536  -0.48266
 Alpha  occ. eigenvalues --   -0.47821  -0.47711  -0.46923  -0.46673  -0.46328
 Alpha  occ. eigenvalues --   -0.46251  -0.45951  -0.45922  -0.45757  -0.45352
 Alpha  occ. eigenvalues --   -0.45120  -0.44767  -0.44544  -0.44328  -0.44143
 Alpha  occ. eigenvalues --   -0.43317  -0.42915  -0.42709  -0.42613  -0.42580
 Alpha  occ. eigenvalues --   -0.42447  -0.42015  -0.41904  -0.41857  -0.41375
 Alpha  occ. eigenvalues --   -0.41112  -0.40799  -0.40555  -0.40452  -0.40227
 Alpha  occ. eigenvalues --   -0.40048  -0.39948  -0.39599  -0.39259  -0.38903
 Alpha  occ. eigenvalues --   -0.38583  -0.38011  -0.37806  -0.37324  -0.37294
 Alpha  occ. eigenvalues --   -0.35823  -0.35262  -0.34578  -0.34082  -0.33754
 Alpha  occ. eigenvalues --   -0.32285  -0.31901  -0.31353  -0.31199  -0.30350
 Alpha  occ. eigenvalues --   -0.30011  -0.28015  -0.24309  -0.19053
 Alpha virt. eigenvalues --   -0.06846  -0.01176   0.02897   0.06015   0.07162
 Alpha virt. eigenvalues --    0.08768   0.09109   0.10208   0.11665   0.11878
 Alpha virt. eigenvalues --    0.12078   0.12480   0.12681   0.12792   0.13120

 Mulliken charges:
               1
     1  O   -0.531378
     2  O   -0.540736
     3  O   -0.569797
     4  O   -0.569862
     5  C    0.200308
     6  C    0.235040
     7  C    0.005896
     8  C   -0.220262
     9  C   -0.166000
    10  C    0.143044
    11  C   -0.301980
    12  C   -0.110921
    13  C   -0.312741
    14  C   -0.292628
    15  C   -0.054809
    16  C    0.033981
    17  C   -0.378421
    18  C   -0.097315
    19  C   -0.072090
    20  C   -0.017265
    21  C    0.217639
    22  C   -0.167689
    23  C    0.170696
    24  C   -0.165077
    25  C   -0.034494
    26  C   -0.288635
    27  C   -0.283967
    28  C   -0.301945
    29  C   -0.129842
    30  C    0.157879
    31  C    0.091502
    32  C   -0.308897
    33  C   -0.378756
    34  C   -0.132082
    35  C    0.126998
    36  C   -0.378875
    37  C   -0.086607
    38  C   -0.072161
    39  C   -0.098501
    40  C   -0.081268
    41  C   -0.086964
    42  C   -0.143968
    43  C    0.128217
    44  C   -0.381857
    45  H    0.092239
    46  H    0.133413
    47  H    0.091747
    48  H    0.115044
    49  H    0.083237
    50  H    0.089863
    51  H    0.095932
    52  H    0.130190
    53  H    0.102359
    54  H    0.115324
    55  H    0.115584
    56  H    0.083508
    57  H    0.119471
    58  H    0.097866
    59  H    0.089672
    60  H    0.288544
    61  H    0.066383
    62  H    0.140924
    63  H    0.133546
    64  H    0.096888
    65  H    0.077614
    66  H    0.082282
    67  H    0.060649
    68  H    0.093210
    69  H    0.068941
    70  H    0.111647
    71  H    0.110476
    72  H    0.066082
    73  H    0.121925
    74  H    0.095546
    75  H    0.129718
    76  H    0.091246
    77  H    0.100271
    78  H    0.118734
    79  H    0.089658
    80  H    0.126457
    81  H    0.085494
    82  H    0.294441
    83  H    0.322883
    84  H    0.100899
    85  H    0.122216
    86  H    0.123583
    87  H    0.121429
    88  H    0.095431
    89  H    0.109942
    90  H    0.112825
    91  H    0.111234
    92  H    0.067049
    93  H    0.085459
    94  H    0.075709
    95  H    0.096359
    96  H    0.078263
    97  H    0.087397
    98  H    0.114718
    99  H    0.126511
   100  H    0.088555
 Sum of Mulliken charges =  -0.00000

 Dipole moment (field-independent basis, Debye):
    X=              3.6954    Y=              0.4402    Z=              2.1914  Tot=              4.3188
 Quadrupole moment (field-independent basis, Debye-Ang):
   XX=           -274.7736   YY=           -259.8369   ZZ=           -280.2887
   XY=             -1.5221   XZ=             16.9502   YZ=             -3.5094

 Normal termination of Gaussian 16 at Mon Jul 29 22:45:40 2019.
