 Gaussian 16, Revision A.03,
 Gaussian 16:  ES64L-G16RevA.03 25-Dec-2016

 -------------------------------------
 # td=(NStates=1) CAM-B3LYP/6-31G(d,p)
 -------------------------------------

 --
 TD
 --
 Symbolic Z-matrix:
 Charge =  0 Multiplicity = 1

                         Standard orientation:
 ---------------------------------------------------------------------
 Center     Atomic      Atomic             Coordinates (Angstroms)
 Number     Number       Type             X           Y           Z
 ---------------------------------------------------------------------
      1          8           0      -11.729685    0.253931   -1.601464
      2          8           0      -13.074300   -2.304931    1.488807
      3          8           0       10.635693   -1.039237   -2.145900
      4          8           0       14.628712   -0.881623   -0.217693
      5          6           0      -11.080571   -0.154264   -0.325422
      6          6           0      -11.705242   -1.160062   -1.204466
      7          6           0      -11.831203    0.417834    0.931606
      8          6           0      -13.017206   -1.821637   -0.903949
      9          6           0      -13.379894   -0.021921    0.848287
     10          6           0      -13.540365   -1.432585    0.510667
     11          6           0      -10.745570   -1.869278   -2.156223
     12          6           0       -9.601013    0.143527   -0.290156
     13          6           0      -11.137883    0.086447    2.263918
     14          6           0      -11.905945    1.972672    0.796970
     15          6           0       -8.638782   -0.771878    0.141176
     16          6           0       -7.241702   -0.594197    0.187871
     17          6           0       -6.431355   -1.874745    0.463008
     18          6           0       -6.601834    0.456653   -0.042292
     19          6           0       -5.242148    0.763011   -0.047535
     20          6           0       11.882347    0.156778    1.331576
     21          6           0       11.731809   -0.475097   -1.271107
     22          6           0       12.696099   -1.202381    1.443317
     23          6           0       13.439103   -1.701220    0.223593
     24          6           0       12.568615   -1.825565   -0.960835
     25          6           0       11.191602    0.006289    0.009800
     26          6           0       11.029221    0.224331    2.490023
     27          6           0       12.883422    1.406307    1.342102
     28          6           0       12.517269    0.448343   -2.064266
     29          6           0       -4.713643    2.025588   -0.497399
     30          6           0        9.957628    0.421624    0.009225
     31          6           0       -3.342980    2.407730   -0.572680
     32          6           0        8.631967    0.836950    0.063177
     33          6           0       -3.197610    3.898331   -0.859682
     34          6           0       -2.249557    1.565825   -0.324416
     35          6           0        7.426435    0.024203    0.101664
     36          6           0        7.511189   -1.444599    0.209978
     37          6           0        6.255162    0.682693    0.147610
     38          6           0       -0.868740    1.977361   -0.362340
     39          6           0        4.988302    0.031559    0.129563
     40          6           0        0.071232    1.049331   -0.069291
     41          6           0        3.779987    0.743556    0.015199
     42          6           0        1.442968    1.141279   -0.058111
     43          6           0        2.542756    0.204555    0.006012
     44          6           0        2.238766   -1.187701    0.338472
     45          1           0      -12.834853   -2.760654   -1.065546
     46          1           0      -13.655432   -1.484853   -1.741719
     47          1           0      -13.747875    0.406980    1.746200
     48          1           0      -13.679919    0.520461   -0.059513
     49          1           0      -14.609830   -1.709760    0.339618
     50          1           0      -10.238198   -2.916876   -1.633457
     51          1           0      -11.248469   -2.541754   -2.949169
     52          1           0       -9.956326   -1.123552   -2.634397
     53          1           0       -9.253887    0.958968   -0.668324
     54          1           0      -10.157713    0.596306    2.264878
     55          1           0      -11.789166    0.365268    3.065923
     56          1           0      -10.885415   -0.949213    2.441972
     57          1           0      -12.005717    2.389651   -0.320986
     58          1           0      -12.704401    2.432887    1.475025
     59          1           0      -10.873650    2.338075    1.126534
     60          1           0      -12.111665   -2.283200    1.508390
     61          1           0       -9.033591   -1.790572    0.076426
     62          1           0       -5.856975   -2.272747   -0.318502
     63          1           0       -5.722393   -1.538426    1.178882
     64          1           0       -7.051072   -2.711856    0.951603
     65          1           0       -7.334042    1.239753   -0.407488
     66          1           0       -4.333135   -0.051847    0.094610
     67          1           0       13.586848   -1.105805    2.297039
     68          1           0       12.177309   -2.061098    1.847434
     69          1           0       13.928496   -2.763300    0.499475
     70          1           0       13.097546   -2.258101   -1.944403
     71          1           0       11.935638   -2.594824   -0.843699
     72          1           0       11.584418    0.077625    3.440325
     73          1           0       10.385719    0.995043    2.419972
     74          1           0       10.359598   -0.737215    2.470115
     75          1           0       13.420060    1.511905    0.275321
     76          1           0       12.218409    2.382334    1.259729
     77          1           0       13.418116    1.349202    2.204103
     78          1           0       12.748025    0.099630   -2.920138
     79          1           0       12.070591    1.451819   -2.295933
     80          1           0       13.398744    0.577532   -1.561141
     81          1           0       -5.439762    2.786044   -0.687566
     82          1           0       10.015277   -0.308456   -2.237403
     83          1           0       15.211193   -0.659349    0.581856
     84          1           0        8.595548    1.919992   -0.134927
     85          1           0       -2.893387    4.536276    0.135078
     86          1           0       -2.446878    3.992560   -1.621776
     87          1           0       -4.243463    4.470759   -1.301545
     88          1           0       -2.355235    0.398220   -0.161354
     89          1           0        6.610700   -1.838046   -0.041257
     90          1           0        8.250642   -1.896991   -0.390708
     91          1           0        7.748977   -1.790163    1.235391
     92          1           0        6.258477    1.869858    0.269557
     93          1           0       -0.588010    2.791282   -0.630556
     94          1           0        4.979038   -1.136654    0.256380
     95          1           0       -0.358096   -0.087384   -0.128862
     96          1           0        3.703670    1.762990    0.034626
     97          1           0        1.887267    2.290703   -0.180753
     98          1           0        1.077660   -1.606023    0.178566
     99          1           0        2.591870   -1.771431   -0.332985
    100          1           0        2.589542   -1.320967    1.381207
 ---------------------------------------------------------------------

 SCF Done:  E(RCAM-B3LYP) =  -1857.25340705     A.U. after   15 cycles

 Excitation energies and oscillator strengths:

 Excited State   1:      Singlet-A      2.0806 eV  595.92 nm  f=3.2717  <S**2>=0.000
     163 ->166         0.13669
     164 ->165         0.69533
 This state for optimization and/or second-order correction.
 Total Energy, E(TD-HF/TD-DFT) =  -1857.17694773
 Copying the excited state density for this state as the 1-particle RhoCI density.

 The electronic state is 1-A.
 Alpha  occ. eigenvalues --  -19.21635 -19.21566 -19.21092 -19.20286 -10.32247
 Alpha  occ. eigenvalues --  -10.32205 -10.32178 -10.32097 -10.30537 -10.28809
 Alpha  occ. eigenvalues --  -10.28303 -10.28290 -10.28102 -10.28085 -10.27993
 Alpha  occ. eigenvalues --  -10.27909 -10.27889 -10.27798 -10.27768 -10.27725
 Alpha  occ. eigenvalues --  -10.27713 -10.27698 -10.27531 -10.27139 -10.27061
 Alpha  occ. eigenvalues --  -10.26907 -10.26813 -10.26623 -10.26445 -10.26103
 Alpha  occ. eigenvalues --  -10.25810 -10.25703 -10.25674 -10.25548 -10.25319
 Alpha  occ. eigenvalues --  -10.25107 -10.24982 -10.24961 -10.24754 -10.24586
 Alpha  occ. eigenvalues --  -10.24586 -10.24454 -10.24248 -10.21732  -1.12724
 Alpha  occ. eigenvalues --   -1.10490  -1.07425  -1.06319  -0.94580  -0.93121
 Alpha  occ. eigenvalues --   -0.92959  -0.91553  -0.90674  -0.90126  -0.87764
 Alpha  occ. eigenvalues --   -0.87532  -0.87177  -0.85977  -0.84965  -0.83452
 Alpha  occ. eigenvalues --   -0.81956  -0.81498  -0.80477  -0.78757  -0.78642
 Alpha  occ. eigenvalues --   -0.77525  -0.76832  -0.76478  -0.76294  -0.76147
 Alpha  occ. eigenvalues --   -0.75249  -0.74225  -0.73236  -0.70992  -0.70172
 Alpha  occ. eigenvalues --   -0.68418  -0.67648  -0.66310  -0.65952  -0.64145
 Alpha  occ. eigenvalues --   -0.63840  -0.62736  -0.61303  -0.60227  -0.59084
 Alpha  occ. eigenvalues --   -0.58471  -0.57943  -0.57715  -0.57473  -0.56724
 Alpha  occ. eigenvalues --   -0.56065  -0.55607  -0.54824  -0.54154  -0.53967
 Alpha  occ. eigenvalues --   -0.53711  -0.53102  -0.52639  -0.52523  -0.52052
 Alpha  occ. eigenvalues --   -0.51749  -0.51517  -0.50850  -0.50108  -0.50037
 Alpha  occ. eigenvalues --   -0.49103  -0.49004  -0.48929  -0.48699  -0.48595
 Alpha  occ. eigenvalues --   -0.48542  -0.48483  -0.47899  -0.47664  -0.47512
 Alpha  occ. eigenvalues --   -0.47063  -0.46851  -0.46762  -0.46459  -0.45857
 Alpha  occ. eigenvalues --   -0.45216  -0.44997  -0.44525  -0.44344  -0.43846
 Alpha  occ. eigenvalues --   -0.43766  -0.43639  -0.43511  -0.42669  -0.42478
 Alpha  occ. eigenvalues --   -0.42062  -0.41959  -0.41834  -0.41308  -0.40990
 Alpha  occ. eigenvalues --   -0.40728  -0.40149  -0.40064  -0.39881  -0.39480
 Alpha  occ. eigenvalues --   -0.39345  -0.39232  -0.39101  -0.38935  -0.38697
 Alpha  occ. eigenvalues --   -0.38563  -0.38196  -0.37945  -0.37913  -0.37156
 Alpha  occ. eigenvalues --   -0.36897  -0.35876  -0.35259  -0.34325  -0.33531
 Alpha  occ. eigenvalues --   -0.33197  -0.32567  -0.32472  -0.31626  -0.31212
 Alpha  occ. eigenvalues --   -0.30156  -0.28274  -0.24369  -0.19485
 Alpha virt. eigenvalues --   -0.06559  -0.01345   0.03135   0.05903   0.06588
 Alpha virt. eigenvalues --    0.09713   0.10100   0.10501   0.10687   0.12256
 Alpha virt. eigenvalues --    0.12295   0.12814   0.13033   0.13353   0.13729

 Mulliken charges:
               1
     1  O   -0.521596
     2  O   -0.545139
     3  O   -0.574875
     4  O   -0.569546
     5  C    0.192842
     6  C    0.255122
     7  C   -0.010278
     8  C   -0.211002
     9  C   -0.174662
    10  C    0.152487
    11  C   -0.321570
    12  C   -0.101808
    13  C   -0.302498
    14  C   -0.306925
    15  C   -0.108416
    16  C    0.116084
    17  C   -0.380685
    18  C   -0.099264
    19  C   -0.087095
    20  C    0.027424
    21  C    0.208560
    22  C   -0.191148
    23  C    0.153424
    24  C   -0.179614
    25  C   -0.038582
    26  C   -0.287385
    27  C   -0.295483
    28  C   -0.288265
    29  C   -0.118173
    30  C    0.087054
    31  C    0.088319
    32  C   -0.273184
    33  C   -0.358945
    34  C   -0.125958
    35  C    0.131069
    36  C   -0.372507
    37  C   -0.090606
    38  C   -0.001285
    39  C   -0.134695
    40  C   -0.080100
    41  C   -0.092952
    42  C   -0.154571
    43  C    0.131082
    44  C   -0.357742
    45  H    0.114438
    46  H    0.124057
    47  H    0.103073
    48  H    0.121178
    49  H    0.094297
    50  H    0.060663
    51  H    0.102792
    52  H    0.131870
    53  H    0.093393
    54  H    0.114962
    55  H    0.112658
    56  H    0.087297
    57  H    0.118493
    58  H    0.098585
    59  H    0.087711
    60  H    0.303429
    61  H    0.082809
    62  H    0.129123
    63  H    0.124915
    64  H    0.091202
    65  H    0.069356
    66  H    0.075356
    67  H    0.049285
    68  H    0.116783
    69  H    0.069853
    70  H    0.101741
    71  H    0.126593
    72  H    0.102101
    73  H    0.117095
    74  H    0.086381
    75  H    0.112032
    76  H    0.088127
    77  H    0.111807
    78  H    0.125097
    79  H    0.080263
    80  H    0.140162
    81  H    0.084314
    82  H    0.298499
    83  H    0.303473
    84  H    0.110738
    85  H    0.111142
    86  H    0.129051
    87  H    0.087962
    88  H    0.082324
    89  H    0.114422
    90  H    0.136586
    91  H    0.121833
    92  H    0.083263
    93  H    0.049196
    94  H    0.094087
    95  H    0.060877
    96  H    0.079751
    97  H    0.049221
    98  H    0.080260
    99  H    0.135340
   100  H    0.131771
 Sum of Mulliken charges =  -0.00000

 Dipole moment (field-independent basis, Debye):
    X=              3.4775    Y=             -0.0749    Z=              2.0245  Tot=              4.0246
 Quadrupole moment (field-independent basis, Debye-Ang):
   XX=           -286.5850   YY=           -259.2068   ZZ=           -277.7028
   XY=              4.7506   XZ=             36.7296   YZ=             -1.6186

 Normal termination of Gaussian 16 at Fri Aug  2 06:08:42 2019.
