 Gaussian 16, Revision A.03,
 Gaussian 16:  ES64L-G16RevA.03 25-Dec-2016

 -------------------------------------
 # td=(NStates=1) CAM-B3LYP/6-31G(d,p)
 -------------------------------------

 --
 TD
 --
 Symbolic Z-matrix:
 Charge =  0 Multiplicity = 1

                         Standard orientation:
 ---------------------------------------------------------------------
 Center     Atomic      Atomic             Coordinates (Angstroms)
 Number     Number       Type             X           Y           Z
 ---------------------------------------------------------------------
      1          8           0      -11.786009    0.567859   -1.338737
      2          8           0      -12.954075   -2.874358    1.044668
      3          8           0       10.732678   -0.653923   -2.217931
      4          8           0       14.530180   -1.175608   -0.146126
      5          6           0      -11.019987   -0.038392   -0.266019
      6          6           0      -11.671449   -0.898739   -1.318896
      7          6           0      -11.722451    0.126087    1.134357
      8          6           0      -12.979159   -1.604680   -1.055188
      9          6           0      -13.152562   -0.336685    1.147808
     10          6           0      -13.445421   -1.686104    0.335218
     11          6           0      -10.818342   -1.423436   -2.485973
     12          6           0       -9.564631    0.209044   -0.321991
     13          6           0      -10.857337   -0.649385    2.283724
     14          6           0      -11.765520    1.581147    1.439103
     15          6           0       -8.585694   -0.686365    0.027570
     16          6           0       -7.161644   -0.574901   -0.017136
     17          6           0       -6.390141   -1.886767    0.052616
     18          6           0       -6.598935    0.702654   -0.085411
     19          6           0       -5.223879    0.977500   -0.022082
     20          6           0       11.806059   -0.203485    1.451818
     21          6           0       11.720267   -0.428694   -1.207948
     22          6           0       12.614832   -1.508151    1.430040
     23          6           0       13.339691   -1.989678    0.118586
     24          6           0       12.430744   -1.819087   -1.035536
     25          6           0       11.136339   -0.029281    0.109768
     26          6           0       10.914801   -0.162639    2.597860
     27          6           0       12.864234    1.022129    1.697491
     28          6           0       12.677548    0.673663   -1.764410
     29          6           0       -4.762725    2.241552   -0.097078
     30          6           0        9.847833    0.536799    0.059909
     31          6           0       -3.420902    2.612775   -0.207196
     32          6           0        8.673943    1.001907   -0.135640
     33          6           0       -3.147603    4.074724   -0.311694
     34          6           0       -2.308474    1.729403   -0.251342
     35          6           0        7.367893    0.216652   -0.025620
     36          6           0        7.604138   -1.278221   -0.017142
     37          6           0        6.202023    0.896161   -0.149080
     38          6           0       -0.937341    2.022097   -0.267383
     39          6           0        4.945056    0.191129   -0.169050
     40          6           0        0.013858    1.077030   -0.236650
     41          6           0        3.739627    0.932150   -0.175795
     42          6           0        1.385307    1.308753   -0.243847
     43          6           0        2.420308    0.426548   -0.096101
     44          6           0        2.273019   -1.146492   -0.096310
     45          1           0      -13.169923   -2.626600   -1.529174
     46          1           0      -13.884207   -0.932308   -1.541384
     47          1           0      -13.435087   -0.562710    2.231429
     48          1           0      -13.753638    0.360796    0.673221
     49          1           0      -14.660948   -1.708961    0.320785
     50          1           0      -10.588553   -2.479755   -2.252996
     51          1           0      -11.610069   -1.353385   -3.372215
     52          1           0      -10.075758   -0.768693   -2.759723
     53          1           0       -9.214383    1.232864   -0.387173
     54          1           0       -9.785051   -0.118076    2.247972
     55          1           0      -11.427566   -0.745529    3.257327
     56          1           0      -10.875523   -1.786646    1.907804
     57          1           0      -12.322553    2.208774    0.705774
     58          1           0      -12.227481    1.863660    2.578532
     59          1           0      -10.690725    1.884452    1.530595
     60          1           0      -11.901533   -2.790023    1.150700
     61          1           0       -9.185411   -1.600183    0.215424
     62          1           0       -5.888299   -2.025017   -0.916774
     63          1           0       -5.756691   -2.070145    0.837001
     64          1           0       -7.151642   -2.557201    0.168691
     65          1           0       -7.307080    1.539500    0.033264
     66          1           0       -4.535998   -0.064471    0.009175
     67          1           0       13.387480   -1.464493    2.266555
     68          1           0       11.963725   -2.436718    1.759064
     69          1           0       13.612021   -2.958899    0.443256
     70          1           0       13.098173   -2.131211   -2.061926
     71          1           0       11.701397   -2.469511   -0.822345
     72          1           0       11.342304   -0.332063    3.559485
     73          1           0       10.502682    0.698840    2.790926
     74          1           0       10.032040   -0.948243    2.483120
     75          1           0       13.540716    0.969538    0.860318
     76          1           0       12.223476    2.016620    1.654467
     77          1           0       13.431687    0.895669    2.589345
     78          1           0       13.001089    0.227310   -2.642195
     79          1           0       12.158086    1.642792   -2.014268
     80          1           0       13.371004    0.854117   -1.168496
     81          1           0       -5.617936    2.933831   -0.386975
     82          1           0       10.026676    0.128554   -2.084407
     83          1           0       14.994011   -1.344327    0.666951
     84          1           0        8.222766    2.076844   -0.071570
     85          1           0       -2.591131    4.791365    0.570107
     86          1           0       -2.550779    4.107062   -1.141106
     87          1           0       -4.078618    4.656865   -0.471359
     88          1           0       -2.704337    0.788058   -0.240408
     89          1           0        6.841917   -1.918087   -0.477269
     90          1           0        8.699480   -1.659688   -0.384879
     91          1           0        7.643466   -1.695235    1.050746
     92          1           0        6.364632    1.917648   -0.348111
     93          1           0       -0.488549    2.947923    0.048475
     94          1           0        4.765527   -0.941339   -0.232201
     95          1           0       -0.254760    0.027523   -0.247348
     96          1           0        4.055089    2.009207    0.087717
     97          1           0        1.495972    2.269250   -0.508667
     98          1           0        1.251293   -1.525142   -0.368436
     99          1           0        2.863612   -1.626977   -0.821483
    100          1           0        2.301772   -1.571539    0.867578
 ---------------------------------------------------------------------

 SCF Done:  E(RCAM-B3LYP) =  -1857.31629084     A.U. after   15 cycles

 Excitation energies and oscillator strengths:

 Excited State   1:      Singlet-A      2.2434 eV  552.65 nm  f=3.0042  <S**2>=0.000
     163 ->166        -0.14006
     164 ->165         0.69304
 This state for optimization and/or second-order correction.
 Total Energy, E(TD-HF/TD-DFT) =  -1857.23384605
 Copying the excited state density for this state as the 1-particle RhoCI density.

 The electronic state is 1-A.
 Alpha  occ. eigenvalues --  -19.22277 -19.21908 -19.21523 -19.20986 -10.32593
 Alpha  occ. eigenvalues --  -10.32360 -10.32136 -10.31641 -10.31258 -10.28831
 Alpha  occ. eigenvalues --  -10.28605 -10.28489 -10.28391 -10.28375 -10.28216
 Alpha  occ. eigenvalues --  -10.28190 -10.27964 -10.27957 -10.27849 -10.27707
 Alpha  occ. eigenvalues --  -10.27426 -10.27402 -10.27238 -10.27196 -10.26927
 Alpha  occ. eigenvalues --  -10.26919 -10.26881 -10.26573 -10.26520 -10.26395
 Alpha  occ. eigenvalues --  -10.26221 -10.26155 -10.26056 -10.25982 -10.25941
 Alpha  occ. eigenvalues --  -10.25820 -10.25737 -10.25713 -10.25646 -10.25202
 Alpha  occ. eigenvalues --  -10.25045 -10.24907 -10.23872 -10.21771  -1.13729
 Alpha  occ. eigenvalues --   -1.09943  -1.07813  -1.06283  -0.93426  -0.93036
 Alpha  occ. eigenvalues --   -0.92301  -0.91472  -0.90870  -0.90278  -0.88100
 Alpha  occ. eigenvalues --   -0.86754  -0.86601  -0.85868  -0.85061  -0.83531
 Alpha  occ. eigenvalues --   -0.82775  -0.80738  -0.80567  -0.79210  -0.77510
 Alpha  occ. eigenvalues --   -0.77329  -0.77106  -0.76601  -0.75771  -0.75605
 Alpha  occ. eigenvalues --   -0.75129  -0.74662  -0.73806  -0.70476  -0.69700
 Alpha  occ. eigenvalues --   -0.68668  -0.66912  -0.65871  -0.64586  -0.63615
 Alpha  occ. eigenvalues --   -0.63393  -0.62590  -0.60930  -0.60391  -0.59717
 Alpha  occ. eigenvalues --   -0.59144  -0.58648  -0.58028  -0.57803  -0.56345
 Alpha  occ. eigenvalues --   -0.56203  -0.55905  -0.55114  -0.54730  -0.54345
 Alpha  occ. eigenvalues --   -0.53338  -0.53039  -0.52457  -0.51869  -0.51689
 Alpha  occ. eigenvalues --   -0.51208  -0.50829  -0.50503  -0.50046  -0.49797
 Alpha  occ. eigenvalues --   -0.49697  -0.49417  -0.49326  -0.49168  -0.48723
 Alpha  occ. eigenvalues --   -0.48501  -0.48318  -0.47591  -0.46983  -0.46847
 Alpha  occ. eigenvalues --   -0.46567  -0.46292  -0.46242  -0.46109  -0.45111
 Alpha  occ. eigenvalues --   -0.45074  -0.44792  -0.44459  -0.44240  -0.44202
 Alpha  occ. eigenvalues --   -0.43886  -0.43389  -0.43230  -0.42619  -0.42526
 Alpha  occ. eigenvalues --   -0.42246  -0.42207  -0.42008  -0.41570  -0.41163
 Alpha  occ. eigenvalues --   -0.41127  -0.40977  -0.40708  -0.40515  -0.40212
 Alpha  occ. eigenvalues --   -0.39873  -0.39788  -0.39685  -0.39560  -0.38923
 Alpha  occ. eigenvalues --   -0.38746  -0.38202  -0.38074  -0.37826  -0.37264
 Alpha  occ. eigenvalues --   -0.36925  -0.36059  -0.35560  -0.34958  -0.34272
 Alpha  occ. eigenvalues --   -0.32868  -0.32408  -0.32343  -0.32115  -0.31145
 Alpha  occ. eigenvalues --   -0.28650  -0.28190  -0.24872  -0.20318
 Alpha virt. eigenvalues --   -0.06215  -0.01265   0.02825   0.03297   0.06763
 Alpha virt. eigenvalues --    0.07715   0.10097   0.10178   0.10301   0.11489
 Alpha virt. eigenvalues --    0.12086   0.12872   0.12985   0.13246   0.13755

 Mulliken charges:
               1
     1  O   -0.513898
     2  O   -0.564588
     3  O   -0.579275
     4  O   -0.536177
     5  C    0.213754
     6  C    0.222318
     7  C    0.024189
     8  C   -0.192601
     9  C   -0.179166
    10  C    0.132357
    11  C   -0.308746
    12  C   -0.121347
    13  C   -0.288512
    14  C   -0.286819
    15  C   -0.086986
    16  C    0.066204
    17  C   -0.367700
    18  C   -0.119868
    19  C   -0.044822
    20  C    0.031649
    21  C    0.235135
    22  C   -0.216382
    23  C    0.136612
    24  C   -0.163182
    25  C   -0.019147
    26  C   -0.288140
    27  C   -0.315018
    28  C   -0.268918
    29  C   -0.142924
    30  C    0.138607
    31  C    0.076301
    32  C   -0.346113
    33  C   -0.363699
    34  C   -0.087217
    35  C    0.154382
    36  C   -0.391187
    37  C   -0.129229
    38  C   -0.097054
    39  C   -0.095468
    40  C   -0.055620
    41  C   -0.117034
    42  C   -0.105365
    43  C    0.085741
    44  C   -0.387911
    45  H    0.116655
    46  H    0.101011
    47  H    0.102962
    48  H    0.109516
    49  H    0.084183
    50  H    0.109848
    51  H    0.096585
    52  H    0.135192
    53  H    0.087973
    54  H    0.117729
    55  H    0.118788
    56  H    0.035538
    57  H    0.126822
    58  H    0.068692
    59  H    0.087167
    60  H    0.304936
    61  H    0.068693
    62  H    0.129256
    63  H    0.133502
    64  H    0.119129
    65  H    0.088573
    66  H    0.082977
    67  H    0.073859
    68  H    0.083447
    69  H    0.100437
    70  H    0.092689
    71  H    0.114578
    72  H    0.099424
    73  H    0.117079
    74  H    0.081644
    75  H    0.128944
    76  H    0.094265
    77  H    0.104473
    78  H    0.118483
    79  H    0.080428
    80  H    0.122848
    81  H    0.097970
    82  H    0.310288
    83  H    0.300264
    84  H    0.097994
    85  H    0.085553
    86  H    0.136263
    87  H    0.101759
    88  H    0.062908
    89  H    0.114740
    90  H    0.119893
    91  H    0.110982
    92  H    0.091925
    93  H    0.096139
    94  H    0.093011
    95  H    0.068290
    96  H    0.083528
    97  H    0.077045
    98  H    0.105190
    99  H    0.134382
   100  H    0.136415
 Sum of Mulliken charges =  -0.00000

 Dipole moment (field-independent basis, Debye):
    X=              2.7215    Y=             -0.8255    Z=              3.0141  Tot=              4.1440
 Quadrupole moment (field-independent basis, Debye-Ang):
   XX=           -298.6307   YY=           -263.0086   ZZ=           -278.5334
   XY=            -11.8974   XZ=             40.2806   YZ=             -0.7265

 Normal termination of Gaussian 16 at Tue Jul 30 13:07:02 2019.
