 Gaussian 16, Revision A.03,
 Gaussian 16:  ES64L-G16RevA.03 25-Dec-2016

 -------------------------------------
 # td=(NStates=1) CAM-B3LYP/6-31G(d,p)
 -------------------------------------

 --
 TD
 --
 Symbolic Z-matrix:
 Charge =  0 Multiplicity = 1

                         Standard orientation:
 ---------------------------------------------------------------------
 Center     Atomic      Atomic             Coordinates (Angstroms)
 Number     Number       Type             X           Y           Z
 ---------------------------------------------------------------------
      1          8           0      -11.682935    0.166230   -1.596450
      2          8           0      -13.137692   -2.264230    1.523222
      3          8           0       10.689587   -0.936538   -2.147076
      4          8           0       14.570793   -0.822193   -0.023343
      5          6           0      -11.058466   -0.124268   -0.306313
      6          6           0      -11.761505   -1.159040   -1.080115
      7          6           0      -11.824270    0.531448    0.905639
      8          6           0      -13.076423   -1.702052   -0.787075
      9          6           0      -13.303655    0.168524    0.797664
     10          6           0      -13.580185   -1.347279    0.569108
     11          6           0      -10.934816   -2.058511   -2.098069
     12          6           0       -9.569475    0.020512   -0.384801
     13          6           0      -11.226760    0.052584    2.240698
     14          6           0      -11.666033    1.974658    0.778948
     15          6           0       -8.653880   -0.872491    0.184160
     16          6           0       -7.189277   -0.668526    0.157720
     17          6           0       -6.376958   -1.908312    0.685626
     18          6           0       -6.603793    0.504047   -0.208733
     19          6           0       -5.153750    0.756124   -0.300537
     20          6           0       11.858423    0.127249    1.355034
     21          6           0       11.790573   -0.587966   -1.227696
     22          6           0       12.697343   -1.207900    1.519707
     23          6           0       13.461523   -1.814776    0.287105
     24          6           0       12.528801   -1.939726   -0.853460
     25          6           0       11.082420    0.038883    0.051653
     26          6           0       10.976994    0.343870    2.566987
     27          6           0       12.879717    1.312479    1.321213
     28          6           0       12.579365    0.490314   -1.997547
     29          6           0       -4.698525    2.085875   -0.448245
     30          6           0        9.887947    0.608328    0.057736
     31          6           0       -3.426050    2.369412   -0.454509
     32          6           0        8.592608    0.986064   -0.063619
     33          6           0       -3.051274    3.838922   -0.808589
     34          6           0       -2.293823    1.576037   -0.201601
     35          6           0        7.374915    0.054573   -0.017153
     36          6           0        7.742922   -1.497594    0.023632
     37          6           0        6.155943    0.596019   -0.024795
     38          6           0       -0.930816    1.844143   -0.343872
     39          6           0        4.949430   -0.025596   -0.061499
     40          6           0        0.091844    0.877615   -0.166943
     41          6           0        3.817398    0.766258   -0.071000
     42          6           0        1.400294    1.138218   -0.292149
     43          6           0        2.511584    0.276583   -0.001292
     44          6           0        2.357772   -1.242729    0.114445
     45          1           0      -13.139390   -2.803809   -0.830863
     46          1           0      -13.651913   -1.232176   -1.782576
     47          1           0      -13.972420    0.577579    1.794273
     48          1           0      -13.701589    0.803765   -0.070300
     49          1           0      -14.631819   -1.141246    0.704509
     50          1           0      -10.523454   -2.946675   -1.669204
     51          1           0      -11.410331   -2.342428   -3.004613
     52          1           0       -9.895340   -1.532272   -2.334312
     53          1           0       -9.227486    0.883765   -0.906434
     54          1           0      -10.090826    0.443480    2.265991
     55          1           0      -11.575065    0.700426    3.047782
     56          1           0      -11.387452   -1.025508    2.454662
     57          1           0      -11.991115    2.391845   -0.189128
     58          1           0      -12.305231    2.523532    1.468815
     59          1           0      -10.672280    2.382667    1.055174
     60          1           0      -12.230911   -2.212880    1.475047
     61          1           0       -9.150230   -1.738626    0.492078
     62          1           0       -5.761157   -2.543938   -0.045813
     63          1           0       -5.707817   -1.460550    1.338097
     64          1           0       -7.109350   -2.626246    1.133149
     65          1           0       -7.288391    1.312203   -0.383402
     66          1           0       -4.508906   -0.202393   -0.366685
     67          1           0       13.272092   -0.979651    2.566460
     68          1           0       12.151586   -1.903334    2.064618
     69          1           0       13.765321   -2.749854    0.667219
     70          1           0       12.779035   -2.364768   -1.856384
     71          1           0       11.734928   -2.684961   -0.368005
     72          1           0       11.513576    0.247416    3.478566
     73          1           0       10.746488    1.504848    2.498083
     74          1           0       10.188291   -0.394925    2.551776
     75          1           0       13.713853    1.133445    0.614697
     76          1           0       12.182097    2.137470    1.005630
     77          1           0       13.270854    1.719884    2.336296
     78          1           0       12.847802   -0.068178   -2.913121
     79          1           0       11.979106    1.603351   -2.047025
     80          1           0       13.591186    0.865512   -1.552070
     81          1           0       -5.660006    2.864254   -0.562163
     82          1           0        9.999445   -0.294523   -2.175565
     83          1           0       15.230797   -0.764905    0.695941
     84          1           0        8.501909    1.878214   -0.167549
     85          1           0       -2.088019    4.126056   -0.119633
     86          1           0       -2.734280    4.038956   -1.828339
     87          1           0       -3.831306    4.565990   -0.713142
     88          1           0       -2.726899    0.492525    0.061744
     89          1           0        6.653428   -1.978221    0.230576
     90          1           0        8.219123   -2.085259   -1.028199
     91          1           0        8.525608   -1.753063    0.987051
     92          1           0        6.154757    1.761423    0.046052
     93          1           0       -0.676822    2.856921   -0.397336
     94          1           0        4.887509   -1.135167    0.127518
     95          1           0       -0.296172   -0.262700    0.003929
     96          1           0        3.900604    1.843607   -0.183757
     97          1           0        1.462228    2.328874   -0.413651
     98          1           0        1.399465   -1.654698   -0.669473
     99          1           0        3.522841   -1.850061   -0.559655
    100          1           0        2.085531   -1.492980    1.417059
 ---------------------------------------------------------------------

 SCF Done:  E(RCAM-B3LYP) =  -1857.17572483     A.U. after   15 cycles

 Excitation energies and oscillator strengths:

 Excited State   1:      Singlet-A      1.8509 eV  669.85 nm  f=2.9904  <S**2>=0.000
     163 ->166         0.11453
     164 ->165         0.70606
     164 <-165        -0.13263
 This state for optimization and/or second-order correction.
 Total Energy, E(TD-HF/TD-DFT) =  -1857.10770419
 Copying the excited state density for this state as the 1-particle RhoCI density.

 The electronic state is 1-A.
 Alpha  occ. eigenvalues --  -19.22492 -19.21932 -19.21726 -19.19630 -10.33437
 Alpha  occ. eigenvalues --  -10.32782 -10.32677 -10.32346 -10.32213 -10.30643
 Alpha  occ. eigenvalues --  -10.30028 -10.28537 -10.28490 -10.28426 -10.28385
 Alpha  occ. eigenvalues --  -10.28053 -10.28023 -10.27676 -10.27565 -10.27564
 Alpha  occ. eigenvalues --  -10.27531 -10.27353 -10.27319 -10.27210 -10.27114
 Alpha  occ. eigenvalues --  -10.27074 -10.27046 -10.27014 -10.26866 -10.26796
 Alpha  occ. eigenvalues --  -10.26505 -10.26425 -10.26389 -10.26332 -10.26272
 Alpha  occ. eigenvalues --  -10.26210 -10.26173 -10.26143 -10.25979 -10.25829
 Alpha  occ. eigenvalues --  -10.25116 -10.24781 -10.24590 -10.24203  -1.15133
 Alpha  occ. eigenvalues --   -1.13150  -1.07722  -1.07077  -0.92827  -0.92512
 Alpha  occ. eigenvalues --   -0.92154  -0.91809  -0.90528  -0.89877  -0.87770
 Alpha  occ. eigenvalues --   -0.87531  -0.86727  -0.85139  -0.84281  -0.82620
 Alpha  occ. eigenvalues --   -0.81542  -0.80545  -0.79749  -0.77779  -0.76586
 Alpha  occ. eigenvalues --   -0.76405  -0.75910  -0.75750  -0.75445  -0.74754
 Alpha  occ. eigenvalues --   -0.74589  -0.73286  -0.71903  -0.71194  -0.70042
 Alpha  occ. eigenvalues --   -0.69313  -0.67508  -0.66015  -0.64530  -0.63829
 Alpha  occ. eigenvalues --   -0.63234  -0.62178  -0.60265  -0.60090  -0.59698
 Alpha  occ. eigenvalues --   -0.59350  -0.58386  -0.58139  -0.57744  -0.56847
 Alpha  occ. eigenvalues --   -0.56213  -0.55581  -0.54315  -0.54233  -0.53846
 Alpha  occ. eigenvalues --   -0.53223  -0.53027  -0.52458  -0.51655  -0.51263
 Alpha  occ. eigenvalues --   -0.50714  -0.50576  -0.50416  -0.49858  -0.49305
 Alpha  occ. eigenvalues --   -0.49269  -0.48928  -0.48569  -0.48244  -0.47894
 Alpha  occ. eigenvalues --   -0.47762  -0.47202  -0.46966  -0.46853  -0.46467
 Alpha  occ. eigenvalues --   -0.45885  -0.45821  -0.45360  -0.44926  -0.44690
 Alpha  occ. eigenvalues --   -0.44641  -0.44460  -0.44315  -0.43873  -0.43552
 Alpha  occ. eigenvalues --   -0.43250  -0.42851  -0.42666  -0.42448  -0.42290
 Alpha  occ. eigenvalues --   -0.41900  -0.41814  -0.41279  -0.41222  -0.40787
 Alpha  occ. eigenvalues --   -0.40731  -0.40319  -0.39857  -0.39811  -0.39663
 Alpha  occ. eigenvalues --   -0.39290  -0.39040  -0.38817  -0.38312  -0.37832
 Alpha  occ. eigenvalues --   -0.37813  -0.37463  -0.37314  -0.36851  -0.36475
 Alpha  occ. eigenvalues --   -0.36065  -0.36024  -0.35654  -0.35288  -0.33937
 Alpha  occ. eigenvalues --   -0.32710  -0.32450  -0.32207  -0.31777  -0.31201
 Alpha  occ. eigenvalues --   -0.29615  -0.28238  -0.24994  -0.18975
 Alpha virt. eigenvalues --   -0.07599  -0.01005   0.02924   0.05360   0.06770
 Alpha virt. eigenvalues --    0.07093   0.09490   0.10022   0.10181   0.11021
 Alpha virt. eigenvalues --    0.11748   0.11939   0.11986   0.12242   0.12512

 Mulliken charges:
               1
     1  O   -0.502949
     2  O   -0.515880
     3  O   -0.583472
     4  O   -0.564454
     5  C    0.182425
     6  C    0.237035
     7  C    0.045450
     8  C   -0.207921
     9  C   -0.216830
    10  C    0.148236
    11  C   -0.332800
    12  C   -0.101714
    13  C   -0.310599
    14  C   -0.329464
    15  C   -0.083492
    16  C    0.070036
    17  C   -0.371805
    18  C   -0.113838
    19  C   -0.092624
    20  C    0.019301
    21  C    0.259121
    22  C   -0.209527
    23  C    0.159607
    24  C   -0.184532
    25  C   -0.044065
    26  C   -0.297697
    27  C   -0.303174
    28  C   -0.278680
    29  C   -0.130386
    30  C    0.055072
    31  C    0.127323
    32  C   -0.188407
    33  C   -0.377693
    34  C   -0.105343
    35  C    0.090176
    36  C   -0.330300
    37  C   -0.086918
    38  C   -0.092567
    39  C   -0.094786
    40  C   -0.052767
    41  C   -0.092016
    42  C   -0.120654
    43  C    0.095208
    44  C   -0.310007
    45  H    0.117965
    46  H    0.108359
    47  H    0.066231
    48  H    0.116053
    49  H    0.112582
    50  H    0.098144
    51  H    0.119935
    52  H    0.105988
    53  H    0.107632
    54  H    0.095711
    55  H    0.114607
    56  H    0.087040
    57  H    0.122394
    58  H    0.102321
    59  H    0.096649
    60  H    0.298532
    61  H    0.078418
    62  H    0.112896
    63  H    0.136919
    64  H    0.109166
    65  H    0.079061
    66  H    0.108661
    67  H    0.060451
    68  H    0.096186
    69  H    0.109586
    70  H    0.127172
    71  H    0.110120
    72  H    0.100656
    73  H    0.093690
    74  H    0.109607
    75  H    0.128908
    76  H    0.086722
    77  H    0.081675
    78  H    0.115940
    79  H    0.078707
    80  H    0.119446
    81  H    0.097698
    82  H    0.306519
    83  H    0.309850
    84  H    0.069510
    85  H    0.088183
    86  H    0.125907
    87  H    0.108081
    88  H    0.055316
    89  H    0.081967
    90  H    0.113834
    91  H    0.099835
    92  H    0.083282
    93  H    0.086513
    94  H    0.101572
    95  H    0.074702
    96  H    0.087919
    97  H    0.075493
    98  H    0.093179
    99  H    0.067648
   100  H    0.097237
 Sum of Mulliken charges =  -0.00000

 Dipole moment (field-independent basis, Debye):
    X=              1.8560    Y=             -0.2775    Z=              2.4868  Tot=              3.1155
 Quadrupole moment (field-independent basis, Debye-Ang):
   XX=           -269.2579   YY=           -259.1528   ZZ=           -281.3028
   XY=            -13.7995   XZ=             29.0590   YZ=             -1.6972

 Normal termination of Gaussian 16 at Fri Aug  2 03:50:44 2019.
