 Gaussian 16, Revision A.03,
 Gaussian 16:  ES64L-G16RevA.03 25-Dec-2016

 -------------------------------------
 # td=(NStates=1) CAM-B3LYP/6-31G(d,p)
 -------------------------------------

 --
 TD
 --
 Symbolic Z-matrix:
 Charge =  0 Multiplicity = 1

                         Standard orientation:
 ---------------------------------------------------------------------
 Center     Atomic      Atomic             Coordinates (Angstroms)
 Number     Number       Type             X           Y           Z
 ---------------------------------------------------------------------
      1          8           0      -11.759837    0.246937   -1.535439
      2          8           0      -13.363067   -2.409404    1.399638
      3          8           0       10.593458   -0.755146   -2.187615
      4          8           0       14.490518   -1.105794   -0.214324
      5          6           0      -11.124997   -0.176835   -0.336214
      6          6           0      -11.711327   -1.149171   -1.262622
      7          6           0      -11.835812    0.351785    0.929685
      8          6           0      -12.986499   -1.830800   -0.990895
      9          6           0      -13.353649    0.065019    0.711790
     10          6           0      -13.635856   -1.458366    0.342647
     11          6           0      -10.803775   -1.961968   -2.295458
     12          6           0       -9.581925    0.047382   -0.421981
     13          6           0      -11.087050   -0.186610    2.201929
     14          6           0      -11.746017    1.908018    0.995169
     15          6           0       -8.673620   -0.782052    0.047985
     16          6           0       -7.235802   -0.494011    0.167698
     17          6           0       -6.414942   -1.748849    0.457291
     18          6           0       -6.669287    0.752454    0.044507
     19          6           0       -5.253277    0.952726    0.010742
     20          6           0       12.013526   -0.060315    1.347902
     21          6           0       11.683225   -0.542525   -1.270897
     22          6           0       12.713226   -1.434049    1.396457
     23          6           0       13.386870   -1.959261    0.150789
     24          6           0       12.446703   -1.894533   -1.107222
     25          6           0       11.155610    0.007945    0.079721
     26          6           0       11.179331    0.010732    2.567721
     27          6           0       13.104055    1.096441    1.294573
     28          6           0       12.562276    0.580919   -2.028744
     29          6           0       -4.705432    2.165787   -0.256849
     30          6           0        9.962555    0.554478    0.013177
     31          6           0       -3.353248    2.538500   -0.439588
     32          6           0        8.656068    0.989170    0.080603
     33          6           0       -2.891791    3.949904   -0.851000
     34          6           0       -2.336594    1.582183   -0.193010
     35          6           0        7.438335    0.202074    0.096468
     36          6           0        7.648735   -1.289407    0.254235
     37          6           0        6.184267    0.798195   -0.036068
     38          6           0       -0.867953    1.847498   -0.166556
     39          6           0        4.968374    0.171309   -0.005944
     40          6           0        0.087967    0.979529    0.164253
     41          6           0        3.696532    0.849390   -0.097553
     42          6           0        1.438904    1.208825   -0.044746
     43          6           0        2.477818    0.262095    0.048547
     44          6           0        2.280759   -1.156491    0.278204
     45          1           0      -12.850242   -3.075856   -0.891297
     46          1           0      -13.699045   -1.636514   -1.822918
     47          1           0      -14.027684    0.149290    1.608725
     48          1           0      -13.897715    0.611115   -0.036697
     49          1           0      -14.645270   -1.560132    0.085309
     50          1           0      -10.476762   -2.891764   -1.630196
     51          1           0      -11.238221   -2.409326   -3.061148
     52          1           0      -10.076963   -1.273405   -2.584319
     53          1           0       -9.395999    0.971419   -0.694934
     54          1           0      -10.009840    0.060443    2.462973
     55          1           0      -11.675897    0.194523    2.940093
     56          1           0      -10.989851   -1.361111    2.472428
     57          1           0      -11.957686    2.174645   -0.052270
     58          1           0      -12.494885    2.287722    1.764363
     59          1           0      -10.875027    2.209962    1.220469
     60          1           0      -12.242461   -2.252031    1.740674
     61          1           0       -9.044640   -1.628006    0.493911
     62          1           0       -6.105729   -2.234144   -0.653836
     63          1           0       -5.277544   -1.392733    0.944664
     64          1           0       -6.901527   -2.497555    1.219562
     65          1           0       -7.384556    1.573048    0.018065
     66          1           0       -4.587311   -0.093403   -0.108697
     67          1           0       13.402110   -1.360255    2.205150
     68          1           0       12.016757   -2.097402    1.622301
     69          1           0       13.631045   -3.111205    0.239535
     70          1           0       12.957892   -2.067963   -2.071654
     71          1           0       11.642984   -2.626248   -1.029461
     72          1           0       11.750393   -0.284288    3.604037
     73          1           0       10.846615    1.027938    2.848747
     74          1           0       10.167397   -0.384668    2.528397
     75          1           0       13.742407    1.112815    0.307629
     76          1           0       12.615363    1.934562    1.056725
     77          1           0       13.537734    1.265215    2.247745
     78          1           0       12.452693    0.369363   -3.151984
     79          1           0       12.083594    1.439266   -1.768660
     80          1           0       13.650532    0.536062   -1.449480
     81          1           0       -5.371400    2.775800   -0.613289
     82          1           0       10.270614    0.330877   -2.100497
     83          1           0       15.086382   -0.991163    0.521628
     84          1           0        8.671553    1.996320   -0.271786
     85          1           0       -2.347313    4.360260   -0.079400
     86          1           0       -2.332580    3.780137   -1.776275
     87          1           0       -3.670633    4.676460   -0.999362
     88          1           0       -2.627463    0.619803    0.128560
     89          1           0        6.710675   -1.833886   -0.079048
     90          1           0        8.419397   -1.561886   -0.370498
     91          1           0        7.716257   -1.481510    1.224417
     92          1           0        6.109811    1.889368    0.004962
     93          1           0       -0.644034    2.842076   -0.712745
     94          1           0        5.001145   -0.901322    0.107715
     95          1           0       -0.240617    0.058606    0.712985
     96          1           0        3.869023    1.923532   -0.190499
     97          1           0        1.585220    2.224849   -0.159986
     98          1           0        1.200252   -1.427531    0.197776
     99          1           0        2.595005   -1.914687   -0.357307
    100          1           0        2.769767   -1.340914    1.230164
 ---------------------------------------------------------------------

 SCF Done:  E(RCAM-B3LYP) =  -1857.28430278     A.U. after   15 cycles

 Excitation energies and oscillator strengths:

 Excited State   1:      Singlet-A      2.1727 eV  570.66 nm  f=3.2753  <S**2>=0.000
     163 ->166        -0.15140
     164 ->165         0.68832
 This state for optimization and/or second-order correction.
 Total Energy, E(TD-HF/TD-DFT) =  -1857.20445927
 Copying the excited state density for this state as the 1-particle RhoCI density.

 The electronic state is 1-A.
 Alpha  occ. eigenvalues --  -19.22089 -19.21941 -19.21698 -19.21457 -10.32355
 Alpha  occ. eigenvalues --  -10.31836 -10.31770 -10.31504 -10.29573 -10.29546
 Alpha  occ. eigenvalues --  -10.29475 -10.28574 -10.27904 -10.27779 -10.27718
 Alpha  occ. eigenvalues --  -10.27692 -10.27574 -10.27420 -10.27356 -10.27284
 Alpha  occ. eigenvalues --  -10.27142 -10.26917 -10.26545 -10.26168 -10.26139
 Alpha  occ. eigenvalues --  -10.26125 -10.25970 -10.25954 -10.25921 -10.25745
 Alpha  occ. eigenvalues --  -10.25737 -10.25671 -10.25645 -10.25368 -10.25316
 Alpha  occ. eigenvalues --  -10.25294 -10.25132 -10.25036 -10.24622 -10.24519
 Alpha  occ. eigenvalues --  -10.24410 -10.24275 -10.24191 -10.23561  -1.16141
 Alpha  occ. eigenvalues --   -1.09946  -1.07098  -1.04969  -0.93065  -0.92851
 Alpha  occ. eigenvalues --   -0.92077  -0.90950  -0.90618  -0.89923  -0.87668
 Alpha  occ. eigenvalues --   -0.86062  -0.85732  -0.85103  -0.84638  -0.82973
 Alpha  occ. eigenvalues --   -0.82006  -0.80579  -0.80105  -0.78949  -0.77562
 Alpha  occ. eigenvalues --   -0.77438  -0.77198  -0.76512  -0.76197  -0.76014
 Alpha  occ. eigenvalues --   -0.75832  -0.74024  -0.73053  -0.70419  -0.69883
 Alpha  occ. eigenvalues --   -0.68705  -0.67048  -0.65458  -0.65229  -0.64668
 Alpha  occ. eigenvalues --   -0.63040  -0.61953  -0.61517  -0.60595  -0.59202
 Alpha  occ. eigenvalues --   -0.58821  -0.58407  -0.57990  -0.56335  -0.56259
 Alpha  occ. eigenvalues --   -0.55420  -0.55281  -0.54791  -0.54505  -0.54294
 Alpha  occ. eigenvalues --   -0.53528  -0.53149  -0.52894  -0.52829  -0.51992
 Alpha  occ. eigenvalues --   -0.51293  -0.51087  -0.50828  -0.50379  -0.50247
 Alpha  occ. eigenvalues --   -0.49834  -0.49814  -0.49120  -0.48678  -0.48109
 Alpha  occ. eigenvalues --   -0.47982  -0.47719  -0.47605  -0.47290  -0.47123
 Alpha  occ. eigenvalues --   -0.46691  -0.46532  -0.45755  -0.45591  -0.45458
 Alpha  occ. eigenvalues --   -0.45322  -0.44973  -0.44784  -0.44621  -0.44489
 Alpha  occ. eigenvalues --   -0.43781  -0.43713  -0.43400  -0.43120  -0.42657
 Alpha  occ. eigenvalues --   -0.42430  -0.42240  -0.42121  -0.41986  -0.41286
 Alpha  occ. eigenvalues --   -0.41128  -0.40997  -0.40306  -0.39998  -0.39874
 Alpha  occ. eigenvalues --   -0.39863  -0.39547  -0.39363  -0.39245  -0.38845
 Alpha  occ. eigenvalues --   -0.38293  -0.37903  -0.37311  -0.37108  -0.36942
 Alpha  occ. eigenvalues --   -0.36716  -0.36073  -0.35408  -0.34216  -0.33701
 Alpha  occ. eigenvalues --   -0.32866  -0.31747  -0.31598  -0.31021  -0.30800
 Alpha  occ. eigenvalues --   -0.29876  -0.28589  -0.23869  -0.19397
 Alpha virt. eigenvalues --   -0.05896  -0.01431   0.03385   0.06262   0.06789
 Alpha virt. eigenvalues --    0.07501   0.09997   0.10918   0.11225   0.12196
 Alpha virt. eigenvalues --    0.12755   0.12835   0.13419   0.13935   0.14073

 Mulliken charges:
               1
     1  O   -0.506642
     2  O   -0.562960
     3  O   -0.556750
     4  O   -0.538804
     5  C    0.166870
     6  C    0.249558
     7  C    0.018490
     8  C   -0.211428
     9  C   -0.209339
    10  C    0.156499
    11  C   -0.305927
    12  C   -0.086753
    13  C   -0.327255
    14  C   -0.304926
    15  C   -0.050415
    16  C    0.075333
    17  C   -0.349830
    18  C   -0.100914
    19  C   -0.075698
    20  C    0.046588
    21  C    0.220720
    22  C   -0.169682
    23  C    0.139506
    24  C   -0.192639
    25  C   -0.045412
    26  C   -0.328656
    27  C   -0.318658
    28  C   -0.322293
    29  C   -0.109752
    30  C    0.038730
    31  C    0.063441
    32  C   -0.228576
    33  C   -0.374159
    34  C   -0.117662
    35  C    0.082842
    36  C   -0.363737
    37  C   -0.095201
    38  C   -0.097823
    39  C   -0.101138
    40  C   -0.082352
    41  C   -0.119070
    42  C   -0.119725
    43  C    0.131982
    44  C   -0.380062
    45  H    0.089303
    46  H    0.107745
    47  H    0.102436
    48  H    0.125980
    49  H    0.097758
    50  H    0.082524
    51  H    0.121334
    52  H    0.123247
    53  H    0.084291
    54  H    0.127706
    55  H    0.130997
    56  H    0.057350
    57  H    0.129192
    58  H    0.102684
    59  H    0.108700
    60  H    0.292542
    61  H    0.073623
    62  H    0.106386
    63  H    0.081934
    64  H    0.110288
    65  H    0.086884
    66  H    0.087564
    67  H    0.088430
    68  H    0.109724
    69  H    0.074856
    70  H    0.119992
    71  H    0.110100
    72  H    0.076733
    73  H    0.105732
    74  H    0.121646
    75  H    0.104926
    76  H    0.116322
    77  H    0.102150
    78  H    0.116807
    79  H    0.094581
    80  H    0.123597
    81  H    0.077431
    82  H    0.296665
    83  H    0.304971
    84  H    0.106269
    85  H    0.140606
    86  H    0.132714
    87  H    0.107596
    88  H    0.071724
    89  H    0.096016
    90  H    0.146919
    91  H    0.135669
    92  H    0.075152
    93  H    0.074704
    94  H    0.071632
    95  H    0.087126
    96  H    0.082160
    97  H    0.087874
    98  H    0.106886
    99  H    0.135625
   100  H    0.129878
 Sum of Mulliken charges =  -0.00000

 Dipole moment (field-independent basis, Debye):
    X=              2.0475    Y=              0.8513    Z=              3.0337  Tot=              3.7577
 Quadrupole moment (field-independent basis, Debye-Ang):
   XX=           -283.6807   YY=           -260.1242   ZZ=           -276.2696
   XY=            -10.3959   XZ=             32.8407   YZ=             -2.5335

 Normal termination of Gaussian 16 at Wed Jul 31 19:51:55 2019.
