 Gaussian 16, Revision A.03,
 Gaussian 16:  ES64L-G16RevA.03 25-Dec-2016

 -------------------------------------
 # td=(NStates=1) CAM-B3LYP/6-31G(d,p)
 -------------------------------------

 --
 TD
 --
 Symbolic Z-matrix:
 Charge =  0 Multiplicity = 1

                         Standard orientation:
 ---------------------------------------------------------------------
 Center     Atomic      Atomic             Coordinates (Angstroms)
 Number     Number       Type             X           Y           Z
 ---------------------------------------------------------------------
      1          8           0      -11.823036    0.244967   -1.583420
      2          8           0      -12.751392   -2.477697    1.487269
      3          8           0       10.686028   -1.224218   -2.065946
      4          8           0       14.506285   -1.027487   -0.105470
      5          6           0      -11.128688   -0.138237   -0.332499
      6          6           0      -11.786594   -1.176990   -1.159238
      7          6           0      -11.783415    0.369720    0.934742
      8          6           0      -13.063061   -1.851915   -0.843532
      9          6           0      -13.265044   -0.109622    1.020681
     10          6           0      -13.313307   -1.507283    0.646156
     11          6           0      -10.958692   -1.966091   -2.222474
     12          6           0       -9.605267    0.169633   -0.366752
     13          6           0      -10.994570   -0.051884    2.234016
     14          6           0      -11.729525    1.842422    0.849220
     15          6           0       -8.712517   -0.736063    0.012023
     16          6           0       -7.278788   -0.586267   -0.048171
     17          6           0       -6.459068   -1.755593    0.233172
     18          6           0       -6.724724    0.671203   -0.139450
     19          6           0       -5.299512    0.932876   -0.087554
     20          6           0       11.880674    0.135615    1.201636
     21          6           0       11.745151   -0.758105   -1.214371
     22          6           0       12.645190   -1.041126    1.578695
     23          6           0       13.438582   -1.749859    0.464022
     24          6           0       12.441345   -1.997825   -0.731917
     25          6           0       11.068499   -0.092167   -0.048373
     26          6           0       11.019174    0.508416    2.416278
     27          6           0       12.852144    1.375013    1.046737
     28          6           0       12.533392    0.194009   -2.061623
     29          6           0       -4.694766    2.209878   -0.418828
     30          6           0        9.840452    0.480127   -0.216438
     31          6           0       -3.274270    2.581092   -0.428297
     32          6           0        8.589318    0.826928   -0.329018
     33          6           0       -2.986213    3.988369   -0.716473
     34          6           0       -2.329152    1.554981   -0.305631
     35          6           0        7.466782    0.115881   -0.069534
     36          6           0        7.648402   -1.288885    0.470546
     37          6           0        6.250917    0.710352   -0.130876
     38          6           0       -0.930815    1.891671   -0.214570
     39          6           0        4.969624    0.105403    0.114554
     40          6           0        0.017014    0.861924   -0.112658
     41          6           0        3.772927    0.832638   -0.174877
     42          6           0        1.402606    1.233868   -0.096399
     43          6           0        2.513256    0.345846    0.113181
     44          6           0        2.194873   -1.063690    0.569104
     45          1           0      -13.193061   -2.945646   -0.850791
     46          1           0      -13.824685   -1.305429   -1.396392
     47          1           0      -13.468349    0.246056    2.200133
     48          1           0      -14.063130    0.375763    0.451230
     49          1           0      -14.465902   -1.693461    0.722935
     50          1           0      -10.770058   -3.101088   -2.049559
     51          1           0      -11.324730   -1.908712   -3.417058
     52          1           0       -9.931978   -1.584074   -2.523137
     53          1           0       -9.296521    1.102868   -0.931017
     54          1           0       -9.864738    0.126287    2.199147
     55          1           0      -11.352392    0.472971    2.985870
     56          1           0      -10.893489   -1.158144    2.521001
     57          1           0      -12.106051    2.325677   -0.022343
     58          1           0      -12.416548    2.185628    1.487995
     59          1           0      -10.730719    2.385636    1.021012
     60          1           0      -11.767563   -2.399230    1.179056
     61          1           0       -9.006400   -1.719335    0.352145
     62          1           0       -5.695874   -2.039955   -0.696618
     63          1           0       -5.760316   -1.455022    0.933751
     64          1           0       -6.913553   -2.744896    0.627492
     65          1           0       -7.343769    1.524734   -0.341630
     66          1           0       -4.648950    0.164014   -0.054483
     67          1           0       13.176476   -0.811806    2.516866
     68          1           0       12.036125   -1.893813    1.965744
     69          1           0       13.613608   -2.771628    0.745800
     70          1           0       13.022237   -2.235982   -1.560891
     71          1           0       11.739774   -2.676956   -0.392955
     72          1           0       11.702409    0.440731    3.295477
     73          1           0       10.516878    1.506948    2.449073
     74          1           0       10.200684   -0.360588    2.546786
     75          1           0       13.570606    1.355825    0.237868
     76          1           0       12.109594    2.188439    0.813425
     77          1           0       13.485732    1.677738    2.034869
     78          1           0       13.095544   -0.422193   -2.911393
     79          1           0       11.878071    0.993562   -2.398407
     80          1           0       13.250527    0.773236   -1.550031
     81          1           0       -5.375217    3.088120   -0.769667
     82          1           0       10.003070   -0.581985   -2.208533
     83          1           0       15.346033   -1.166544    0.479203
     84          1           0        8.364602    1.823025   -0.519555
     85          1           0       -2.303660    4.375086    0.052510
     86          1           0       -2.457140    4.087238   -1.601588
     87          1           0       -3.890136    4.555680   -1.234382
     88          1           0       -2.610331    0.618073    0.033204
     89          1           0        6.862479   -2.179229   -0.098350
     90          1           0        8.876962   -1.626351    0.296149
     91          1           0        7.498740   -1.472587    1.695292
     92          1           0        6.116503    1.707215   -0.538231
     93          1           0       -0.459191    2.876268   -0.425511
     94          1           0        4.912192   -0.886877    0.764412
     95          1           0       -0.203410   -0.161103    0.157967
     96          1           0        3.808928    1.853896   -0.410492
     97          1           0        1.509783    2.228752   -0.127381
     98          1           0        1.229082   -1.270377    0.520290
     99          1           0        2.627060   -1.822810   -0.284924
    100          1           0        2.807066   -1.185743    1.557898
 ---------------------------------------------------------------------

 SCF Done:  E(RCAM-B3LYP) =  -1857.30337983     A.U. after   15 cycles

 Excitation energies and oscillator strengths:

 Excited State   1:      Singlet-A      2.0475 eV  605.55 nm  f=3.0740  <S**2>=0.000
     163 ->166         0.14434
     164 ->165         0.69318
 This state for optimization and/or second-order correction.
 Total Energy, E(TD-HF/TD-DFT) =  -1857.22813641
 Copying the excited state density for this state as the 1-particle RhoCI density.

 The electronic state is 1-A.
 Alpha  occ. eigenvalues --  -19.22838 -19.22463 -19.22233 -19.18582 -10.32948
 Alpha  occ. eigenvalues --  -10.32392 -10.30944 -10.30439 -10.30383 -10.29258
 Alpha  occ. eigenvalues --  -10.28144 -10.27963 -10.27686 -10.27589 -10.27474
 Alpha  occ. eigenvalues --  -10.27472 -10.27459 -10.27260 -10.27180 -10.27165
 Alpha  occ. eigenvalues --  -10.27108 -10.26913 -10.26885 -10.26735 -10.26720
 Alpha  occ. eigenvalues --  -10.26717 -10.26676 -10.26600 -10.26333 -10.26323
 Alpha  occ. eigenvalues --  -10.26308 -10.26259 -10.26224 -10.26194 -10.25931
 Alpha  occ. eigenvalues --  -10.25823 -10.25778 -10.25701 -10.25615 -10.25196
 Alpha  occ. eigenvalues --  -10.24771 -10.23760 -10.23448 -10.23099  -1.12795
 Alpha  occ. eigenvalues --   -1.10106  -1.09672  -1.08244  -0.93680  -0.92531
 Alpha  occ. eigenvalues --   -0.92442  -0.91827  -0.91430  -0.90609  -0.87495
 Alpha  occ. eigenvalues --   -0.87020  -0.86256  -0.85260  -0.84666  -0.82776
 Alpha  occ. eigenvalues --   -0.82045  -0.80499  -0.80018  -0.78713  -0.77082
 Alpha  occ. eigenvalues --   -0.76874  -0.76297  -0.75917  -0.75785  -0.75116
 Alpha  occ. eigenvalues --   -0.74709  -0.74512  -0.72465  -0.70729  -0.69889
 Alpha  occ. eigenvalues --   -0.68448  -0.66949  -0.65140  -0.65000  -0.64538
 Alpha  occ. eigenvalues --   -0.63916  -0.62632  -0.60983  -0.60198  -0.59779
 Alpha  occ. eigenvalues --   -0.59156  -0.58893  -0.58377  -0.57981  -0.57451
 Alpha  occ. eigenvalues --   -0.56046  -0.55740  -0.55548  -0.54830  -0.54356
 Alpha  occ. eigenvalues --   -0.54196  -0.53810  -0.52704  -0.52473  -0.51895
 Alpha  occ. eigenvalues --   -0.51495  -0.51213  -0.50865  -0.50684  -0.49792
 Alpha  occ. eigenvalues --   -0.48998  -0.48777  -0.48561  -0.48440  -0.48282
 Alpha  occ. eigenvalues --   -0.47676  -0.47137  -0.47023  -0.46733  -0.46199
 Alpha  occ. eigenvalues --   -0.46066  -0.45911  -0.45420  -0.45349  -0.45092
 Alpha  occ. eigenvalues --   -0.44752  -0.44187  -0.44084  -0.43747  -0.43508
 Alpha  occ. eigenvalues --   -0.43363  -0.43085  -0.42868  -0.42676  -0.42512
 Alpha  occ. eigenvalues --   -0.42470  -0.41993  -0.41851  -0.41347  -0.41093
 Alpha  occ. eigenvalues --   -0.40672  -0.40612  -0.40479  -0.40236  -0.40066
 Alpha  occ. eigenvalues --   -0.39601  -0.39506  -0.39330  -0.38958  -0.38813
 Alpha  occ. eigenvalues --   -0.38659  -0.38009  -0.37506  -0.37118  -0.36616
 Alpha  occ. eigenvalues --   -0.36061  -0.35569  -0.35446  -0.34659  -0.33201
 Alpha  occ. eigenvalues --   -0.32850  -0.32305  -0.31718  -0.31589  -0.31152
 Alpha  occ. eigenvalues --   -0.28939  -0.27918  -0.23969  -0.19365
 Alpha virt. eigenvalues --   -0.06425  -0.01540   0.03143   0.05476   0.06453
 Alpha virt. eigenvalues --    0.08987   0.09845   0.09980   0.11306   0.11699
 Alpha virt. eigenvalues --    0.12257   0.12460   0.12561   0.12929   0.13248

 Mulliken charges:
               1
     1  O   -0.518527
     2  O   -0.528175
     3  O   -0.580288
     4  O   -0.544478
     5  C    0.199542
     6  C    0.236035
     7  C    0.008827
     8  C   -0.203811
     9  C   -0.153411
    10  C    0.110931
    11  C   -0.334944
    12  C   -0.110323
    13  C   -0.315735
    14  C   -0.313155
    15  C   -0.063808
    16  C    0.106411
    17  C   -0.393147
    18  C   -0.104463
    19  C   -0.082443
    20  C    0.022505
    21  C    0.250539
    22  C   -0.170195
    23  C    0.121667
    24  C   -0.163240
    25  C   -0.043820
    26  C   -0.290040
    27  C   -0.292170
    28  C   -0.270769
    29  C   -0.137855
    30  C    0.088421
    31  C    0.105010
    32  C   -0.285746
    33  C   -0.392832
    34  C   -0.106634
    35  C    0.202041
    36  C   -0.355228
    37  C   -0.133392
    38  C   -0.110455
    39  C   -0.107257
    40  C   -0.068734
    41  C   -0.102306
    42  C   -0.129932
    43  C    0.094660
    44  C   -0.337855
    45  H    0.137140
    46  H    0.132254
    47  H    0.081002
    48  H    0.111897
    49  H    0.070159
    50  H    0.088492
    51  H    0.090169
    52  H    0.117473
    53  H    0.115643
    54  H    0.109335
    55  H    0.116484
    56  H    0.092814
    57  H    0.125055
    58  H    0.102196
    59  H    0.094244
    60  H    0.298436
    61  H    0.073709
    62  H    0.097965
    63  H    0.142549
    64  H    0.107606
    65  H    0.082892
    66  H    0.077938
    67  H    0.084897
    68  H    0.085744
    69  H    0.090351
    70  H    0.112844
    71  H    0.114600
    72  H    0.091822
    73  H    0.106702
    74  H    0.083442
    75  H    0.128807
    76  H    0.095197
    77  H    0.073259
    78  H    0.095255
    79  H    0.090542
    80  H    0.113211
    81  H    0.072109
    82  H    0.298500
    83  H    0.312402
    84  H    0.102265
    85  H    0.134438
    86  H    0.142327
    87  H    0.107050
    88  H    0.091523
    89  H    0.078793
    90  H    0.099034
    91  H    0.096602
    92  H    0.079085
    93  H    0.091505
    94  H    0.091157
    95  H    0.081704
    96  H    0.088031
    97  H    0.070733
    98  H    0.113992
    99  H    0.095305
   100  H    0.119896
 Sum of Mulliken charges =  -0.00000

 Dipole moment (field-independent basis, Debye):
    X=              2.6519    Y=              0.8244    Z=              2.2733  Tot=              3.5888
 Quadrupole moment (field-independent basis, Debye-Ang):
   XX=           -266.3287   YY=           -259.6445   ZZ=           -280.8543
   XY=             -4.3698   XZ=             33.2790   YZ=             -5.4152

 Normal termination of Gaussian 16 at Fri Aug  2 01:47:49 2019.
