 Gaussian 16, Revision A.03,
 Gaussian 16:  ES64L-G16RevA.03 25-Dec-2016

 -------------------------------------
 # td=(NStates=1) CAM-B3LYP/6-31G(d,p)
 -------------------------------------

 --
 TD
 --
 Symbolic Z-matrix:
 Charge =  0 Multiplicity = 1

                         Standard orientation:
 ---------------------------------------------------------------------
 Center     Atomic      Atomic             Coordinates (Angstroms)
 Number     Number       Type             X           Y           Z
 ---------------------------------------------------------------------
      1          8           0      -11.847126    0.519272   -1.310147
      2          8           0      -13.061751   -2.648566    1.086599
      3          8           0       10.657310   -0.801153   -2.297028
      4          8           0       14.704034   -0.887533   -0.079154
      5          6           0      -11.100517   -0.063292   -0.142884
      6          6           0      -11.664762   -0.824629   -1.261235
      7          6           0      -11.769332    0.141461    1.147434
      8          6           0      -13.010012   -1.696344   -1.160542
      9          6           0      -13.346398   -0.278255    0.862387
     10          6           0      -13.617879   -1.635351    0.216731
     11          6           0      -10.865211   -1.471985   -2.492556
     12          6           0       -9.655301    0.232280   -0.236713
     13          6           0      -11.061325   -0.642509    2.286266
     14          6           0      -11.743967    1.659507    1.530252
     15          6           0       -8.682494   -0.563886    0.061328
     16          6           0       -7.295800   -0.404124    0.063628
     17          6           0       -6.413917   -1.687215    0.248253
     18          6           0       -6.662694    0.772556   -0.036545
     19          6           0       -5.236316    0.994389   -0.108618
     20          6           0       11.921598   -0.048471    1.455545
     21          6           0       11.590264   -0.443047   -1.298175
     22          6           0       12.784535   -1.428833    1.394894
     23          6           0       13.542757   -1.680158    0.073818
     24          6           0       12.601290   -1.610810   -1.125896
     25          6           0       11.019136   -0.005085    0.149681
     26          6           0       11.051551   -0.116375    2.632984
     27          6           0       12.775872    1.164356    1.474838
     28          6           0       12.482068    0.707281   -1.854555
     29          6           0       -4.672646    2.268507   -0.316109
     30          6           0        9.804387    0.566027    0.104386
     31          6           0       -3.296347    2.590763   -0.355958
     32          6           0        8.561026    0.912341   -0.082368
     33          6           0       -2.940017    4.032580   -0.406260
     34          6           0       -2.286915    1.561589   -0.200409
     35          6           0        7.473588   -0.003820    0.002851
     36          6           0        7.684073   -1.484986    0.185754
     37          6           0        6.225131    0.593422   -0.107067
     38          6           0       -0.992276    1.884626   -0.258719
     39          6           0        4.925886    0.047322   -0.095530
     40          6           0        0.071515    0.930110   -0.085674
     41          6           0        3.784854    0.661383   -0.233821
     42          6           0        1.443997    1.106605   -0.275228
     43          6           0        2.454835    0.113344   -0.099630
     44          6           0        2.265260   -1.256984    0.219527
     45          1           0      -12.867037   -2.634644   -1.515719
     46          1           0      -13.718273   -1.136661   -1.940786
     47          1           0      -13.890719   -0.441848    1.989971
     48          1           0      -13.776336    0.706432    0.406450
     49          1           0      -14.712735   -2.000927   -0.064475
     50          1           0      -10.504933   -2.435691   -2.268058
     51          1           0      -11.334530   -1.170734   -3.463534
     52          1           0       -9.750117   -1.007523   -2.518667
     53          1           0       -9.569063    1.341703   -0.586940
     54          1           0      -10.007824   -0.209137    2.188017
     55          1           0      -11.663486   -0.387759    3.188836
     56          1           0      -11.253544   -1.591475    2.128472
     57          1           0      -12.017157    2.165638    0.782793
     58          1           0      -12.503441    1.691268    2.195794
     59          1           0      -10.717720    2.013296    1.713799
     60          1           0      -11.933802   -2.705311    0.870609
     61          1           0       -9.023907   -1.619330    0.240865
     62          1           0       -5.616561   -1.677628   -0.547343
     63          1           0       -5.886978   -1.720474    1.318579
     64          1           0       -6.888078   -2.555504    0.109730
     65          1           0       -7.268804    1.660999   -0.211133
     66          1           0       -4.465315    0.134753   -0.118696
     67          1           0       13.685210   -1.315359    2.092862
     68          1           0       12.156125   -2.319822    1.634202
     69          1           0       14.031002   -2.578762    0.071440
     70          1           0       13.262837   -1.900182   -2.021421
     71          1           0       11.917935   -2.418396   -0.889242
     72          1           0       11.555957   -0.109173    3.528095
     73          1           0       10.304489    0.799498    2.713178
     74          1           0       10.387474   -1.031231    2.557866
     75          1           0       13.487214    1.141619    0.683043
     76          1           0       11.964927    1.967480    1.437207
     77          1           0       13.328563    1.067890    2.428074
     78          1           0       12.810591    0.581865   -2.922948
     79          1           0       12.149691    1.696934   -1.763072
     80          1           0       13.478874    0.632896   -1.151751
     81          1           0       -5.308110    3.118855   -0.355263
     82          1           0        9.750407   -0.199871   -2.063119
     83          1           0       15.321472   -0.916956    0.653034
     84          1           0        8.168385    1.856616   -0.052776
     85          1           0       -2.567436    4.562393    0.553926
     86          1           0       -2.407388    4.397198   -1.392836
     87          1           0       -4.038661    4.374668   -0.511453
     88          1           0       -2.426543    0.472057   -0.172829
     89          1           0        6.893009   -2.296649    0.284275
     90          1           0        8.395845   -1.793429   -0.745257
     91          1           0        8.272173   -1.700651    1.139757
     92          1           0        6.322576    1.737117   -0.290427
     93          1           0       -0.676805    2.900405   -0.157040
     94          1           0        4.842860   -0.972179   -0.179998
     95          1           0       -0.411585   -0.137001    0.335381
     96          1           0        3.889943    1.827289   -0.252852
     97          1           0        1.831443    2.173066   -0.476761
     98          1           0        1.176139   -1.517949    0.539087
     99          1           0        2.622156   -1.860366   -0.666388
    100          1           0        2.682868   -1.681186    1.056894
 ---------------------------------------------------------------------

 SCF Done:  E(RCAM-B3LYP) =  -1857.28687643     A.U. after   15 cycles

 Excitation energies and oscillator strengths:

 Excited State   1:      Singlet-A      1.9501 eV  635.78 nm  f=2.8932  <S**2>=0.000
     163 ->166         0.11194
     164 ->165         0.70585
     164 <-165        -0.12548
 This state for optimization and/or second-order correction.
 Total Energy, E(TD-HF/TD-DFT) =  -1857.21521147
 Copying the excited state density for this state as the 1-particle RhoCI density.

 The electronic state is 1-A.
 Alpha  occ. eigenvalues --  -19.22673 -19.22231 -19.21867 -19.21147 -10.32486
 Alpha  occ. eigenvalues --  -10.32302 -10.31670 -10.31576 -10.30308 -10.28691
 Alpha  occ. eigenvalues --  -10.28639 -10.28481 -10.28476 -10.28332 -10.28121
 Alpha  occ. eigenvalues --  -10.27910 -10.27814 -10.27745 -10.27678 -10.27672
 Alpha  occ. eigenvalues --  -10.27601 -10.27534 -10.27224 -10.27144 -10.27118
 Alpha  occ. eigenvalues --  -10.26984 -10.26713 -10.26691 -10.26506 -10.26484
 Alpha  occ. eigenvalues --  -10.26450 -10.26328 -10.26322 -10.26242 -10.26075
 Alpha  occ. eigenvalues --  -10.26013 -10.25405 -10.25283 -10.25110 -10.24974
 Alpha  occ. eigenvalues --  -10.24621 -10.24197 -10.23375 -10.22509  -1.16098
 Alpha  occ. eigenvalues --   -1.10251  -1.07582  -1.06742  -0.93445  -0.92882
 Alpha  occ. eigenvalues --   -0.92693  -0.91936  -0.91380  -0.90442  -0.87820
 Alpha  occ. eigenvalues --   -0.86323  -0.86120  -0.85393  -0.84821  -0.83315
 Alpha  occ. eigenvalues --   -0.81719  -0.80370  -0.79941  -0.79532  -0.78161
 Alpha  occ. eigenvalues --   -0.77313  -0.76787  -0.76570  -0.76278  -0.75563
 Alpha  occ. eigenvalues --   -0.74724  -0.74523  -0.73159  -0.70498  -0.69661
 Alpha  occ. eigenvalues --   -0.68321  -0.66812  -0.65161  -0.64435  -0.63994
 Alpha  occ. eigenvalues --   -0.63103  -0.61494  -0.61318  -0.60997  -0.59855
 Alpha  occ. eigenvalues --   -0.59061  -0.58656  -0.57958  -0.57800  -0.56584
 Alpha  occ. eigenvalues --   -0.56388  -0.56240  -0.55625  -0.54964  -0.54377
 Alpha  occ. eigenvalues --   -0.52828  -0.52690  -0.52430  -0.52175  -0.51641
 Alpha  occ. eigenvalues --   -0.51448  -0.51161  -0.51061  -0.50244  -0.49764
 Alpha  occ. eigenvalues --   -0.49496  -0.49173  -0.48840  -0.48657  -0.48510
 Alpha  occ. eigenvalues --   -0.48402  -0.48079  -0.47720  -0.47595  -0.47522
 Alpha  occ. eigenvalues --   -0.47164  -0.46859  -0.46207  -0.45665  -0.45411
 Alpha  occ. eigenvalues --   -0.45007  -0.44646  -0.44343  -0.44008  -0.43746
 Alpha  occ. eigenvalues --   -0.43680  -0.43122  -0.42901  -0.42632  -0.42072
 Alpha  occ. eigenvalues --   -0.42006  -0.42003  -0.41754  -0.41413  -0.41287
 Alpha  occ. eigenvalues --   -0.40696  -0.40459  -0.40196  -0.40136  -0.39912
 Alpha  occ. eigenvalues --   -0.39871  -0.39470  -0.39332  -0.39057  -0.38795
 Alpha  occ. eigenvalues --   -0.38723  -0.38179  -0.38048  -0.37332  -0.37163
 Alpha  occ. eigenvalues --   -0.36412  -0.36007  -0.35432  -0.35050  -0.33548
 Alpha  occ. eigenvalues --   -0.32757  -0.32173  -0.32050  -0.31781  -0.30726
 Alpha  occ. eigenvalues --   -0.29632  -0.28138  -0.25216  -0.19231
 Alpha virt. eigenvalues --   -0.07132  -0.00684   0.02496   0.05370   0.06748
 Alpha virt. eigenvalues --    0.07148   0.09886   0.10265   0.10961   0.11374
 Alpha virt. eigenvalues --    0.11666   0.12331   0.13119   0.13331   0.13732

 Mulliken charges:
               1
     1  O   -0.497431
     2  O   -0.546077
     3  O   -0.576648
     4  O   -0.562744
     5  C    0.181458
     6  C    0.245839
     7  C   -0.035221
     8  C   -0.197574
     9  C   -0.180841
    10  C    0.156166
    11  C   -0.346946
    12  C   -0.109565
    13  C   -0.268782
    14  C   -0.301386
    15  C   -0.073215
    16  C    0.095872
    17  C   -0.359450
    18  C   -0.117693
    19  C   -0.075230
    20  C    0.014284
    21  C    0.277943
    22  C   -0.192594
    23  C    0.169513
    24  C   -0.189763
    25  C   -0.080170
    26  C   -0.296126
    27  C   -0.275565
    28  C   -0.310039
    29  C   -0.115192
    30  C    0.119726
    31  C    0.074191
    32  C   -0.277357
    33  C   -0.375222
    34  C   -0.089490
    35  C    0.156532
    36  C   -0.375834
    37  C   -0.138575
    38  C   -0.069254
    39  C   -0.075881
    40  C   -0.114599
    41  C   -0.103450
    42  C   -0.124026
    43  C    0.134788
    44  C   -0.389533
    45  H    0.110119
    46  H    0.096888
    47  H    0.067046
    48  H    0.108273
    49  H    0.095896
    50  H    0.113181
    51  H    0.127443
    52  H    0.086662
    53  H    0.103378
    54  H    0.111156
    55  H    0.105538
    56  H    0.082754
    57  H    0.125700
    58  H    0.115397
    59  H    0.102253
    60  H    0.295852
    61  H    0.069199
    62  H    0.115411
    63  H    0.108802
    64  H    0.112327
    65  H    0.083326
    66  H    0.086158
    67  H    0.062828
    68  H    0.102640
    69  H    0.092357
    70  H    0.109265
    71  H    0.103066
    72  H    0.108902
    73  H    0.089994
    74  H    0.099451
    75  H    0.128672
    76  H    0.100975
    77  H    0.087560
    78  H    0.104324
    79  H    0.094490
    80  H    0.107016
    81  H    0.081364
    82  H    0.308604
    83  H    0.304991
    84  H    0.106613
    85  H    0.127166
    86  H    0.120191
    87  H    0.096749
    88  H    0.083988
    89  H    0.117254
    90  H    0.109801
    91  H    0.116543
    92  H    0.067806
    93  H    0.091094
    94  H    0.072838
    95  H    0.065943
    96  H    0.068266
    97  H    0.091393
    98  H    0.102687
    99  H    0.126642
   100  H    0.140927
 Sum of Mulliken charges =  -0.00000

 Dipole moment (field-independent basis, Debye):
    X=              2.6809    Y=             -0.7393    Z=              2.7305  Tot=              3.8974
 Quadrupole moment (field-independent basis, Debye-Ang):
   XX=           -301.8524   YY=           -259.8302   ZZ=           -281.5445
   XY=            -12.7227   XZ=             46.7248   YZ=             -0.1960

 Normal termination of Gaussian 16 at Thu Aug  1 18:42:19 2019.
