 Gaussian 16, Revision A.03,
 Gaussian 16:  ES64L-G16RevA.03 25-Dec-2016

 -------------------------------------
 # td=(NStates=1) CAM-B3LYP/6-31G(d,p)
 -------------------------------------

 --
 TD
 --
 Symbolic Z-matrix:
 Charge =  0 Multiplicity = 1

                         Standard orientation:
 ---------------------------------------------------------------------
 Center     Atomic      Atomic             Coordinates (Angstroms)
 Number     Number       Type             X           Y           Z
 ---------------------------------------------------------------------
      1          8           0      -11.737889    0.465955   -1.307784
      2          8           0      -13.061352   -2.716865    1.133924
      3          8           0       10.693852   -0.764525   -2.269577
      4          8           0       14.466097   -1.314786    0.096227
      5          6           0      -11.123557   -0.082660   -0.213865
      6          6           0      -11.665605   -0.991671   -1.213283
      7          6           0      -11.673364    0.096176    1.163446
      8          6           0      -13.090539   -1.687775   -1.015980
      9          6           0      -13.192844   -0.207198    1.048779
     10          6           0      -13.566931   -1.637388    0.374163
     11          6           0      -10.872003   -1.555466   -2.381369
     12          6           0       -9.644289    0.120717   -0.214654
     13          6           0      -10.975050   -0.583846    2.311723
     14          6           0      -11.671508    1.683543    1.426658
     15          6           0       -8.576975   -0.757290   -0.061827
     16          6           0       -7.106635   -0.514010    0.009812
     17          6           0       -6.261508   -1.810245    0.027164
     18          6           0       -6.602666    0.753730    0.049058
     19          6           0       -5.131566    1.063001   -0.089059
     20          6           0       11.820138   -0.017981    1.381997
     21          6           0       11.685153   -0.519468   -1.233387
     22          6           0       12.423821   -1.456381    1.544580
     23          6           0       13.265831   -2.047544    0.312979
     24          6           0       12.342146   -1.952835   -0.844999
     25          6           0       11.067478    0.006459    0.062894
     26          6           0       10.840094    0.199045    2.629375
     27          6           0       13.002844    1.135597    1.525175
     28          6           0       12.592666    0.525234   -1.853650
     29          6           0       -4.637595    2.296023   -0.302262
     30          6           0        9.890887    0.481533   -0.019435
     31          6           0       -3.316788    2.627466   -0.254187
     32          6           0        8.656927    1.057449   -0.205795
     33          6           0       -3.055561    4.129607   -0.485770
     34          6           0       -2.329408    1.632658   -0.167118
     35          6           0        7.475523    0.213851   -0.162337
     36          6           0        7.668990   -1.293366   -0.011778
     37          6           0        6.185693    0.814203   -0.120796
     38          6           0       -0.959156    1.920200   -0.259316
     39          6           0        4.927168    0.240818   -0.144397
     40          6           0        0.060558    0.937927   -0.243436
     41          6           0        3.752228    0.954578   -0.235948
     42          6           0        1.421676    1.232758   -0.345660
     43          6           0        2.500588    0.338539   -0.221751
     44          6           0        2.326358   -1.128255    0.019736
     45          1           0      -13.237334   -2.616750   -1.381069
     46          1           0      -13.628156   -1.014281   -1.647369
     47          1           0      -13.395637   -0.202614    2.081121
     48          1           0      -13.753933    0.310375    0.358153
     49          1           0      -14.583589   -1.627796    0.426876
     50          1           0      -10.907696   -2.694746   -2.542349
     51          1           0      -11.189100   -1.106906   -3.619042
     52          1           0       -9.824788   -1.193435   -2.117850
     53          1           0       -9.471502    1.157575   -0.474952
     54          1           0       -9.858872   -0.225748    2.377856
     55          1           0      -11.569988   -0.412776    3.228929
     56          1           0      -11.170530   -1.642505    2.192284
     57          1           0      -12.104433    2.159879    0.566300
     58          1           0      -12.232003    2.147753    2.025776
     59          1           0      -10.644880    1.964180    1.521874
     60          1           0      -12.117247   -3.075087    0.761018
     61          1           0       -8.808466   -1.787666    0.301428
     62          1           0       -5.832253   -2.207900   -0.797822
     63          1           0       -5.515094   -1.672093    0.865749
     64          1           0       -6.824624   -2.596463    0.496842
     65          1           0       -7.365886    1.682751    0.090824
     66          1           0       -4.421779    0.267236   -0.055250
     67          1           0       12.934296   -1.500357    2.414165
     68          1           0       11.370332   -2.180939    1.917620
     69          1           0       13.427311   -3.201231    0.582266
     70          1           0       12.685114   -2.333722   -1.832569
     71          1           0       11.349921   -2.586595   -0.902093
     72          1           0       11.668578    0.398272    3.571958
     73          1           0       10.186473    0.883706    2.354351
     74          1           0       10.274200   -0.807886    3.080726
     75          1           0       13.708392    0.889866    0.663405
     76          1           0       12.532158    2.123991    1.501843
     77          1           0       13.456947    0.981934    2.433198
     78          1           0       13.002189   -0.151791   -2.633160
     79          1           0       12.184027    1.516290   -2.046208
     80          1           0       13.425601    0.851756   -1.142161
     81          1           0       -5.489185    3.090019   -0.475747
     82          1           0        9.869347   -0.023394   -2.269538
     83          1           0       14.985437   -1.428668    0.873147
     84          1           0        8.710754    1.982314   -0.607665
     85          1           0       -2.353519    4.755391    0.373436
     86          1           0       -2.466866    4.199801   -1.369983
     87          1           0       -3.961378    4.584370   -0.624819
     88          1           0       -2.605317    0.672696   -0.015722
     89          1           0        6.690305   -1.784012   -0.245652
     90          1           0        8.413240   -1.534795   -0.789298
     91          1           0        8.105669   -1.585002    0.896430
     92          1           0        6.363456    1.952419   -0.099152
     93          1           0       -0.934688    3.039188   -0.280627
     94          1           0        4.728777   -0.834189   -0.028059
     95          1           0       -0.044123   -0.177526   -0.176357
     96          1           0        4.056105    2.131024   -0.428589
     97          1           0        1.689313    2.307042   -0.205239
     98          1           0        1.342399   -1.432261    0.200888
     99          1           0        2.537130   -1.816829   -0.881020
    100          1           0        3.010417   -1.258518    0.795705
 ---------------------------------------------------------------------

 SCF Done:  E(RCAM-B3LYP) =  -1857.25079731     A.U. after   15 cycles

 Excitation energies and oscillator strengths:

 Excited State   1:      Singlet-A      2.0886 eV  593.63 nm  f=3.1879  <S**2>=0.000
     163 ->166         0.13278
     164 ->165         0.69629
     164 <-165        -0.10034
 This state for optimization and/or second-order correction.
 Total Energy, E(TD-HF/TD-DFT) =  -1857.17404391
 Copying the excited state density for this state as the 1-particle RhoCI density.

 The electronic state is 1-A.
 Alpha  occ. eigenvalues --  -19.23465 -19.23034 -19.21933 -19.21356 -10.33660
 Alpha  occ. eigenvalues --  -10.32647 -10.32469 -10.31817 -10.29485 -10.29228
 Alpha  occ. eigenvalues --  -10.28312 -10.28006 -10.27937 -10.27792 -10.27652
 Alpha  occ. eigenvalues --  -10.27410 -10.27267 -10.27235 -10.27119 -10.27033
 Alpha  occ. eigenvalues --  -10.26984 -10.26976 -10.26957 -10.26824 -10.26803
 Alpha  occ. eigenvalues --  -10.26680 -10.26609 -10.26552 -10.26402 -10.26393
 Alpha  occ. eigenvalues --  -10.26350 -10.26174 -10.25850 -10.25776 -10.25682
 Alpha  occ. eigenvalues --  -10.25635 -10.25293 -10.25187 -10.25096 -10.24965
 Alpha  occ. eigenvalues --  -10.24652 -10.24271 -10.23523 -10.22159  -1.17525
 Alpha  occ. eigenvalues --   -1.11988  -1.08049  -1.06433  -0.92659  -0.92427
 Alpha  occ. eigenvalues --   -0.91947  -0.91098  -0.89885  -0.89592  -0.87123
 Alpha  occ. eigenvalues --   -0.86752  -0.85430  -0.84695  -0.83980  -0.83097
 Alpha  occ. eigenvalues --   -0.81866  -0.80177  -0.80018  -0.79422  -0.77414
 Alpha  occ. eigenvalues --   -0.77298  -0.77053  -0.76520  -0.75965  -0.75356
 Alpha  occ. eigenvalues --   -0.74932  -0.74731  -0.72872  -0.70877  -0.69741
 Alpha  occ. eigenvalues --   -0.68790  -0.66639  -0.66223  -0.64925  -0.64537
 Alpha  occ. eigenvalues --   -0.63322  -0.62189  -0.60229  -0.59690  -0.59655
 Alpha  occ. eigenvalues --   -0.58841  -0.58340  -0.57904  -0.57448  -0.57255
 Alpha  occ. eigenvalues --   -0.56627  -0.55736  -0.55452  -0.54124  -0.53737
 Alpha  occ. eigenvalues --   -0.53453  -0.53142  -0.53010  -0.51561  -0.51282
 Alpha  occ. eigenvalues --   -0.51048  -0.50995  -0.50604  -0.50257  -0.49839
 Alpha  occ. eigenvalues --   -0.49554  -0.49481  -0.49084  -0.48790  -0.48389
 Alpha  occ. eigenvalues --   -0.48189  -0.48065  -0.47548  -0.47283  -0.47189
 Alpha  occ. eigenvalues --   -0.46973  -0.46534  -0.46163  -0.45886  -0.45552
 Alpha  occ. eigenvalues --   -0.45187  -0.44858  -0.44522  -0.44073  -0.43940
 Alpha  occ. eigenvalues --   -0.43852  -0.43246  -0.42971  -0.42720  -0.42290
 Alpha  occ. eigenvalues --   -0.41973  -0.41810  -0.41698  -0.40875  -0.40543
 Alpha  occ. eigenvalues --   -0.40391  -0.40100  -0.39930  -0.39870  -0.39818
 Alpha  occ. eigenvalues --   -0.39440  -0.39387  -0.39093  -0.38835  -0.38425
 Alpha  occ. eigenvalues --   -0.38235  -0.37868  -0.37849  -0.37595  -0.37080
 Alpha  occ. eigenvalues --   -0.36843  -0.36554  -0.35176  -0.34112  -0.33756
 Alpha  occ. eigenvalues --   -0.32740  -0.32723  -0.32197  -0.30993  -0.30313
 Alpha  occ. eigenvalues --   -0.29371  -0.27868  -0.24274  -0.18940
 Alpha virt. eigenvalues --   -0.06014  -0.00607   0.02798   0.06587   0.08104
 Alpha virt. eigenvalues --    0.08326   0.08884   0.10322   0.10755   0.10986
 Alpha virt. eigenvalues --    0.12098   0.12879   0.13262   0.13486   0.13603

 Mulliken charges:
               1
     1  O   -0.492322
     2  O   -0.561652
     3  O   -0.599901
     4  O   -0.524459
     5  C    0.282807
     6  C    0.175318
     7  C   -0.000341
     8  C   -0.224375
     9  C   -0.188990
    10  C    0.167802
    11  C   -0.313186
    12  C   -0.126436
    13  C   -0.305796
    14  C   -0.312629
    15  C   -0.098114
    16  C    0.081489
    17  C   -0.376574
    18  C   -0.128129
    19  C   -0.073479
    20  C   -0.005353
    21  C    0.243078
    22  C   -0.172985
    23  C    0.156166
    24  C   -0.202653
    25  C   -0.045069
    26  C   -0.272983
    27  C   -0.313527
    28  C   -0.269295
    29  C   -0.120257
    30  C    0.085491
    31  C    0.083451
    32  C   -0.239671
    33  C   -0.368479
    34  C   -0.079966
    35  C    0.066942
    36  C   -0.358962
    37  C   -0.111230
    38  C   -0.088164
    39  C   -0.093257
    40  C   -0.105500
    41  C   -0.096959
    42  C   -0.109029
    43  C    0.081030
    44  C   -0.365496
    45  H    0.110255
    46  H    0.131432
    47  H    0.093673
    48  H    0.108514
    49  H    0.100515
    50  H    0.095262
    51  H    0.077525
    52  H    0.124092
    53  H    0.105171
    54  H    0.110602
    55  H    0.108456
    56  H    0.099291
    57  H    0.109961
    58  H    0.105657
    59  H    0.093952
    60  H    0.307967
    61  H    0.073199
    62  H    0.140637
    63  H    0.114312
    64  H    0.111920
    65  H    0.085057
    66  H    0.087402
    67  H    0.088045
    68  H    0.052740
    69  H    0.080898
    70  H    0.108767
    71  H    0.125528
    72  H    0.066178
    73  H    0.126340
    74  H    0.078733
    75  H    0.125759
    76  H    0.109219
    77  H    0.105240
    78  H    0.118367
    79  H    0.102621
    80  H    0.092781
    81  H    0.078442
    82  H    0.315806
    83  H    0.313820
    84  H    0.113926
    85  H    0.090418
    86  H    0.138955
    87  H    0.121364
    88  H    0.070688
    89  H    0.104291
    90  H    0.121608
    91  H    0.130646
    92  H    0.071334
    93  H    0.085690
    94  H    0.080728
    95  H    0.077257
    96  H    0.080917
    97  H    0.081269
    98  H    0.116504
    99  H    0.115505
   100  H    0.136410
 Sum of Mulliken charges =  -0.00000

 Dipole moment (field-independent basis, Debye):
    X=              1.9406    Y=             -1.1417    Z=              1.9711  Tot=              2.9924
 Quadrupole moment (field-independent basis, Debye-Ang):
   XX=           -263.4985   YY=           -255.9828   ZZ=           -280.7248
   XY=              1.1499   XZ=             38.8376   YZ=             -1.0690

 Normal termination of Gaussian 16 at Mon Jul 29 23:39:27 2019.
