 Gaussian 16, Revision A.03,
 Gaussian 16:  ES64L-G16RevA.03 25-Dec-2016

 -------------------------------------
 # td=(NStates=1) CAM-B3LYP/6-31G(d,p)
 -------------------------------------

 --
 TD
 --
 Symbolic Z-matrix:
 Charge =  0 Multiplicity = 1

                         Standard orientation:
 ---------------------------------------------------------------------
 Center     Atomic      Atomic             Coordinates (Angstroms)
 Number     Number       Type             X           Y           Z
 ---------------------------------------------------------------------
      1          8           0      -11.642437    0.097932   -1.600059
      2          8           0      -12.871852   -2.563596    1.380681
      3          8           0       10.443642   -0.838652   -2.071440
      4          8           0       14.492456   -1.220579   -0.158331
      5          6           0      -10.998559   -0.215618   -0.380993
      6          6           0      -11.501372   -1.278864   -1.194499
      7          6           0      -11.870865    0.354503    0.866906
      8          6           0      -12.848994   -1.976625   -0.998104
      9          6           0      -13.298423   -0.141278    0.824601
     10          6           0      -13.469944   -1.649331    0.413684
     11          6           0      -10.593222   -2.113627   -2.106607
     12          6           0       -9.511220    0.044345   -0.403923
     13          6           0      -11.104709    0.074931    2.242338
     14          6           0      -11.776249    1.934047    0.725872
     15          6           0       -8.557381   -0.781949    0.147053
     16          6           0       -7.148192   -0.626632    0.297539
     17          6           0       -6.271005   -1.755253    0.588730
     18          6           0       -6.534191    0.627127   -0.142502
     19          6           0       -5.166334    0.956890   -0.015598
     20          6           0       11.828110   -0.131096    1.362340
     21          6           0       11.531894   -0.563338   -1.283044
     22          6           0       12.570735   -1.576456    1.460444
     23          6           0       13.302655   -2.062749    0.110671
     24          6           0       12.319071   -1.895601   -1.128498
     25          6           0       11.049119    0.021023   -0.008795
     26          6           0       10.864328    0.003857    2.574072
     27          6           0       12.805347    1.105061    1.365618
     28          6           0       12.437156    0.530394   -2.017179
     29          6           0       -4.706584    2.225145   -0.274377
     30          6           0        9.888378    0.591434    0.066629
     31          6           0       -3.320912    2.663719   -0.383320
     32          6           0        8.640771    1.048144    0.015148
     33          6           0       -3.149487    4.146019   -0.638770
     34          6           0       -2.249568    1.737837   -0.253649
     35          6           0        7.409097    0.266334    0.033472
     36          6           0        7.653558   -1.208085    0.276068
     37          6           0        6.208603    0.817547   -0.126135
     38          6           0       -0.948448    2.146134   -0.284772
     39          6           0        4.909361    0.202987    0.004874
     40          6           0        0.136308    1.116127   -0.149481
     41          6           0        3.757093    0.977953    0.102225
     42          6           0        1.504724    1.395917   -0.097068
     43          6           0        2.433819    0.480183   -0.006630
     44          6           0        2.237475   -1.029915    0.078494
     45          1           0      -12.715341   -3.138146   -0.957444
     46          1           0      -13.663286   -1.632925   -1.673160
     47          1           0      -13.756337   -0.059448    1.805390
     48          1           0      -13.884019    0.492741    0.241422
     49          1           0      -14.478923   -1.990085    0.398808
     50          1           0      -10.227092   -2.799439   -1.366875
     51          1           0      -11.207998   -2.651447   -2.825060
     52          1           0       -9.767135   -1.600657   -2.730889
     53          1           0       -9.403705    1.003304   -0.822105
     54          1           0      -10.111393    0.438684    2.305600
     55          1           0      -11.662855    0.681366    2.994674
     56          1           0      -10.970127   -1.159313    2.721337
     57          1           0      -12.276287    2.320554   -0.207514
     58          1           0      -12.270512    2.280400    1.530699
     59          1           0      -10.685034    2.485764    0.871238
     60          1           0      -11.925004   -2.354998    1.222508
     61          1           0       -8.997290   -1.850607    0.653751
     62          1           0       -5.896192   -2.297842   -0.327634
     63          1           0       -5.392451   -1.645295    1.162657
     64          1           0       -6.645988   -2.644820    1.109028
     65          1           0       -7.098241    1.586876   -0.339816
     66          1           0       -4.432810    0.201458    0.382015
     67          1           0       13.431894   -1.381232    2.209927
     68          1           0       11.755170   -2.367944    1.752849
     69          1           0       13.562462   -3.027757    0.530147
     70          1           0       12.553970   -2.299518   -2.081355
     71          1           0       11.514231   -2.710393   -0.935330
     72          1           0       11.551175   -0.093566    3.511696
     73          1           0       10.367812    1.033030    2.507550
     74          1           0       10.106229   -0.714067    2.735148
     75          1           0       13.648650    0.836824    0.698836
     76          1           0       12.221999    1.922733    1.388865
     77          1           0       13.497420    1.096355    2.370528
     78          1           0       12.709664    0.013151   -3.077427
     79          1           0       11.642523    1.307496   -2.350123
     80          1           0       13.305983    1.020563   -1.497467
     81          1           0       -5.600751    3.132542   -0.476675
     82          1           0        9.765687   -0.082802   -2.094611
     83          1           0       15.221746   -1.387063    0.539685
     84          1           0        8.671248    2.124532    0.070921
     85          1           0       -2.727653    4.748533    0.371089
     86          1           0       -2.493478    4.035624   -1.579493
     87          1           0       -4.061526    4.693504   -1.059302
     88          1           0       -2.394233    0.586523   -0.242821
     89          1           0        6.790291   -1.807234   -0.470681
     90          1           0        8.549478   -1.519202   -0.172424
     91          1           0        7.754437   -1.493499    1.454179
     92          1           0        6.241257    1.765502   -0.466828
     93          1           0       -0.656077    3.133595   -0.288119
     94          1           0        4.954307   -0.854732    0.220662
     95          1           0       -0.230138    0.004056   -0.296511
     96          1           0        3.687769    1.973674   -0.220781
     97          1           0        1.702422    2.449733   -0.075863
     98          1           0        1.238469   -1.181615    0.141296
     99          1           0        2.504673   -1.701913   -0.719857
    100          1           0        2.534792   -1.489837    1.069852
 ---------------------------------------------------------------------

 SCF Done:  E(RCAM-B3LYP) =  -1857.31199500     A.U. after   15 cycles

 Excitation energies and oscillator strengths:

 Excited State   1:      Singlet-A      1.9993 eV  620.14 nm  f=2.8598  <S**2>=0.000
     163 ->166        -0.12517
     164 ->165         0.70092
     164 <-165        -0.11198
 This state for optimization and/or second-order correction.
 Total Energy, E(TD-HF/TD-DFT) =  -1857.23852225
 Copying the excited state density for this state as the 1-particle RhoCI density.

 The electronic state is 1-A.
 Alpha  occ. eigenvalues --  -19.22708 -19.21460 -19.21252 -19.20651 -10.33111
 Alpha  occ. eigenvalues --  -10.32605 -10.31483 -10.31370 -10.30440 -10.29093
 Alpha  occ. eigenvalues --  -10.28789 -10.28651 -10.28468 -10.28387 -10.28378
 Alpha  occ. eigenvalues --  -10.28322 -10.28225 -10.28117 -10.27396 -10.27380
 Alpha  occ. eigenvalues --  -10.27284 -10.27232 -10.27141 -10.26984 -10.26774
 Alpha  occ. eigenvalues --  -10.26774 -10.26754 -10.26673 -10.26608 -10.26577
 Alpha  occ. eigenvalues --  -10.26453 -10.26451 -10.26228 -10.25881 -10.25681
 Alpha  occ. eigenvalues --  -10.25626 -10.25612 -10.25576 -10.25369 -10.25162
 Alpha  occ. eigenvalues --  -10.25043 -10.25016 -10.24955 -10.24725  -1.15393
 Alpha  occ. eigenvalues --   -1.10975  -1.08036  -1.07525  -0.93177  -0.92163
 Alpha  occ. eigenvalues --   -0.91464  -0.90581  -0.90164  -0.89257  -0.86690
 Alpha  occ. eigenvalues --   -0.85688  -0.85384  -0.84675  -0.84028  -0.82974
 Alpha  occ. eigenvalues --   -0.81943  -0.80222  -0.79947  -0.79345  -0.76996
 Alpha  occ. eigenvalues --   -0.76167  -0.75949  -0.75815  -0.75478  -0.74775
 Alpha  occ. eigenvalues --   -0.74531  -0.73893  -0.72906  -0.70487  -0.69339
 Alpha  occ. eigenvalues --   -0.68326  -0.66385  -0.65099  -0.64687  -0.64172
 Alpha  occ. eigenvalues --   -0.62929  -0.62085  -0.61446  -0.60388  -0.60211
 Alpha  occ. eigenvalues --   -0.59270  -0.58272  -0.57482  -0.57248  -0.56257
 Alpha  occ. eigenvalues --   -0.55511  -0.54862  -0.54437  -0.53611  -0.53314
 Alpha  occ. eigenvalues --   -0.53200  -0.52721  -0.52440  -0.51933  -0.51354
 Alpha  occ. eigenvalues --   -0.50908  -0.50789  -0.49929  -0.49804  -0.49407
 Alpha  occ. eigenvalues --   -0.49025  -0.48857  -0.48686  -0.48297  -0.48188
 Alpha  occ. eigenvalues --   -0.47875  -0.47728  -0.47506  -0.47335  -0.46395
 Alpha  occ. eigenvalues --   -0.46004  -0.45748  -0.45570  -0.45250  -0.44705
 Alpha  occ. eigenvalues --   -0.44606  -0.44149  -0.43917  -0.43729  -0.43249
 Alpha  occ. eigenvalues --   -0.42920  -0.42905  -0.42742  -0.42515  -0.42198
 Alpha  occ. eigenvalues --   -0.42127  -0.41917  -0.41864  -0.41325  -0.40844
 Alpha  occ. eigenvalues --   -0.40601  -0.40180  -0.39973  -0.39866  -0.39623
 Alpha  occ. eigenvalues --   -0.39330  -0.39259  -0.38912  -0.38768  -0.38576
 Alpha  occ. eigenvalues --   -0.38336  -0.38137  -0.37667  -0.37331  -0.37235
 Alpha  occ. eigenvalues --   -0.37054  -0.36397  -0.35779  -0.35063  -0.34277
 Alpha  occ. eigenvalues --   -0.32820  -0.32322  -0.31745  -0.31178  -0.31102
 Alpha  occ. eigenvalues --   -0.29484  -0.27390  -0.24437  -0.19221
 Alpha virt. eigenvalues --   -0.06667  -0.01063   0.02439   0.06482   0.07843
 Alpha virt. eigenvalues --    0.09139   0.09314   0.10020   0.11208   0.11294
 Alpha virt. eigenvalues --    0.12018   0.12890   0.13271   0.13348   0.13834

 Mulliken charges:
               1
     1  O   -0.510031
     2  O   -0.548428
     3  O   -0.572109
     4  O   -0.554940
     5  C    0.196738
     6  C    0.225790
     7  C    0.016609
     8  C   -0.220951
     9  C   -0.183794
    10  C    0.119787
    11  C   -0.323462
    12  C   -0.092280
    13  C   -0.301100
    14  C   -0.318126
    15  C   -0.084434
    16  C    0.088347
    17  C   -0.394141
    18  C   -0.116512
    19  C   -0.050245
    20  C    0.003853
    21  C    0.273042
    22  C   -0.204123
    23  C    0.146657
    24  C   -0.188073
    25  C   -0.056904
    26  C   -0.294931
    27  C   -0.292952
    28  C   -0.281502
    29  C   -0.127076
    30  C    0.118688
    31  C    0.065843
    32  C   -0.277909
    33  C   -0.358734
    34  C   -0.096402
    35  C    0.128366
    36  C   -0.361827
    37  C   -0.094396
    38  C   -0.086717
    39  C   -0.097589
    40  C   -0.124535
    41  C   -0.119133
    42  C   -0.111185
    43  C    0.126362
    44  C   -0.374696
    45  H    0.107818
    46  H    0.120382
    47  H    0.113251
    48  H    0.113835
    49  H    0.100491
    50  H    0.107072
    51  H    0.111278
    52  H    0.118459
    53  H    0.106823
    54  H    0.127436
    55  H    0.098687
    56  H    0.057145
    57  H    0.121979
    58  H    0.114960
    59  H    0.083219
    60  H    0.300701
    61  H    0.055085
    62  H    0.124644
    63  H    0.125654
    64  H    0.111362
    65  H    0.088114
    66  H    0.089027
    67  H    0.080127
    68  H    0.095393
    69  H    0.103981
    70  H    0.124833
    71  H    0.096045
    72  H    0.084294
    73  H    0.097295
    74  H    0.108463
    75  H    0.140266
    76  H    0.115588
    77  H    0.053025
    78  H    0.086304
    79  H    0.073115
    80  H    0.125742
    81  H    0.060452
    82  H    0.319159
    83  H    0.308701
    84  H    0.108477
    85  H    0.109086
    86  H    0.123385
    87  H    0.116324
    88  H    0.091158
    89  H    0.074401
    90  H    0.140763
    91  H    0.106252
    92  H    0.071551
    93  H    0.090216
    94  H    0.097079
    95  H    0.080524
    96  H    0.081371
    97  H    0.091256
    98  H    0.109468
    99  H    0.128906
   100  H    0.118738
 Sum of Mulliken charges =  -0.00000

 Dipole moment (field-independent basis, Debye):
    X=              3.8463    Y=             -0.0417    Z=              1.6785  Tot=              4.1968
 Quadrupole moment (field-independent basis, Debye-Ang):
   XX=           -278.4506   YY=           -257.6244   ZZ=           -281.6941
   XY=            -22.9237   XZ=             28.7116   YZ=             -0.9015

 Normal termination of Gaussian 16 at Thu Aug  1 01:48:40 2019.
