 Gaussian 16, Revision A.03,
 Gaussian 16:  ES64L-G16RevA.03 25-Dec-2016

 -------------------------------------
 # td=(NStates=1) CAM-B3LYP/6-31G(d,p)
 -------------------------------------

 --
 TD
 --
 Symbolic Z-matrix:
 Charge =  0 Multiplicity = 1

                         Standard orientation:
 ---------------------------------------------------------------------
 Center     Atomic      Atomic             Coordinates (Angstroms)
 Number     Number       Type             X           Y           Z
 ---------------------------------------------------------------------
      1          8           0      -11.745543    0.269130   -1.455381
      2          8           0      -13.095718   -2.428914    1.360478
      3          8           0       10.689568   -1.057761   -2.168766
      4          8           0       14.558075   -1.077255   -0.048878
      5          6           0      -11.071759   -0.177466   -0.272051
      6          6           0      -11.821561   -1.141756   -1.183348
      7          6           0      -11.845450    0.328765    1.043223
      8          6           0      -13.108490   -1.765196   -0.882721
      9          6           0      -13.303176   -0.010915    0.833324
     10          6           0      -13.655627   -1.449135    0.437828
     11          6           0      -10.871796   -1.972152   -2.218073
     12          6           0       -9.635796    0.012314   -0.356209
     13          6           0      -11.091082   -0.152934    2.327033
     14          6           0      -11.730466    1.824548    0.940228
     15          6           0       -8.709415   -0.784046    0.124297
     16          6           0       -7.269258   -0.657964    0.151396
     17          6           0       -6.409854   -1.870466    0.367423
     18          6           0       -6.744609    0.651739   -0.002612
     19          6           0       -5.320584    0.865616   -0.135535
     20          6           0       11.938843    0.014313    1.345687
     21          6           0       11.695095   -0.640482   -1.221916
     22          6           0       12.693085   -1.315574    1.546250
     23          6           0       13.401093   -1.837541    0.318770
     24          6           0       12.352528   -1.922224   -0.892813
     25          6           0       11.109688    0.015685    0.061419
     26          6           0       11.039372    0.315716    2.655889
     27          6           0       12.900491    1.227801    1.299224
     28          6           0       12.658912    0.277078   -2.014239
     29          6           0       -4.833088    2.152664   -0.357981
     30          6           0        9.944602    0.576404    0.024033
     31          6           0       -3.377697    2.483004   -0.380849
     32          6           0        8.760101    0.947076   -0.154713
     33          6           0       -3.074821    3.917875   -0.738855
     34          6           0       -2.380616    1.613942   -0.226375
     35          6           0        7.551987    0.140199   -0.106473
     36          6           0        7.724902   -1.331809    0.406888
     37          6           0        6.372820    0.813161   -0.224907
     38          6           0       -1.062967    1.852108   -0.324313
     39          6           0        4.987579    0.208715   -0.114116
     40          6           0        0.136125    0.976556   -0.181113
     41          6           0        3.847901    0.977666   -0.250585
     42          6           0        1.494437    1.349986   -0.184827
     43          6           0        2.510058    0.452141   -0.165196
     44          6           0        2.402441   -1.045472    0.200221
     45          1           0      -13.337933   -2.847336   -0.758104
     46          1           0      -13.666715   -1.561850   -1.859402
     47          1           0      -13.993577    0.295612    1.743291
     48          1           0      -13.719653    0.706501    0.084296
     49          1           0      -14.571683   -1.530402    0.396447
     50          1           0      -10.729691   -2.788680   -1.790994
     51          1           0      -11.489761   -1.989775   -3.152194
     52          1           0       -9.774659   -1.523638   -2.503754
     53          1           0       -9.248842    0.810509   -1.020579
     54          1           0      -10.127662    0.113197    2.245756
     55          1           0      -11.542518    0.435336    3.079044
     56          1           0      -11.311786   -1.300451    2.632662
     57          1           0      -12.080452    2.163274    0.163401
     58          1           0      -12.207462    2.311621    1.855200
     59          1           0      -10.622051    2.128888    0.938254
     60          1           0      -12.109788   -2.401470    1.201044
     61          1           0       -9.036221   -1.610005    0.564885
     62          1           0       -6.018643   -2.323826   -0.611300
     63          1           0       -5.723701   -1.468107    0.998347
     64          1           0       -6.907478   -2.545552    0.983909
     65          1           0       -7.371977    1.472322    0.075290
     66          1           0       -4.492542   -0.040729   -0.012664
     67          1           0       13.352772   -1.105222    2.425640
     68          1           0       11.977901   -2.333622    1.713879
     69          1           0       13.754010   -2.804757    0.562412
     70          1           0       12.801979   -2.496270   -1.803183
     71          1           0       11.542473   -2.701406   -0.601557
     72          1           0       11.553372    0.349715    3.592270
     73          1           0       10.519853    1.234416    2.226276
     74          1           0       10.384453   -0.662083    2.960601
     75          1           0       13.866881    1.148304    0.567699
     76          1           0       12.300246    2.093512    1.226877
     77          1           0       13.434906    1.190045    2.293271
     78          1           0       12.984771   -0.104436   -2.950187
     79          1           0       12.136204    1.050437   -2.430782
     80          1           0       13.351977    0.747857   -1.300627
     81          1           0       -5.519818    3.170328   -0.258281
     82          1           0        9.864405   -0.295307   -2.094225
     83          1           0       15.138648   -0.915317    0.734647
     84          1           0        8.600538    2.031610   -0.619022
     85          1           0       -2.598833    4.655239    0.004785
     86          1           0       -2.428899    4.069143   -1.558400
     87          1           0       -3.931551    4.543161   -0.972281
     88          1           0       -2.526695    0.683123   -0.060813
     89          1           0        6.751642   -1.800862    0.172382
     90          1           0        8.687934   -1.903783   -0.010130
     91          1           0        8.013175   -1.576008    1.415270
     92          1           0        6.407713    1.914303   -0.507294
     93          1           0       -0.747644    2.958404   -0.426196
     94          1           0        5.053512   -0.924832   -0.146223
     95          1           0       -0.249554    0.093697   -0.084199
     96          1           0        3.956631    1.970543   -0.403640
     97          1           0        1.801865    2.273081   -0.336567
     98          1           0        1.469445   -1.414304    0.353341
     99          1           0        2.963754   -1.642659   -0.431650
    100          1           0        2.941962   -1.162729    1.033580
 ---------------------------------------------------------------------

 SCF Done:  E(RCAM-B3LYP) =  -1857.23362749     A.U. after   15 cycles

 Excitation energies and oscillator strengths:

 Excited State   1:      Singlet-A      2.3296 eV  532.22 nm  f=2.9753  <S**2>=0.000
     163 ->166         0.13587
     164 ->165         0.69424
 This state for optimization and/or second-order correction.
 Total Energy, E(TD-HF/TD-DFT) =  -1857.14801798
 Copying the excited state density for this state as the 1-particle RhoCI density.

 The electronic state is 1-A.
 Alpha  occ. eigenvalues --  -19.22435 -19.21920 -19.21278 -19.20821 -10.32974
 Alpha  occ. eigenvalues --  -10.31660 -10.31399 -10.30730 -10.29272 -10.28723
 Alpha  occ. eigenvalues --  -10.28658 -10.28544 -10.28381 -10.28046 -10.27843
 Alpha  occ. eigenvalues --  -10.27754 -10.27658 -10.27585 -10.27423 -10.27394
 Alpha  occ. eigenvalues --  -10.27344 -10.27217 -10.26791 -10.26671 -10.26634
 Alpha  occ. eigenvalues --  -10.26569 -10.26233 -10.26226 -10.26202 -10.26126
 Alpha  occ. eigenvalues --  -10.25935 -10.25875 -10.25823 -10.25727 -10.25566
 Alpha  occ. eigenvalues --  -10.25484 -10.25257 -10.25140 -10.25052 -10.24720
 Alpha  occ. eigenvalues --  -10.23887 -10.23455 -10.23346 -10.21912  -1.15144
 Alpha  occ. eigenvalues --   -1.09085  -1.08774  -1.06277  -0.92968  -0.92580
 Alpha  occ. eigenvalues --   -0.92176  -0.91538  -0.90806  -0.90498  -0.88390
 Alpha  occ. eigenvalues --   -0.86850  -0.86036  -0.84961  -0.84702  -0.83303
 Alpha  occ. eigenvalues --   -0.81970  -0.81307  -0.80597  -0.80174  -0.77314
 Alpha  occ. eigenvalues --   -0.77215  -0.77000  -0.76742  -0.76482  -0.75347
 Alpha  occ. eigenvalues --   -0.74896  -0.74671  -0.73916  -0.72500  -0.70001
 Alpha  occ. eigenvalues --   -0.68973  -0.67032  -0.65766  -0.64552  -0.63830
 Alpha  occ. eigenvalues --   -0.63371  -0.62499  -0.61705  -0.60929  -0.60213
 Alpha  occ. eigenvalues --   -0.59736  -0.59023  -0.57653  -0.57608  -0.57119
 Alpha  occ. eigenvalues --   -0.56775  -0.56397  -0.55635  -0.55399  -0.54276
 Alpha  occ. eigenvalues --   -0.53563  -0.53390  -0.52712  -0.52125  -0.51438
 Alpha  occ. eigenvalues --   -0.50970  -0.50790  -0.50606  -0.50551  -0.50217
 Alpha  occ. eigenvalues --   -0.49932  -0.49484  -0.49175  -0.48773  -0.48555
 Alpha  occ. eigenvalues --   -0.48427  -0.47662  -0.47489  -0.47398  -0.47031
 Alpha  occ. eigenvalues --   -0.46916  -0.46780  -0.46699  -0.46061  -0.45655
 Alpha  occ. eigenvalues --   -0.44989  -0.44900  -0.44444  -0.44284  -0.43926
 Alpha  occ. eigenvalues --   -0.43724  -0.43582  -0.43370  -0.43203  -0.42749
 Alpha  occ. eigenvalues --   -0.42505  -0.42264  -0.41902  -0.41720  -0.41394
 Alpha  occ. eigenvalues --   -0.40979  -0.40363  -0.40248  -0.40066  -0.39837
 Alpha  occ. eigenvalues --   -0.39393  -0.39087  -0.39013  -0.38770  -0.38687
 Alpha  occ. eigenvalues --   -0.38316  -0.38084  -0.37948  -0.37652  -0.37276
 Alpha  occ. eigenvalues --   -0.36370  -0.35785  -0.35335  -0.34885  -0.34205
 Alpha  occ. eigenvalues --   -0.32891  -0.32254  -0.31726  -0.31496  -0.31249
 Alpha  occ. eigenvalues --   -0.29878  -0.27856  -0.25221  -0.20180
 Alpha virt. eigenvalues --   -0.05773  -0.00718   0.02887   0.06153   0.07101
 Alpha virt. eigenvalues --    0.09426   0.09777   0.10362   0.11453   0.11545
 Alpha virt. eigenvalues --    0.12550   0.13014   0.13176   0.13400   0.13893

 Mulliken charges:
               1
     1  O   -0.507359
     2  O   -0.558407
     3  O   -0.590329
     4  O   -0.556812
     5  C    0.172550
     6  C    0.223552
     7  C    0.017388
     8  C   -0.234837
     9  C   -0.201475
    10  C    0.186749
    11  C   -0.309558
    12  C   -0.109688
    13  C   -0.307210
    14  C   -0.285760
    15  C   -0.049541
    16  C    0.038619
    17  C   -0.357278
    18  C   -0.103200
    19  C   -0.082826
    20  C   -0.018963
    21  C    0.271495
    22  C   -0.175380
    23  C    0.164711
    24  C   -0.185669
    25  C   -0.039307
    26  C   -0.286037
    27  C   -0.292822
    28  C   -0.277959
    29  C   -0.130582
    30  C    0.165788
    31  C    0.108970
    32  C   -0.336814
    33  C   -0.398570
    34  C   -0.048264
    35  C    0.120291
    36  C   -0.365733
    37  C   -0.112884
    38  C   -0.122378
    39  C   -0.111282
    40  C   -0.077522
    41  C   -0.104521
    42  C   -0.094533
    43  C    0.107306
    44  C   -0.368851
    45  H    0.134154
    46  H    0.110206
    47  H    0.076728
    48  H    0.114402
    49  H    0.094370
    50  H    0.118214
    51  H    0.105010
    52  H    0.101455
    53  H    0.104568
    54  H    0.123065
    55  H    0.111111
    56  H    0.083908
    57  H    0.127519
    58  H    0.088163
    59  H    0.081796
    60  H    0.308064
    61  H    0.054461
    62  H    0.127978
    63  H    0.135022
    64  H    0.117054
    65  H    0.096486
    66  H    0.097486
    67  H    0.078255
    68  H    0.070647
    69  H    0.084737
    70  H    0.110470
    71  H    0.097334
    72  H    0.110115
    73  H    0.112546
    74  H    0.077872
    75  H    0.110857
    76  H    0.114184
    77  H    0.083244
    78  H    0.111832
    79  H    0.089986
    80  H    0.111375
    81  H    0.085764
    82  H    0.303041
    83  H    0.304844
    84  H    0.093971
    85  H    0.108297
    86  H    0.134282
    87  H    0.105976
    88  H    0.045096
    89  H    0.102677
    90  H    0.112622
    91  H    0.134703
    92  H    0.083606
    93  H    0.058719
    94  H    0.087558
    95  H    0.058559
    96  H    0.082268
    97  H    0.074380
    98  H    0.113481
    99  H    0.122488
   100  H    0.137924
 Sum of Mulliken charges =  -0.00000

 Dipole moment (field-independent basis, Debye):
    X=              0.3317    Y=             -0.1567    Z=              2.6087  Tot=              2.6344
 Quadrupole moment (field-independent basis, Debye-Ang):
   XX=           -275.3890   YY=           -258.7960   ZZ=           -279.7760
   XY=              4.4553   XZ=             39.8266   YZ=             -3.4103

 Normal termination of Gaussian 16 at Wed Jul 31 20:47:01 2019.
