 Gaussian 16, Revision A.03,
 Gaussian 16:  ES64L-G16RevA.03 25-Dec-2016

 -------------------------------------
 # td=(NStates=1) CAM-B3LYP/6-31G(d,p)
 -------------------------------------

 --
 TD
 --
 Symbolic Z-matrix:
 Charge =  0 Multiplicity = 1

                         Standard orientation:
 ---------------------------------------------------------------------
 Center     Atomic      Atomic             Coordinates (Angstroms)
 Number     Number       Type             X           Y           Z
 ---------------------------------------------------------------------
      1          8           0      -11.696939    0.182782   -1.576731
      2          8           0      -13.074248   -2.408655    1.571331
      3          8           0       10.621591   -1.197870   -2.004834
      4          8           0       14.463496   -1.061966    0.198724
      5          6           0      -11.078151   -0.122335   -0.266373
      6          6           0      -11.625659   -1.112396   -1.105286
      7          6           0      -11.845592    0.493325    0.923435
      8          6           0      -12.898097   -1.869887   -0.812054
      9          6           0      -13.260215   -0.012452    1.002694
     10          6           0      -13.555520   -1.523184    0.606775
     11          6           0      -10.801926   -1.953250   -2.090133
     12          6           0       -9.542901    0.187417   -0.292491
     13          6           0      -11.112300    0.039018    2.293269
     14          6           0      -11.801442    1.979569    0.866966
     15          6           0       -8.711861   -0.714873    0.166449
     16          6           0       -7.237780   -0.647194    0.014546
     17          6           0       -6.514571   -1.996356    0.213139
     18          6           0       -6.616671    0.566750   -0.106965
     19          6           0       -5.265729    0.885397   -0.132988
     20          6           0       11.833468    0.156470    1.432985
     21          6           0       11.649441   -0.729074   -1.075399
     22          6           0       12.534387   -1.182866    1.725461
     23          6           0       13.270957   -1.918541    0.518105
     24          6           0       12.434716   -1.962877   -0.644611
     25          6           0       11.128681    0.057810    0.116864
     26          6           0       10.802197    0.569144    2.504238
     27          6           0       12.844024    1.343040    1.340743
     28          6           0       12.553663    0.173620   -2.081542
     29          6           0       -4.725798    2.100030   -0.351670
     30          6           0        9.956795    0.602418   -0.121248
     31          6           0       -3.372338    2.422293   -0.452374
     32          6           0        8.713963    0.993288   -0.266552
     33          6           0       -2.965598    3.921089   -0.678426
     34          6           0       -2.314817    1.611795   -0.156218
     35          6           0        7.514802    0.156661   -0.135759
     36          6           0        7.727250   -1.308829    0.258609
     37          6           0        6.293830    0.707235   -0.323697
     38          6           0       -0.945663    1.814719   -0.401869
     39          6           0        5.011301    0.065565   -0.200813
     40          6           0        0.140980    0.856552   -0.219542
     41          6           0        3.866832    0.963911   -0.399012
     42          6           0        1.467049    1.222310   -0.409292
     43          6           0        2.541038    0.332599   -0.272971
     44          6           0        2.347840   -1.062881    0.019234
     45          1           0      -13.095253   -2.926490   -0.858432
     46          1           0      -13.541077   -1.518407   -1.669072
     47          1           0      -13.611873    0.119649    2.207382
     48          1           0      -13.941420    0.766931    0.406852
     49          1           0      -14.669195   -1.593525    0.651473
     50          1           0      -10.131835   -2.750366   -1.589914
     51          1           0      -11.712317   -2.514446   -2.778668
     52          1           0      -10.235482   -1.135557   -3.051253
     53          1           0       -9.311514    1.171737   -0.679842
     54          1           0      -10.009897    0.617312    2.528784
     55          1           0      -11.742582    0.298402    3.156982
     56          1           0      -11.090206   -1.023720    2.397335
     57          1           0      -12.318293    2.212388   -0.142550
     58          1           0      -12.385665    2.542533    1.610834
     59          1           0      -10.686357    2.363292    0.881845
     60          1           0      -11.985503   -2.453718    1.577281
     61          1           0       -9.057074   -1.706770    0.720436
     62          1           0       -6.498487   -2.619366   -0.865395
     63          1           0       -5.244424   -1.910203    0.553715
     64          1           0       -6.858036   -2.689625    0.899018
     65          1           0       -7.229077    1.542278   -0.210693
     66          1           0       -4.505390   -0.043208   -0.044001
     67          1           0       13.089900   -0.896234    2.566177
     68          1           0       11.859915   -1.809790    2.265676
     69          1           0       13.810147   -2.834056    0.788470
     70          1           0       13.099621   -2.443856   -1.543793
     71          1           0       11.600317   -2.703546   -0.592867
     72          1           0       11.458110    0.543685    3.360431
     73          1           0       10.456920    1.660879    2.328036
     74          1           0       10.088442   -0.253527    2.727161
     75          1           0       13.770985    1.334216    0.564103
     76          1           0       12.291744    2.332264    1.088788
     77          1           0       13.357046    1.268594    2.238100
     78          1           0       12.938299   -0.451500   -2.870397
     79          1           0       12.132753    1.182117   -2.443025
     80          1           0       13.446531    0.346664   -1.485447
     81          1           0       -5.397135    2.929658   -0.356776
     82          1           0       10.190808   -0.289125   -2.553369
     83          1           0       15.153316   -0.985625    0.875405
     84          1           0        8.427136    2.117171   -0.473214
     85          1           0       -2.457972    4.227588    0.221875
     86          1           0       -2.318231    4.055916   -1.604520
     87          1           0       -4.028142    4.364068   -0.777744
     88          1           0       -2.753090    0.538124    0.106296
     89          1           0        6.750898   -1.962774    0.005545
     90          1           0        8.659760   -1.563067   -0.325185
     91          1           0        8.038464   -1.627856    1.387485
     92          1           0        6.346638    1.683143   -0.858275
     93          1           0       -0.758029    2.763104   -0.867014
     94          1           0        5.028491   -0.860266    0.094082
     95          1           0       -0.179349    0.009738    0.031459
     96          1           0        4.015822    1.942499   -0.853944
     97          1           0        1.663407    2.265387   -0.584245
     98          1           0        1.279230   -1.200145    0.514625
     99          1           0        2.561180   -1.555564   -0.998099
    100          1           0        3.082279   -1.621499    0.776791
 ---------------------------------------------------------------------

 SCF Done:  E(RCAM-B3LYP) =  -1857.24621222     A.U. after   15 cycles

 Excitation energies and oscillator strengths:

 Excited State   1:      Singlet-A      2.1374 eV  580.06 nm  f=3.0666  <S**2>=0.000
     163 ->166        -0.12918
     164 ->165         0.69794
 This state for optimization and/or second-order correction.
 Total Energy, E(TD-HF/TD-DFT) =  -1857.16766251
 Copying the excited state density for this state as the 1-particle RhoCI density.

 The electronic state is 1-A.
 Alpha  occ. eigenvalues --  -19.22662 -19.22213 -19.21812 -19.20749 -10.32901
 Alpha  occ. eigenvalues --  -10.32541 -10.32251 -10.32062 -10.31786 -10.29165
 Alpha  occ. eigenvalues --  -10.29050 -10.28508 -10.28363 -10.28034 -10.27819
 Alpha  occ. eigenvalues --  -10.27763 -10.27552 -10.27521 -10.27168 -10.27119
 Alpha  occ. eigenvalues --  -10.27012 -10.26892 -10.26870 -10.26856 -10.26688
 Alpha  occ. eigenvalues --  -10.26613 -10.26565 -10.26506 -10.26451 -10.26405
 Alpha  occ. eigenvalues --  -10.26200 -10.26150 -10.26106 -10.26081 -10.25975
 Alpha  occ. eigenvalues --  -10.25868 -10.25833 -10.25797 -10.25709 -10.25691
 Alpha  occ. eigenvalues --  -10.25671 -10.25456 -10.25252 -10.23983  -1.16482
 Alpha  occ. eigenvalues --   -1.08931  -1.07490  -1.05995  -0.93456  -0.92251
 Alpha  occ. eigenvalues --   -0.91642  -0.91012  -0.90168  -0.89793  -0.87037
 Alpha  occ. eigenvalues --   -0.86725  -0.85646  -0.85403  -0.84306  -0.82415
 Alpha  occ. eigenvalues --   -0.81408  -0.79051  -0.78618  -0.77845  -0.76616
 Alpha  occ. eigenvalues --   -0.75973  -0.75794  -0.75773  -0.75376  -0.74884
 Alpha  occ. eigenvalues --   -0.74354  -0.73996  -0.72686  -0.70643  -0.70105
 Alpha  occ. eigenvalues --   -0.68674  -0.67088  -0.65725  -0.64943  -0.64513
 Alpha  occ. eigenvalues --   -0.63444  -0.62442  -0.60968  -0.59778  -0.59268
 Alpha  occ. eigenvalues --   -0.58298  -0.57360  -0.56936  -0.56791  -0.56354
 Alpha  occ. eigenvalues --   -0.55157  -0.54880  -0.54403  -0.54181  -0.53806
 Alpha  occ. eigenvalues --   -0.52920  -0.52702  -0.52381  -0.51610  -0.51554
 Alpha  occ. eigenvalues --   -0.51287  -0.50996  -0.49611  -0.49463  -0.49156
 Alpha  occ. eigenvalues --   -0.49130  -0.49025  -0.48808  -0.48498  -0.47869
 Alpha  occ. eigenvalues --   -0.47341  -0.47282  -0.47005  -0.46223  -0.45955
 Alpha  occ. eigenvalues --   -0.45797  -0.45661  -0.45324  -0.45219  -0.44762
 Alpha  occ. eigenvalues --   -0.44424  -0.44062  -0.43762  -0.43642  -0.43534
 Alpha  occ. eigenvalues --   -0.43304  -0.42854  -0.42751  -0.42664  -0.42334
 Alpha  occ. eigenvalues --   -0.42103  -0.41762  -0.41659  -0.41371  -0.41203
 Alpha  occ. eigenvalues --   -0.40179  -0.40122  -0.39857  -0.39827  -0.39303
 Alpha  occ. eigenvalues --   -0.39143  -0.39058  -0.38836  -0.38453  -0.38411
 Alpha  occ. eigenvalues --   -0.37818  -0.37240  -0.37048  -0.36861  -0.36743
 Alpha  occ. eigenvalues --   -0.36027  -0.35978  -0.35637  -0.34248  -0.33696
 Alpha  occ. eigenvalues --   -0.32645  -0.32140  -0.32026  -0.31460  -0.31347
 Alpha  occ. eigenvalues --   -0.28785  -0.27690  -0.24354  -0.19095
 Alpha virt. eigenvalues --   -0.05847  -0.00322   0.03711   0.05845   0.07340
 Alpha virt. eigenvalues --    0.07648   0.09458   0.10031   0.10409   0.10601
 Alpha virt. eigenvalues --    0.11680   0.11868   0.12487   0.12503   0.13138

 Mulliken charges:
               1
     1  O   -0.498594
     2  O   -0.539095
     3  O   -0.579415
     4  O   -0.581615
     5  C    0.163469
     6  C    0.289854
     7  C    0.040686
     8  C   -0.236869
     9  C   -0.185225
    10  C    0.145410
    11  C   -0.294401
    12  C   -0.085403
    13  C   -0.293726
    14  C   -0.304987
    15  C   -0.071522
    16  C    0.083816
    17  C   -0.352677
    18  C   -0.111474
    19  C   -0.050321
    20  C   -0.008798
    21  C    0.259092
    22  C   -0.207554
    23  C    0.170278
    24  C   -0.201537
    25  C   -0.017197
    26  C   -0.295706
    27  C   -0.286518
    28  C   -0.327561
    29  C   -0.114171
    30  C    0.143561
    31  C    0.073054
    32  C   -0.307094
    33  C   -0.368445
    34  C   -0.097052
    35  C    0.145949
    36  C   -0.370469
    37  C   -0.125395
    38  C   -0.114483
    39  C   -0.066915
    40  C   -0.044639
    41  C   -0.124078
    42  C   -0.109689
    43  C    0.117013
    44  C   -0.373775
    45  H    0.128893
    46  H    0.117846
    47  H    0.072089
    48  H    0.084151
    49  H    0.106481
    50  H    0.104356
    51  H    0.074846
    52  H    0.084628
    53  H    0.117100
    54  H    0.083726
    55  H    0.109588
    56  H    0.072139
    57  H    0.113443
    58  H    0.111519
    59  H    0.086314
    60  H    0.307791
    61  H    0.073755
    62  H    0.101565
    63  H    0.074982
    64  H    0.132675
    65  H    0.076738
    66  H    0.073393
    67  H    0.089085
    68  H    0.099904
    69  H    0.102770
    70  H    0.104840
    71  H    0.134595
    72  H    0.091360
    73  H    0.118867
    74  H    0.112835
    75  H    0.108631
    76  H    0.095945
    77  H    0.097489
    78  H    0.113119
    79  H    0.083179
    80  H    0.131226
    81  H    0.079736
    82  H    0.315050
    83  H    0.305645
    84  H    0.090767
    85  H    0.138426
    86  H    0.119441
    87  H    0.090482
    88  H    0.048173
    89  H    0.086164
    90  H    0.141780
    91  H    0.092031
    92  H    0.069453
    93  H    0.075552
    94  H    0.073774
    95  H    0.058316
    96  H    0.101177
    97  H    0.084367
    98  H    0.110080
    99  H    0.133086
   100  H    0.108854
 Sum of Mulliken charges =  -0.00000

 Dipole moment (field-independent basis, Debye):
    X=              4.0026    Y=             -0.7692    Z=              2.3805  Tot=              4.7201
 Quadrupole moment (field-independent basis, Debye-Ang):
   XX=           -250.3587   YY=           -260.7408   ZZ=           -276.7623
   XY=             -3.2933   XZ=             23.1839   YZ=             -5.7850

 Normal termination of Gaussian 16 at Tue Jul 30 17:40:22 2019.
