 Gaussian 16, Revision A.03,
 Gaussian 16:  ES64L-G16RevA.03 25-Dec-2016

 -------------------------------------
 # td=(NStates=1) CAM-B3LYP/6-31G(d,p)
 -------------------------------------

 --
 TD
 --
 Symbolic Z-matrix:
 Charge =  0 Multiplicity = 1

                         Standard orientation:
 ---------------------------------------------------------------------
 Center     Atomic      Atomic             Coordinates (Angstroms)
 Number     Number       Type             X           Y           Z
 ---------------------------------------------------------------------
      1          8           0      -11.725435    0.310232   -1.575627
      2          8           0      -13.026877   -2.512764    1.467130
      3          8           0       10.693582   -0.794599   -2.185225
      4          8           0       14.483210   -0.969885   -0.139244
      5          6           0      -11.039675   -0.187929   -0.382479
      6          6           0      -11.757919   -1.109570   -1.283589
      7          6           0      -11.784052    0.328447    0.877896
      8          6           0      -13.200169   -1.660224   -0.945634
      9          6           0      -13.178609   -0.055594    0.966247
     10          6           0      -13.520660   -1.467775    0.612339
     11          6           0      -10.920320   -1.967150   -2.213019
     12          6           0       -9.569931    0.051327   -0.521271
     13          6           0      -11.022632   -0.118855    2.194453
     14          6           0      -11.592466    1.841182    1.039361
     15          6           0       -8.565615   -0.665463    0.002575
     16          6           0       -7.163652   -0.535988    0.079028
     17          6           0       -6.334225   -1.799816    0.508222
     18          6           0       -6.601680    0.646493   -0.249868
     19          6           0       -5.264130    0.884165   -0.102869
     20          6           0       11.935893   -0.060620    1.401301
     21          6           0       11.692905   -0.451531   -1.305525
     22          6           0       12.650543   -1.431344    1.377803
     23          6           0       13.422976   -1.877286    0.096776
     24          6           0       12.419032   -1.798772   -0.998496
     25          6           0       11.139289    0.094743    0.099889
     26          6           0       10.882661   -0.008845    2.572488
     27          6           0       12.811032    1.160366    1.488122
     28          6           0       12.681529    0.664256   -1.927894
     29          6           0       -4.675879    2.167813   -0.434462
     30          6           0        9.934962    0.623158   -0.031912
     31          6           0       -3.322594    2.536932   -0.370049
     32          6           0        8.615762    0.954425   -0.045788
     33          6           0       -2.984179    3.922179   -0.439257
     34          6           0       -2.310669    1.577071   -0.434035
     35          6           0        7.465482    0.082480    0.081202
     36          6           0        7.589878   -1.416586    0.080505
     37          6           0        6.289762    0.731065    0.008038
     38          6           0       -1.032847    1.839601   -0.203124
     39          6           0        4.980215    0.044296    0.103994
     40          6           0        0.031362    0.981310   -0.126000
     41          6           0        3.738419    0.778648    0.130045
     42          6           0        1.374645    1.193522   -0.138747
     43          6           0        2.385178    0.284381   -0.005163
     44          6           0        2.170216   -1.246086    0.032967
     45          1           0      -13.223098   -2.760763   -1.165773
     46          1           0      -14.012859   -1.187004   -1.347208
     47          1           0      -13.614851    0.378071    1.883514
     48          1           0      -13.816235    0.479352    0.218463
     49          1           0      -14.638419   -1.379422    0.738412
     50          1           0      -10.174388   -2.892644   -1.573194
     51          1           0      -11.647850   -2.155742   -3.101469
     52          1           0      -10.097917   -1.207491   -2.354383
     53          1           0       -9.377228    0.971394   -0.931136
     54          1           0      -10.023371    0.417515    2.304780
     55          1           0      -11.586228   -0.000040    3.167460
     56          1           0      -10.918349   -1.279177    2.106200
     57          1           0      -12.047050    2.474660    0.119349
     58          1           0      -12.046411    2.384064    1.675752
     59          1           0      -10.499728    2.012085    1.107250
     60          1           0      -12.056529   -2.438449    1.216795
     61          1           0       -9.160931   -1.435253    0.783906
     62          1           0       -5.834753   -2.157547   -0.412027
     63          1           0       -5.748345   -1.564411    1.129788
     64          1           0       -6.963423   -2.550298    0.879206
     65          1           0       -7.175249    1.441560   -0.518428
     66          1           0       -4.439496    0.128220   -0.031526
     67          1           0       13.255922   -1.522763    2.324059
     68          1           0       11.991354   -2.256964    1.650649
     69          1           0       13.859801   -3.011782    0.163244
     70          1           0       12.814338   -2.064386   -1.966936
     71          1           0       11.684734   -2.592816   -0.955520
     72          1           0       11.293277    0.064989    3.567699
     73          1           0       10.561292    1.107781    2.569660
     74          1           0       10.267278   -0.863174    2.498485
     75          1           0       13.205486    1.119338    0.505788
     76          1           0       12.264387    2.097917    1.694713
     77          1           0       13.726188    0.934570    2.349320
     78          1           0       12.830204    0.319720   -2.937081
     79          1           0       12.006209    1.571991   -2.113224
     80          1           0       13.589541    0.887858   -1.129298
     81          1           0       -5.275927    3.178967   -0.694272
     82          1           0       10.192401    0.115468   -2.129491
     83          1           0       15.044962   -1.036057    0.632015
     84          1           0        8.533169    1.980651   -0.179995
     85          1           0       -2.256755    4.142132    0.390493
     86          1           0       -2.570331    3.979000   -1.564946
     87          1           0       -3.822338    4.654428   -0.399557
     88          1           0       -2.531950    0.438089   -0.382207
     89          1           0        6.712726   -2.041034   -0.134275
     90          1           0        8.354578   -1.734658   -0.604211
     91          1           0        8.002030   -1.710065    1.083309
     92          1           0        6.223789    1.837761   -0.062678
     93          1           0       -0.616062    2.933439   -0.362559
     94          1           0        4.813682   -1.044124    0.281952
     95          1           0       -0.322328   -0.115894   -0.018680
     96          1           0        3.575817    1.872166   -0.073629
     97          1           0        1.631429    2.133553   -0.301882
     98          1           0        1.218346   -1.212910    0.554091
     99          1           0        2.294662   -1.651354   -0.994512
    100          1           0        2.935922   -1.624945    0.743075
 ---------------------------------------------------------------------

 SCF Done:  E(RCAM-B3LYP) =  -1857.26328424     A.U. after   15 cycles

 Excitation energies and oscillator strengths:

 Excited State   1:      Singlet-A      1.9915 eV  622.58 nm  f=3.0501  <S**2>=0.000
     163 ->166        -0.12463
     164 ->165         0.70162
     164 <-165        -0.11277
 This state for optimization and/or second-order correction.
 Total Energy, E(TD-HF/TD-DFT) =  -1857.19009918
 Copying the excited state density for this state as the 1-particle RhoCI density.

 The electronic state is 1-A.
 Alpha  occ. eigenvalues --  -19.22492 -19.22427 -19.21963 -19.21848 -10.32851
 Alpha  occ. eigenvalues --  -10.32496 -10.32426 -10.31954 -10.30780 -10.28729
 Alpha  occ. eigenvalues --  -10.28229 -10.28063 -10.28059 -10.27968 -10.27617
 Alpha  occ. eigenvalues --  -10.27569 -10.27527 -10.27461 -10.27361 -10.27247
 Alpha  occ. eigenvalues --  -10.27132 -10.27092 -10.27063 -10.26891 -10.26890
 Alpha  occ. eigenvalues --  -10.26822 -10.26553 -10.26425 -10.26384 -10.26236
 Alpha  occ. eigenvalues --  -10.26145 -10.26034 -10.25983 -10.25961 -10.25735
 Alpha  occ. eigenvalues --  -10.25699 -10.25686 -10.25500 -10.25003 -10.24808
 Alpha  occ. eigenvalues --  -10.24625 -10.24482 -10.24013 -10.23818  -1.14146
 Alpha  occ. eigenvalues --   -1.11518  -1.11122  -1.08801  -0.93528  -0.92950
 Alpha  occ. eigenvalues --   -0.92495  -0.91766  -0.91428  -0.90983  -0.87376
 Alpha  occ. eigenvalues --   -0.86355  -0.85947  -0.85261  -0.84609  -0.83056
 Alpha  occ. eigenvalues --   -0.82077  -0.80975  -0.80279  -0.79289  -0.77977
 Alpha  occ. eigenvalues --   -0.77305  -0.76351  -0.76262  -0.76204  -0.75649
 Alpha  occ. eigenvalues --   -0.75300  -0.74692  -0.73365  -0.71218  -0.69703
 Alpha  occ. eigenvalues --   -0.68500  -0.67154  -0.65478  -0.64210  -0.63889
 Alpha  occ. eigenvalues --   -0.62913  -0.61864  -0.61260  -0.60789  -0.59973
 Alpha  occ. eigenvalues --   -0.58314  -0.58113  -0.57826  -0.57399  -0.56884
 Alpha  occ. eigenvalues --   -0.56518  -0.55702  -0.54844  -0.54786  -0.54272
 Alpha  occ. eigenvalues --   -0.53956  -0.52778  -0.52380  -0.52284  -0.52033
 Alpha  occ. eigenvalues --   -0.51597  -0.51034  -0.50901  -0.50590  -0.50337
 Alpha  occ. eigenvalues --   -0.50213  -0.50026  -0.49402  -0.49021  -0.48565
 Alpha  occ. eigenvalues --   -0.48323  -0.48022  -0.47811  -0.47243  -0.47217
 Alpha  occ. eigenvalues --   -0.46963  -0.46563  -0.46190  -0.45732  -0.45562
 Alpha  occ. eigenvalues --   -0.45465  -0.45285  -0.44372  -0.44039  -0.43788
 Alpha  occ. eigenvalues --   -0.43475  -0.43395  -0.43100  -0.42749  -0.42656
 Alpha  occ. eigenvalues --   -0.42436  -0.42021  -0.41954  -0.41721  -0.41390
 Alpha  occ. eigenvalues --   -0.41128  -0.41014  -0.40831  -0.40623  -0.40552
 Alpha  occ. eigenvalues --   -0.39550  -0.39248  -0.39215  -0.38805  -0.38702
 Alpha  occ. eigenvalues --   -0.38190  -0.38002  -0.37274  -0.37115  -0.37080
 Alpha  occ. eigenvalues --   -0.36516  -0.35591  -0.35391  -0.34889  -0.33782
 Alpha  occ. eigenvalues --   -0.32804  -0.32552  -0.32090  -0.31537  -0.30996
 Alpha  occ. eigenvalues --   -0.29883  -0.27900  -0.24651  -0.19285
 Alpha virt. eigenvalues --   -0.06879  -0.01065   0.03139   0.06594   0.07079
 Alpha virt. eigenvalues --    0.08405   0.09809   0.10176   0.10840   0.11590
 Alpha virt. eigenvalues --    0.12456   0.12798   0.13358   0.13707   0.14139

 Mulliken charges:
               1
     1  O   -0.499561
     2  O   -0.532412
     3  O   -0.545105
     4  O   -0.530312
     5  C    0.173570
     6  C    0.231301
     7  C    0.037320
     8  C   -0.208725
     9  C   -0.181471
    10  C    0.106389
    11  C   -0.306904
    12  C   -0.126938
    13  C   -0.295341
    14  C   -0.292947
    15  C   -0.071202
    16  C    0.040713
    17  C   -0.329331
    18  C   -0.062935
    19  C   -0.092145
    20  C    0.023360
    21  C    0.229612
    22  C   -0.210568
    23  C    0.151749
    24  C   -0.187840
    25  C   -0.052161
    26  C   -0.296923
    27  C   -0.259853
    28  C   -0.303854
    29  C   -0.131560
    30  C    0.025013
    31  C    0.106735
    32  C   -0.231833
    33  C   -0.376261
    34  C   -0.110599
    35  C    0.158323
    36  C   -0.382847
    37  C   -0.113663
    38  C   -0.075308
    39  C   -0.119324
    40  C   -0.098907
    41  C   -0.112553
    42  C   -0.086498
    43  C    0.071804
    44  C   -0.357677
    45  H    0.110097
    46  H    0.126925
    47  H    0.100487
    48  H    0.101654
    49  H    0.091980
    50  H    0.074855
    51  H    0.115449
    52  H    0.131919
    53  H    0.102629
    54  H    0.110055
    55  H    0.111980
    56  H    0.055807
    57  H    0.076492
    58  H    0.116472
    59  H    0.094236
    60  H    0.304552
    61  H    0.049555
    62  H    0.123268
    63  H    0.128747
    64  H    0.113484
    65  H    0.089833
    66  H    0.090655
    67  H    0.078155
    68  H    0.101024
    69  H    0.066219
    70  H    0.109832
    71  H    0.116665
    72  H    0.097442
    73  H    0.098478
    74  H    0.111423
    75  H    0.110920
    76  H    0.108625
    77  H    0.051392
    78  H    0.117506
    79  H    0.074811
    80  H    0.137418
    81  H    0.066874
    82  H    0.306280
    83  H    0.310528
    84  H    0.107620
    85  H    0.131519
    86  H    0.122206
    87  H    0.110300
    88  H    0.074918
    89  H    0.118542
    90  H    0.143119
    91  H    0.117267
    92  H    0.094628
    93  H    0.067454
    94  H    0.091073
    95  H    0.058811
    96  H    0.069564
    97  H    0.067430
    98  H    0.122218
    99  H    0.136113
   100  H    0.110164
 Sum of Mulliken charges =  -0.00000

 Dipole moment (field-independent basis, Debye):
    X=              3.7720    Y=              0.3767    Z=              2.2321  Tot=              4.3991
 Quadrupole moment (field-independent basis, Debye-Ang):
   XX=           -284.0429   YY=           -260.4519   ZZ=           -280.1024
   XY=            -19.3286   XZ=             29.4357   YZ=              0.3346

 Normal termination of Gaussian 16 at Mon Jul 29 03:38:27 2019.
