 Gaussian 16, Revision A.03,
 Gaussian 16:  ES64L-G16RevA.03 25-Dec-2016

 -------------------------------------
 # td=(NStates=1) CAM-B3LYP/6-31G(d,p)
 -------------------------------------

 --
 TD
 --
 Symbolic Z-matrix:
 Charge =  0 Multiplicity = 1

                         Standard orientation:
 ---------------------------------------------------------------------
 Center     Atomic      Atomic             Coordinates (Angstroms)
 Number     Number       Type             X           Y           Z
 ---------------------------------------------------------------------
      1          8           0      -11.837584    0.188296   -1.531707
      2          8           0      -13.215193   -2.517379    1.386498
      3          8           0       10.433970   -1.221979   -2.040417
      4          8           0       14.458852   -1.144723   -0.340812
      5          6           0      -11.081584   -0.130540   -0.348102
      6          6           0      -11.648678   -1.165361   -1.166055
      7          6           0      -11.866630    0.248057    0.898852
      8          6           0      -13.017914   -1.800815   -0.910247
      9          6           0      -13.320563   -0.074691    0.902518
     10          6           0      -13.617771   -1.488376    0.384820
     11          6           0      -10.699049   -2.006070   -2.042370
     12          6           0       -9.541571    0.053718   -0.336897
     13          6           0      -11.252717   -0.074458    2.275896
     14          6           0      -11.769602    1.755721    0.890557
     15          6           0       -8.535452   -0.777936    0.095011
     16          6           0       -7.214415   -0.548134    0.146791
     17          6           0       -6.304310   -1.717859    0.559958
     18          6           0       -6.707778    0.753409   -0.128811
     19          6           0       -5.276750    0.929473   -0.081187
     20          6           0       12.189169    0.106991    1.303684
     21          6           0       11.602393   -0.771139   -1.268130
     22          6           0       12.813314   -1.251638    1.495362
     23          6           0       13.358926   -1.906912    0.258795
     24          6           0       12.248398   -2.013228   -0.745600
     25          6           0       11.133532    0.082573    0.040393
     26          6           0       11.292097    0.391460    2.560769
     27          6           0       13.160094    1.234585    1.167022
     28          6           0       12.458225    0.055701   -2.125285
     29          6           0       -4.713875    2.209600   -0.385444
     30          6           0        9.927099    0.611286    0.130519
     31          6           0       -3.389532    2.561924   -0.557956
     32          6           0        8.693224    1.034573   -0.192491
     33          6           0       -3.009149    4.000229   -0.835980
     34          6           0       -2.322815    1.607935   -0.203024
     35          6           0        7.516409    0.146121    0.112449
     36          6           0        7.736996   -1.204536    0.479829
     37          6           0        6.275202    0.803400   -0.088187
     38          6           0       -1.020136    1.946146   -0.322282
     39          6           0        4.999928    0.161496    0.050639
     40          6           0       -0.030580    1.036008   -0.218996
     41          6           0        3.834367    0.906602   -0.184185
     42          6           0        1.395289    1.265470   -0.211545
     43          6           0        2.482570    0.481972   -0.018525
     44          6           0        2.345128   -0.985973    0.333264
     45          1           0      -13.159061   -2.913396   -0.807030
     46          1           0      -13.762496   -1.398778   -1.497479
     47          1           0      -13.639406    0.073658    1.763408
     48          1           0      -14.022533    0.597387    0.143498
     49          1           0      -14.813893   -1.614762    0.197862
     50          1           0      -10.319761   -3.149288   -1.724361
     51          1           0      -11.250904   -2.450000   -2.917050
     52          1           0      -10.028723   -1.367338   -2.340129
     53          1           0       -9.379799    1.183699   -0.599774
     54          1           0      -10.235597    0.185362    2.437051
     55          1           0      -11.918294    0.724791    3.013003
     56          1           0      -11.337079   -1.236733    2.494199
     57          1           0      -12.127237    2.134751   -0.216954
     58          1           0      -12.531230    2.056148    1.466291
     59          1           0      -10.784180    2.030330    0.992930
     60          1           0      -12.202340   -2.502982    1.173922
     61          1           0       -8.847228   -1.870891    0.340497
     62          1           0       -5.732162   -2.205057   -0.246182
     63          1           0       -5.831358   -1.465360    1.472238
     64          1           0       -7.182886   -2.327201    0.855878
     65          1           0       -7.285627    1.677837   -0.211491
     66          1           0       -4.709727   -0.027096   -0.071648
     67          1           0       13.349669   -1.088887    2.288500
     68          1           0       11.814947   -1.887065    1.743038
     69          1           0       13.529589   -3.028484    0.536715
     70          1           0       12.535420   -2.477102   -1.720100
     71          1           0       11.422934   -2.781256   -0.282584
     72          1           0       12.113599    0.575394    3.303604
     73          1           0       10.722921    1.352145    2.370041
     74          1           0       10.656394   -0.436764    2.771438
     75          1           0       13.864296    1.038106    0.481092
     76          1           0       12.579606    2.107778    1.151709
     77          1           0       13.720951    1.271470    2.212827
     78          1           0       12.699357   -0.200846   -3.199643
     79          1           0       12.096319    1.157272   -2.437500
     80          1           0       13.370990    0.158593   -1.465441
     81          1           0       -5.415265    2.937219   -0.498663
     82          1           0        9.926123   -0.366190   -2.077626
     83          1           0       15.181789   -1.172363    0.323818
     84          1           0        8.709892    2.175761   -0.433250
     85          1           0       -2.607041    4.523352    0.079849
     86          1           0       -2.344859    4.072578   -1.686009
     87          1           0       -3.976365    4.428839   -0.916756
     88          1           0       -2.421138    0.654130    0.115272
     89          1           0        6.761247   -1.852871    0.302592
     90          1           0        8.585822   -1.664093   -0.039961
     91          1           0        7.952160   -1.122024    1.503339
     92          1           0        6.399409    1.858668   -0.329225
     93          1           0       -0.746221    2.842824   -0.525917
     94          1           0        4.893166   -0.860779    0.195071
     95          1           0       -0.180550   -0.135706   -0.167496
     96          1           0        3.857755    2.047339   -0.247512
     97          1           0        1.611125    2.306212   -0.601598
     98          1           0        1.325423   -1.463966    0.047037
     99          1           0        3.282322   -1.425039   -0.142942
    100          1           0        2.380428   -0.913742    1.544142
 ---------------------------------------------------------------------

 SCF Done:  E(RCAM-B3LYP) =  -1857.24552351     A.U. after   16 cycles

 Excitation energies and oscillator strengths:

 Excited State   1:      Singlet-A      1.9102 eV  649.07 nm  f=2.9149  <S**2>=0.000
     163 ->166         0.12715
     164 ->165         0.70257
     164 <-165        -0.12118
 This state for optimization and/or second-order correction.
 Total Energy, E(TD-HF/TD-DFT) =  -1857.17532521
 Copying the excited state density for this state as the 1-particle RhoCI density.

 The electronic state is 1-A.
 Alpha  occ. eigenvalues --  -19.24065 -19.22842 -19.21123 -19.20763 -10.33026
 Alpha  occ. eigenvalues --  -10.32342 -10.31963 -10.31607 -10.30668 -10.28726
 Alpha  occ. eigenvalues --  -10.28519 -10.28032 -10.27844 -10.27687 -10.27648
 Alpha  occ. eigenvalues --  -10.27572 -10.27565 -10.27426 -10.27358 -10.27170
 Alpha  occ. eigenvalues --  -10.27147 -10.27113 -10.27078 -10.27073 -10.27008
 Alpha  occ. eigenvalues --  -10.26858 -10.26677 -10.26666 -10.26345 -10.26318
 Alpha  occ. eigenvalues --  -10.26308 -10.26052 -10.25960 -10.25811 -10.25741
 Alpha  occ. eigenvalues --  -10.25686 -10.25321 -10.25311 -10.24855 -10.24593
 Alpha  occ. eigenvalues --  -10.24381 -10.24249 -10.24189 -10.23094  -1.16479
 Alpha  occ. eigenvalues --   -1.10620  -1.07825  -1.06690  -0.93379  -0.92845
 Alpha  occ. eigenvalues --   -0.92441  -0.92008  -0.91696  -0.90665  -0.88198
 Alpha  occ. eigenvalues --   -0.87415  -0.86815  -0.85738  -0.84538  -0.83567
 Alpha  occ. eigenvalues --   -0.82405  -0.81615  -0.80364  -0.78907  -0.77362
 Alpha  occ. eigenvalues --   -0.77337  -0.76855  -0.76513  -0.76054  -0.75343
 Alpha  occ. eigenvalues --   -0.74968  -0.74833  -0.73246  -0.70542  -0.70006
 Alpha  occ. eigenvalues --   -0.68647  -0.66925  -0.65190  -0.64298  -0.64205
 Alpha  occ. eigenvalues --   -0.63210  -0.62402  -0.61719  -0.60686  -0.59563
 Alpha  occ. eigenvalues --   -0.59171  -0.58284  -0.57382  -0.57248  -0.56606
 Alpha  occ. eigenvalues --   -0.55927  -0.55628  -0.55167  -0.54978  -0.54304
 Alpha  occ. eigenvalues --   -0.53878  -0.53200  -0.52901  -0.52108  -0.52040
 Alpha  occ. eigenvalues --   -0.51706  -0.51500  -0.51001  -0.50989  -0.50636
 Alpha  occ. eigenvalues --   -0.50564  -0.50188  -0.49847  -0.49127  -0.49011
 Alpha  occ. eigenvalues --   -0.48453  -0.48257  -0.48050  -0.47910  -0.47274
 Alpha  occ. eigenvalues --   -0.46970  -0.46476  -0.45964  -0.45766  -0.45351
 Alpha  occ. eigenvalues --   -0.44825  -0.44384  -0.44331  -0.43822  -0.43505
 Alpha  occ. eigenvalues --   -0.43340  -0.43262  -0.43109  -0.42841  -0.42765
 Alpha  occ. eigenvalues --   -0.41895  -0.41791  -0.41504  -0.41360  -0.41221
 Alpha  occ. eigenvalues --   -0.41087  -0.41014  -0.40801  -0.40518  -0.40186
 Alpha  occ. eigenvalues --   -0.39806  -0.39601  -0.39488  -0.39244  -0.39114
 Alpha  occ. eigenvalues --   -0.38551  -0.38019  -0.37239  -0.37082  -0.36931
 Alpha  occ. eigenvalues --   -0.36891  -0.36137  -0.35677  -0.34466  -0.34051
 Alpha  occ. eigenvalues --   -0.33863  -0.32638  -0.32316  -0.31179  -0.30688
 Alpha  occ. eigenvalues --   -0.30116  -0.27872  -0.23902  -0.19159
 Alpha virt. eigenvalues --   -0.07075  -0.01628   0.02364   0.06055   0.07230
 Alpha virt. eigenvalues --    0.08613   0.09650   0.09895   0.11905   0.12215
 Alpha virt. eigenvalues --    0.12269   0.12623   0.12792   0.13451   0.13497

 Mulliken charges:
               1
     1  O   -0.495504
     2  O   -0.552360
     3  O   -0.573388
     4  O   -0.542213
     5  C    0.229302
     6  C    0.199149
     7  C   -0.008376
     8  C   -0.192143
     9  C   -0.119282
    10  C    0.094867
    11  C   -0.314124
    12  C   -0.156290
    13  C   -0.278618
    14  C   -0.287681
    15  C   -0.071580
    16  C    0.057044
    17  C   -0.368533
    18  C   -0.092841
    19  C   -0.077025
    20  C   -0.031840
    21  C    0.244605
    22  C   -0.144483
    23  C    0.140782
    24  C   -0.189352
    25  C   -0.043146
    26  C   -0.289599
    27  C   -0.272697
    28  C   -0.305845
    29  C   -0.118515
    30  C    0.043411
    31  C    0.050881
    32  C   -0.254278
    33  C   -0.367459
    34  C   -0.075171
    35  C    0.105292
    36  C   -0.381121
    37  C   -0.097210
    38  C   -0.029169
    39  C   -0.093835
    40  C   -0.091226
    41  C   -0.116805
    42  C   -0.147119
    43  C    0.118137
    44  C   -0.354074
    45  H    0.119167
    46  H    0.127239
    47  H    0.104662
    48  H    0.075988
    49  H    0.071317
    50  H    0.083327
    51  H    0.102867
    52  H    0.127801
    53  H    0.092673
    54  H    0.120132
    55  H    0.072865
    56  H    0.082814
    57  H    0.088996
    58  H    0.103002
    59  H    0.102792
    60  H    0.296549
    61  H    0.077247
    62  H    0.134194
    63  H    0.139110
    64  H    0.101296
    65  H    0.094085
    66  H    0.092945
    67  H    0.086536
    68  H    0.081093
    69  H    0.091070
    70  H    0.121325
    71  H    0.100945
    72  H    0.085212
    73  H    0.108366
    74  H    0.108766
    75  H    0.123491
    76  H    0.116613
    77  H    0.060318
    78  H    0.111937
    79  H    0.074080
    80  H    0.140722
    81  H    0.073350
    82  H    0.308285
    83  H    0.315392
    84  H    0.119053
    85  H    0.125795
    86  H    0.131887
    87  H    0.112275
    88  H    0.075716
    89  H    0.099595
    90  H    0.147531
    91  H    0.140383
    92  H    0.086355
    93  H    0.064483
    94  H    0.092366
    95  H    0.063023
    96  H    0.079503
    97  H    0.062865
    98  H    0.104832
    99  H    0.111524
   100  H    0.113677
 Sum of Mulliken charges =  -0.00000

 Dipole moment (field-independent basis, Debye):
    X=              6.5319    Y=              0.6151    Z=              2.1497  Tot=              6.9040
 Quadrupole moment (field-independent basis, Debye-Ang):
   XX=           -278.7306   YY=           -261.5111   ZZ=           -282.5626
   XY=             -9.9342   XZ=             35.0500   YZ=             -2.0431

 Normal termination of Gaussian 16 at Wed Jul 31 07:03:09 2019.
