 Gaussian 16, Revision A.03,
 Gaussian 16:  ES64L-G16RevA.03 25-Dec-2016

 -------------------------------------
 # td=(NStates=1) CAM-B3LYP/6-31G(d,p)
 -------------------------------------

 --
 TD
 --
 Symbolic Z-matrix:
 Charge =  0 Multiplicity = 1

                         Standard orientation:
 ---------------------------------------------------------------------
 Center     Atomic      Atomic             Coordinates (Angstroms)
 Number     Number       Type             X           Y           Z
 ---------------------------------------------------------------------
      1          8           0      -11.756276    0.266064   -1.464436
      2          8           0      -12.856720   -2.535014    1.437624
      3          8           0       10.682252   -0.904078   -2.195650
      4          8           0       14.494917   -1.030170    0.044840
      5          6           0      -10.962683   -0.082997   -0.280486
      6          6           0      -11.654392   -1.116058   -1.205157
      7          6           0      -11.727713    0.391239    0.962509
      8          6           0      -13.016115   -1.696285   -0.896552
      9          6           0      -13.282261   -0.104218    0.970059
     10          6           0      -13.493776   -1.478322    0.553609
     11          6           0      -10.915487   -1.905207   -2.314122
     12          6           0       -9.455944    0.089059   -0.463790
     13          6           0      -11.024450   -0.153232    2.274611
     14          6           0      -11.767894    1.872459    0.903058
     15          6           0       -8.568141   -0.816472    0.075845
     16          6           0       -7.159346   -0.670851    0.191081
     17          6           0       -6.256860   -1.732391    0.435646
     18          6           0       -6.645756    0.659209    0.015499
     19          6           0       -5.308828    0.947152   -0.071724
     20          6           0       11.801945    0.071255    1.425215
     21          6           0       11.657500   -0.582348   -1.172003
     22          6           0       12.507991   -1.292371    1.580437
     23          6           0       13.263303   -1.777811    0.355471
     24          6           0       12.359822   -1.887546   -0.881962
     25          6           0       11.049256    0.007962    0.016732
     26          6           0       10.845336    0.246340    2.542542
     27          6           0       12.802825    1.285835    1.377183
     28          6           0       12.643059    0.490987   -1.794804
     29          6           0       -4.775168    2.165512   -0.273178
     30          6           0        9.871392    0.554076   -0.083975
     31          6           0       -3.404429    2.619531   -0.386445
     32          6           0        8.605647    1.073400   -0.123024
     33          6           0       -3.011799    4.090771   -0.540173
     34          6           0       -2.259568    1.697082   -0.353140
     35          6           0        7.498299    0.097484   -0.054085
     36          6           0        7.798618   -1.448228    0.032104
     37          6           0        6.206527    0.701093   -0.111216
     38          6           0       -0.979774    1.839774   -0.312546
     39          6           0        4.995832    0.022459    0.032231
     40          6           0        0.025859    0.876650   -0.292007
     41          6           0        3.763307    0.758808   -0.131547
     42          6           0        1.406647    1.198679   -0.419674
     43          6           0        2.427524    0.250332   -0.224470
     44          6           0        2.284432   -1.202590    0.100314
     45          1           0      -12.956312   -2.831482   -1.069108
     46          1           0      -13.678129   -1.314105   -1.715048
     47          1           0      -13.532150    0.142496    1.907051
     48          1           0      -13.748695    0.492356    0.299161
     49          1           0      -14.626660   -1.613362    0.772322
     50          1           0      -10.587149   -2.911337   -1.893026
     51          1           0      -11.316107   -2.290110   -3.309375
     52          1           0      -10.148016   -1.079314   -2.625668
     53          1           0       -9.099816    0.891104   -0.959841
     54          1           0      -10.083133    0.238205    2.493466
     55          1           0      -11.785457    0.219203    3.090397
     56          1           0      -11.003861   -1.201723    2.373172
     57          1           0      -12.259569    2.208006    0.084923
     58          1           0      -12.319850    2.171730    1.566571
     59          1           0      -10.736846    2.381932    1.065908
     60          1           0      -11.896013   -2.430322    1.415922
     61          1           0       -9.090318   -1.817722    0.251345
     62          1           0       -5.783307   -2.281187   -0.498671
     63          1           0       -5.526817   -1.522913    1.141879
     64          1           0       -6.835512   -2.625869    0.689493
     65          1           0       -7.425451    1.471276   -0.201628
     66          1           0       -4.657446   -0.098363    0.175843
     67          1           0       13.235322   -1.321856    2.417445
     68          1           0       11.980484   -2.059128    1.954689
     69          1           0       13.615069   -2.934059    0.500983
     70          1           0       12.744058   -2.208352   -1.887419
     71          1           0       11.562648   -2.585028   -0.785436
     72          1           0       11.342289    0.054103    3.346147
     73          1           0       10.200488    1.128819    2.548284
     74          1           0       10.038661   -0.723033    2.455355
     75          1           0       13.594754    1.166313    0.671674
     76          1           0       12.281256    2.119239    1.235539
     77          1           0       13.328792    1.179556    2.462467
     78          1           0       13.084921    0.300487   -2.848371
     79          1           0       12.008019    1.387112   -2.164118
     80          1           0       13.619226    0.547342   -1.173456
     81          1           0       -5.745705    2.952553   -0.317562
     82          1           0       10.195181   -0.056618   -2.516207
     83          1           0       15.178656   -1.213562    0.687174
     84          1           0        8.326842    2.050694   -0.398215
     85          1           0       -2.621447    4.490318    0.458605
     86          1           0       -2.263122    4.285249   -1.234221
     87          1           0       -3.854580    4.742124   -0.652433
     88          1           0       -2.547609    0.582700   -0.459719
     89          1           0        6.742984   -1.808937   -0.211207
     90          1           0        8.570382   -1.553456   -0.700746
     91          1           0        8.009832   -1.907537    1.043336
     92          1           0        6.336301    1.801854   -0.165174
     93          1           0       -0.463307    2.835537   -0.466998
     94          1           0        4.842891   -1.129948    0.243506
     95          1           0       -0.179755   -0.138547   -0.215119
     96          1           0        3.946483    1.885879   -0.105329
     97          1           0        1.796749    2.288980   -0.524195
     98          1           0        1.242640   -1.471429   -0.102984
     99          1           0        3.006048   -1.968787   -0.549107
    100          1           0        2.559342   -1.652817    1.070311
 ---------------------------------------------------------------------

 SCF Done:  E(RCAM-B3LYP) =  -1857.28919881     A.U. after   16 cycles

 Excitation energies and oscillator strengths:

 Excited State   1:      Singlet-A      1.7806 eV  696.30 nm  f=3.1100  <S**2>=0.000
     163 ->166        -0.12730
     164 ->165         0.70358
     164 <-165        -0.12748
 This state for optimization and/or second-order correction.
 Total Energy, E(TD-HF/TD-DFT) =  -1857.22376217
 Copying the excited state density for this state as the 1-particle RhoCI density.

 The electronic state is 1-A.
 Alpha  occ. eigenvalues --  -19.22545 -19.21579 -19.21365 -19.20357 -10.33605
 Alpha  occ. eigenvalues --  -10.32299 -10.31986 -10.31825 -10.31221 -10.29061
 Alpha  occ. eigenvalues --  -10.28980 -10.28330 -10.28307 -10.28245 -10.27922
 Alpha  occ. eigenvalues --  -10.27690 -10.27665 -10.27396 -10.27375 -10.27363
 Alpha  occ. eigenvalues --  -10.27281 -10.27189 -10.27065 -10.26852 -10.26729
 Alpha  occ. eigenvalues --  -10.26607 -10.26595 -10.26466 -10.26428 -10.26369
 Alpha  occ. eigenvalues --  -10.26010 -10.25984 -10.25935 -10.25909 -10.25837
 Alpha  occ. eigenvalues --  -10.25619 -10.25545 -10.25529 -10.25258 -10.24889
 Alpha  occ. eigenvalues --  -10.24769 -10.24722 -10.23556 -10.22007  -1.14235
 Alpha  occ. eigenvalues --   -1.09517  -1.08159  -1.06261  -0.93660  -0.92502
 Alpha  occ. eigenvalues --   -0.91796  -0.90982  -0.90465  -0.89516  -0.87492
 Alpha  occ. eigenvalues --   -0.86884  -0.86356  -0.85799  -0.84560  -0.83354
 Alpha  occ. eigenvalues --   -0.82486  -0.81103  -0.79887  -0.78743  -0.77900
 Alpha  occ. eigenvalues --   -0.77251  -0.76941  -0.76476  -0.75921  -0.75811
 Alpha  occ. eigenvalues --   -0.75414  -0.74403  -0.72424  -0.70161  -0.69686
 Alpha  occ. eigenvalues --   -0.68251  -0.66680  -0.65521  -0.64911  -0.64159
 Alpha  occ. eigenvalues --   -0.63520  -0.62291  -0.60722  -0.59263  -0.59207
 Alpha  occ. eigenvalues --   -0.58763  -0.58341  -0.58006  -0.57100  -0.56748
 Alpha  occ. eigenvalues --   -0.56093  -0.55542  -0.54939  -0.54533  -0.54173
 Alpha  occ. eigenvalues --   -0.53351  -0.53251  -0.52715  -0.52331  -0.52079
 Alpha  occ. eigenvalues --   -0.51619  -0.50986  -0.50698  -0.49978  -0.49897
 Alpha  occ. eigenvalues --   -0.49783  -0.49239  -0.49058  -0.48717  -0.48228
 Alpha  occ. eigenvalues --   -0.47938  -0.47900  -0.47454  -0.47338  -0.46828
 Alpha  occ. eigenvalues --   -0.46607  -0.46288  -0.46155  -0.45648  -0.45110
 Alpha  occ. eigenvalues --   -0.44488  -0.44365  -0.44331  -0.44185  -0.43926
 Alpha  occ. eigenvalues --   -0.43800  -0.43554  -0.43237  -0.42898  -0.42749
 Alpha  occ. eigenvalues --   -0.42523  -0.41864  -0.41829  -0.41502  -0.41165
 Alpha  occ. eigenvalues --   -0.40717  -0.40519  -0.40412  -0.40293  -0.39886
 Alpha  occ. eigenvalues --   -0.39629  -0.39552  -0.38957  -0.38551  -0.38172
 Alpha  occ. eigenvalues --   -0.37923  -0.37782  -0.37645  -0.36953  -0.36688
 Alpha  occ. eigenvalues --   -0.36552  -0.35737  -0.34878  -0.34125  -0.33754
 Alpha  occ. eigenvalues --   -0.33331  -0.32652  -0.32046  -0.31395  -0.31267
 Alpha  occ. eigenvalues --   -0.29962  -0.27227  -0.23489  -0.18381
 Alpha virt. eigenvalues --   -0.07306  -0.01352   0.02481   0.06684   0.06898
 Alpha virt. eigenvalues --    0.09589   0.09910   0.10639   0.10988   0.11392
 Alpha virt. eigenvalues --    0.12001   0.12209   0.12632   0.13113   0.13593

 Mulliken charges:
               1
     1  O   -0.511729
     2  O   -0.574353
     3  O   -0.587057
     4  O   -0.557091
     5  C    0.201897
     6  C    0.230307
     7  C   -0.024687
     8  C   -0.200491
     9  C   -0.166691
    10  C    0.141494
    11  C   -0.329654
    12  C   -0.110796
    13  C   -0.305872
    14  C   -0.282003
    15  C   -0.092025
    16  C    0.114892
    17  C   -0.401503
    18  C   -0.109828
    19  C   -0.029703
    20  C    0.016591
    21  C    0.245786
    22  C   -0.176833
    23  C    0.128431
    24  C   -0.181563
    25  C   -0.055817
    26  C   -0.280978
    27  C   -0.274010
    28  C   -0.319063
    29  C   -0.148171
    30  C    0.115685
    31  C    0.075964
    32  C   -0.254601
    33  C   -0.373538
    34  C   -0.123463
    35  C    0.076481
    36  C   -0.355576
    37  C   -0.103939
    38  C   -0.054221
    39  C   -0.092879
    40  C   -0.080286
    41  C   -0.140741
    42  C   -0.128663
    43  C    0.133115
    44  C   -0.379159
    45  H    0.100600
    46  H    0.116549
    47  H    0.107223
    48  H    0.119281
    49  H    0.095875
    50  H    0.098028
    51  H    0.114073
    52  H    0.113346
    53  H    0.101369
    54  H    0.120891
    55  H    0.084612
    56  H    0.090481
    57  H    0.127377
    58  H    0.101727
    59  H    0.085703
    60  H    0.303315
    61  H    0.073370
    62  H    0.113490
    63  H    0.140203
    64  H    0.110628
    65  H    0.079402
    66  H    0.070728
    67  H    0.082059
    68  H    0.115725
    69  H    0.065564
    70  H    0.122795
    71  H    0.124032
    72  H    0.108555
    73  H    0.119102
    74  H    0.065798
    75  H    0.129931
    76  H    0.116280
    77  H    0.062652
    78  H    0.091919
    79  H    0.076642
    80  H    0.145329
    81  H    0.073012
    82  H    0.310989
    83  H    0.312547
    84  H    0.106666
    85  H    0.114447
    86  H    0.132948
    87  H    0.114960
    88  H    0.072147
    89  H    0.098650
    90  H    0.147715
    91  H    0.117576
    92  H    0.084150
    93  H    0.070409
    94  H    0.090096
    95  H    0.079957
    96  H    0.074938
    97  H    0.090518
    98  H    0.109016
    99  H    0.093834
   100  H    0.137111
 Sum of Mulliken charges =  -0.00000

 Dipole moment (field-independent basis, Debye):
    X=              5.3734    Y=             -0.0720    Z=              2.1104  Tot=              5.7734
 Quadrupole moment (field-independent basis, Debye-Ang):
   XX=           -258.1873   YY=           -259.3201   ZZ=           -277.5580
   XY=            -17.3583   XZ=             29.9367   YZ=             -2.3070

 Normal termination of Gaussian 16 at Mon Jul 29 08:16:14 2019.
