 Gaussian 16, Revision A.03,
 Gaussian 16:  ES64L-G16RevA.03 25-Dec-2016

 -------------------------------------
 # td=(NStates=1) CAM-B3LYP/6-31G(d,p)
 -------------------------------------

 --
 TD
 --
 Symbolic Z-matrix:
 Charge =  0 Multiplicity = 1

                         Standard orientation:
 ---------------------------------------------------------------------
 Center     Atomic      Atomic             Coordinates (Angstroms)
 Number     Number       Type             X           Y           Z
 ---------------------------------------------------------------------
      1          8           0      -11.710303    0.456135   -1.396972
      2          8           0      -13.242148   -2.570774    1.254238
      3          8           0       10.548724   -1.234198   -2.071947
      4          8           0       14.578615   -1.058935   -0.034546
      5          6           0      -11.007176   -0.120162   -0.279720
      6          6           0      -11.687235   -1.089497   -1.336885
      7          6           0      -11.687613    0.274966    0.993810
      8          6           0      -13.008605   -1.655165   -0.998412
      9          6           0      -13.167086   -0.055936    1.044341
     10          6           0      -13.644602   -1.474567    0.372466
     11          6           0      -10.743852   -1.726242   -2.349886
     12          6           0       -9.561432    0.061051   -0.388437
     13          6           0      -11.032511   -0.419626    2.342438
     14          6           0      -11.577108    1.790736    1.196397
     15          6           0       -8.626801   -0.795729    0.054942
     16          6           0       -7.136823   -0.570694    0.134794
     17          6           0       -6.238861   -1.786261    0.367063
     18          6           0       -6.587120    0.692309   -0.105365
     19          6           0       -5.192875    0.941193   -0.174003
     20          6           0       11.815820    0.055244    1.298380
     21          6           0       11.625495   -0.693763   -1.230049
     22          6           0       12.725242   -1.119273    1.559840
     23          6           0       13.479383   -1.781511    0.312060
     24          6           0       12.446145   -1.864729   -0.946421
     25          6           0       10.993650   -0.001133    0.025296
     26          6           0       10.982848    0.233391    2.611024
     27          6           0       12.757474    1.421273    1.190306
     28          6           0       12.535905    0.261381   -1.989408
     29          6           0       -4.757063    2.199893   -0.319752
     30          6           0        9.775993    0.455084   -0.167864
     31          6           0       -3.352782    2.594472   -0.337365
     32          6           0        8.621957    1.032202   -0.203534
     33          6           0       -3.023971    4.035549   -0.731793
     34          6           0       -2.375250    1.643948   -0.140537
     35          6           0        7.374047    0.117246    0.098551
     36          6           0        7.712917   -1.300932    0.494195
     37          6           0        6.214440    0.713876   -0.186750
     38          6           0       -0.934116    1.966917   -0.340435
     39          6           0        4.923497    0.066336   -0.034957
     40          6           0       -0.019346    0.901035   -0.151177
     41          6           0        3.729908    0.829350   -0.321441
     42          6           0        1.350423    1.159057   -0.337568
     43          6           0        2.414768    0.306347   -0.138506
     44          6           0        2.212647   -1.105913    0.286730
     45          1           0      -12.781627   -2.795366   -1.077315
     46          1           0      -13.839105   -1.194879   -1.737371
     47          1           0      -13.432513   -0.023885    1.826054
     48          1           0      -13.653658    0.653671    0.512948
     49          1           0      -14.781973   -1.490887    0.185688
     50          1           0      -10.462587   -2.847244   -1.903196
     51          1           0      -11.227765   -2.273808   -3.210617
     52          1           0       -9.751010   -1.128861   -2.693377
     53          1           0       -9.073939    0.993546   -0.904856
     54          1           0       -9.894996   -0.399338    2.235296
     55          1           0      -11.159057    0.269178    3.306612
     56          1           0      -11.449878   -1.547947    2.535952
     57          1           0      -11.687361    2.275609    0.407535
     58          1           0      -12.387510    2.072357    2.176924
     59          1           0      -10.424814    1.820186    1.686297
     60          1           0      -12.320981   -2.527902    1.225256
     61          1           0       -9.113748   -1.669754    0.484633
     62          1           0       -5.680040   -2.032006   -0.493014
     63          1           0       -5.544292   -1.788590    1.256959
     64          1           0       -6.828592   -2.628577    0.916108
     65          1           0       -7.168156    1.491666   -0.377280
     66          1           0       -4.507816    0.112578   -0.113937
     67          1           0       13.370028   -0.974579    2.420344
     68          1           0       12.013427   -1.899297    1.680412
     69          1           0       13.544099   -2.798923    0.642952
     70          1           0       13.163591   -2.253895   -1.756646
     71          1           0       11.778317   -2.723754   -0.615153
     72          1           0       11.487065    0.362496    3.570958
     73          1           0       10.303350    1.183295    2.552226
     74          1           0       10.534912   -0.675430    2.733151
     75          1           0       13.631979    1.335067    0.520100
     76          1           0       12.335284    2.369525    1.188979
     77          1           0       13.358750    1.435994    2.169458
     78          1           0       12.737299   -0.239538   -2.982976
     79          1           0       11.882093    1.263478   -2.214501
     80          1           0       13.577952    0.424685   -1.669878
     81          1           0       -5.549257    2.990770   -0.761975
     82          1           0        9.886121   -0.458764   -2.126100
     83          1           0       15.149022   -0.871375    0.748957
     84          1           0        8.354233    2.174014   -0.035615
     85          1           0       -2.052905    4.485508   -0.107204
     86          1           0       -2.822229    4.058108   -1.824724
     87          1           0       -3.724804    4.778993   -0.260308
     88          1           0       -2.710879    0.657017    0.202160
     89          1           0        6.846606   -1.996856    0.333131
     90          1           0        8.448032   -1.827805   -0.196317
     91          1           0        8.108169   -1.191583    1.534828
     92          1           0        6.284135    1.742274   -0.628598
     93          1           0       -0.593757    3.009233   -0.604693
     94          1           0        4.832020   -0.943464    0.572778
     95          1           0       -0.260469    0.044043    0.019489
     96          1           0        3.892468    1.830915   -0.652979
     97          1           0        1.542475    2.044388   -0.641737
     98          1           0        1.111317   -1.474183   -0.398907
     99          1           0        3.104385   -1.871150   -0.261199
    100          1           0        2.227504   -1.217099    1.563888
 ---------------------------------------------------------------------

 SCF Done:  E(RCAM-B3LYP) =  -1857.14356968     A.U. after   15 cycles

 Excitation energies and oscillator strengths:

 Excited State   1:      Singlet-A      2.4294 eV  510.36 nm  f=2.8767  <S**2>=0.000
     163 ->166        -0.14919
     164 ->165         0.68737
 This state for optimization and/or second-order correction.
 Total Energy, E(TD-HF/TD-DFT) =  -1857.05429205
 Copying the excited state density for this state as the 1-particle RhoCI density.

 The electronic state is 1-A.
 Alpha  occ. eigenvalues --  -19.22906 -19.21671 -19.21083 -19.20838 -10.33687
 Alpha  occ. eigenvalues --  -10.32196 -10.32130 -10.31385 -10.31350 -10.30981
 Alpha  occ. eigenvalues --  -10.29190 -10.29044 -10.28520 -10.28108 -10.28072
 Alpha  occ. eigenvalues --  -10.27962 -10.27866 -10.27740 -10.27620 -10.27574
 Alpha  occ. eigenvalues --  -10.27544 -10.27490 -10.27456 -10.27389 -10.26986
 Alpha  occ. eigenvalues --  -10.26748 -10.26701 -10.26667 -10.26564 -10.26440
 Alpha  occ. eigenvalues --  -10.26432 -10.26377 -10.26183 -10.26026 -10.25979
 Alpha  occ. eigenvalues --  -10.25806 -10.25703 -10.25221 -10.24948 -10.24913
 Alpha  occ. eigenvalues --  -10.24851 -10.24771 -10.24251 -10.21942  -1.12010
 Alpha  occ. eigenvalues --   -1.11704  -1.09717  -1.07335  -0.92404  -0.92164
 Alpha  occ. eigenvalues --   -0.91578  -0.90916  -0.90162  -0.89436  -0.87123
 Alpha  occ. eigenvalues --   -0.86737  -0.85725  -0.85649  -0.84568  -0.82554
 Alpha  occ. eigenvalues --   -0.81326  -0.80298  -0.79565  -0.77496  -0.77321
 Alpha  occ. eigenvalues --   -0.76514  -0.76269  -0.75992  -0.74991  -0.74687
 Alpha  occ. eigenvalues --   -0.74662  -0.73733  -0.72674  -0.70254  -0.69863
 Alpha  occ. eigenvalues --   -0.68844  -0.66748  -0.65568  -0.64894  -0.64681
 Alpha  occ. eigenvalues --   -0.63584  -0.62052  -0.61145  -0.59920  -0.59119
 Alpha  occ. eigenvalues --   -0.58693  -0.58178  -0.57525  -0.56857  -0.56752
 Alpha  occ. eigenvalues --   -0.55375  -0.54832  -0.54775  -0.53994  -0.53845
 Alpha  occ. eigenvalues --   -0.53291  -0.52824  -0.52551  -0.52268  -0.51286
 Alpha  occ. eigenvalues --   -0.50943  -0.50895  -0.50749  -0.50334  -0.50288
 Alpha  occ. eigenvalues --   -0.49871  -0.49394  -0.49247  -0.48871  -0.48256
 Alpha  occ. eigenvalues --   -0.47923  -0.47285  -0.47254  -0.47235  -0.47092
 Alpha  occ. eigenvalues --   -0.46652  -0.45975  -0.45025  -0.44920  -0.44777
 Alpha  occ. eigenvalues --   -0.44686  -0.44017  -0.43582  -0.43378  -0.43011
 Alpha  occ. eigenvalues --   -0.42733  -0.42658  -0.42577  -0.42227  -0.42162
 Alpha  occ. eigenvalues --   -0.41957  -0.41628  -0.41374  -0.41220  -0.41095
 Alpha  occ. eigenvalues --   -0.40808  -0.40687  -0.40285  -0.40019  -0.39728
 Alpha  occ. eigenvalues --   -0.39359  -0.39159  -0.38983  -0.38517  -0.38404
 Alpha  occ. eigenvalues --   -0.38171  -0.38038  -0.37760  -0.37423  -0.37128
 Alpha  occ. eigenvalues --   -0.36136  -0.35566  -0.35390  -0.34291  -0.33516
 Alpha  occ. eigenvalues --   -0.32614  -0.32218  -0.31877  -0.31528  -0.30379
 Alpha  occ. eigenvalues --   -0.28891  -0.28139  -0.24493  -0.20243
 Alpha virt. eigenvalues --   -0.05085  -0.00478   0.03441   0.04937   0.06884
 Alpha virt. eigenvalues --    0.08932   0.09723   0.10225   0.10327   0.10558
 Alpha virt. eigenvalues --    0.11995   0.12342   0.12551   0.12833   0.12951

 Mulliken charges:
               1
     1  O   -0.528562
     2  O   -0.538307
     3  O   -0.573438
     4  O   -0.524053
     5  C    0.197029
     6  C    0.268497
     7  C    0.016446
     8  C   -0.217088
     9  C   -0.095715
    10  C    0.115899
    11  C   -0.335553
    12  C   -0.105564
    13  C   -0.341136
    14  C   -0.261219
    15  C   -0.077120
    16  C    0.053266
    17  C   -0.382391
    18  C   -0.092599
    19  C   -0.043669
    20  C    0.020102
    21  C    0.254570
    22  C   -0.214013
    23  C    0.153126
    24  C   -0.201973
    25  C   -0.024786
    26  C   -0.301966
    27  C   -0.317266
    28  C   -0.302354
    29  C   -0.132693
    30  C    0.147729
    31  C    0.079242
    32  C   -0.309996
    33  C   -0.371341
    34  C   -0.113505
    35  C    0.075050
    36  C   -0.371223
    37  C   -0.093423
    38  C   -0.108238
    39  C   -0.118761
    40  C   -0.010868
    41  C   -0.112503
    42  C   -0.086842
    43  C    0.126270
    44  C   -0.343692
    45  H    0.104484
    46  H    0.110301
    47  H    0.073155
    48  H    0.104668
    49  H    0.103602
    50  H    0.078309
    51  H    0.120289
    52  H    0.140747
    53  H    0.091745
    54  H    0.110238
    55  H    0.099142
    56  H    0.081637
    57  H    0.129052
    58  H    0.069672
    59  H    0.077927
    60  H    0.297542
    61  H    0.073950
    62  H    0.139424
    63  H    0.115746
    64  H    0.100181
    65  H    0.076102
    66  H    0.090315
    67  H    0.089908
    68  H    0.095358
    69  H    0.086087
    70  H    0.113636
    71  H    0.096804
    72  H    0.101810
    73  H    0.096699
    74  H    0.109942
    75  H    0.112327
    76  H    0.114008
    77  H    0.067546
    78  H    0.107427
    79  H    0.066434
    80  H    0.142005
    81  H    0.081804
    82  H    0.306453
    83  H    0.313133
    84  H    0.118419
    85  H    0.087674
    86  H    0.137748
    87  H    0.120057
    88  H    0.088645
    89  H    0.104429
    90  H    0.139383
    91  H    0.128306
    92  H    0.083648
    93  H    0.101090
    94  H    0.095872
    95  H    0.036837
    96  H    0.085658
    97  H    0.050642
    98  H    0.076194
    99  H    0.091526
   100  H    0.108892
 Sum of Mulliken charges =  -0.00000

 Dipole moment (field-independent basis, Debye):
    X=              2.9730    Y=              0.5250    Z=              2.2562  Tot=              3.7690
 Quadrupole moment (field-independent basis, Debye-Ang):
   XX=           -275.9177   YY=           -263.4127   ZZ=           -276.7616
   XY=              2.8560   XZ=             43.9782   YZ=             -2.4658

 Normal termination of Gaussian 16 at Tue Jul 30 16:01:39 2019.
