 Gaussian 16, Revision A.03,
 Gaussian 16:  ES64L-G16RevA.03 25-Dec-2016

 -------------------------------------
 # td=(NStates=1) CAM-B3LYP/6-31G(d,p)
 -------------------------------------

 --
 TD
 --
 Symbolic Z-matrix:
 Charge =  0 Multiplicity = 1

                         Standard orientation:
 ---------------------------------------------------------------------
 Center     Atomic      Atomic             Coordinates (Angstroms)
 Number     Number       Type             X           Y           Z
 ---------------------------------------------------------------------
      1          8           0      -11.864820    0.332553   -1.428565
      2          8           0      -13.108320   -2.587505    1.183121
      3          8           0       10.624591   -0.796944   -2.096081
      4          8           0       14.489788   -0.960670   -0.231465
      5          6           0      -11.064360   -0.077079   -0.319152
      6          6           0      -11.635254   -1.057748   -1.248031
      7          6           0      -11.867314    0.222982    0.957280
      8          6           0      -12.998887   -1.695980   -1.093300
      9          6           0      -13.375924   -0.175620    0.884348
     10          6           0      -13.577368   -1.583169    0.407462
     11          6           0      -10.623388   -1.758729   -2.282650
     12          6           0       -9.578234    0.111005   -0.320479
     13          6           0      -11.342362   -0.368225    2.352789
     14          6           0      -11.762469    1.824972    1.092293
     15          6           0       -8.587000   -0.772463    0.189331
     16          6           0       -7.224507   -0.486969    0.254116
     17          6           0       -6.376727   -1.800517    0.418729
     18          6           0       -6.592953    0.748647   -0.011987
     19          6           0       -5.248489    0.961874   -0.026335
     20          6           0       11.903880   -0.036459    1.425782
     21          6           0       11.590799   -0.407218   -1.241774
     22          6           0       12.698311   -1.419404    1.381540
     23          6           0       13.367701   -1.749738    0.041755
     24          6           0       12.338141   -1.761614   -1.136380
     25          6           0       11.115757    0.040783    0.101314
     26          6           0       11.103644   -0.134681    2.739853
     27          6           0       12.995333    1.092163    1.555161
     28          6           0       12.536632    0.633748   -1.958285
     29          6           0       -4.732203    2.275841   -0.370770
     30          6           0        9.927233    0.556090    0.189477
     31          6           0       -3.419735    2.616500   -0.400921
     32          6           0        8.618531    0.938981    0.081246
     33          6           0       -3.004100    4.023467   -0.654815
     34          6           0       -2.285404    1.671535   -0.227693
     35          6           0        7.468650    0.027187    0.142139
     36          6           0        7.688127   -1.380507    0.104403
     37          6           0        6.296836    0.628728   -0.024141
     38          6           0       -0.912430    1.855982   -0.247433
     39          6           0        4.961401    0.071353   -0.217272
     40          6           0        0.094096    0.942926   -0.101985
     41          6           0        3.797353    0.868811   -0.182350
     42          6           0        1.386184    1.199157   -0.217723
     43          6           0        2.525461    0.262510   -0.133341
     44          6           0        2.377564   -1.122715    0.029203
     45          1           0      -12.990390   -2.653594   -1.345056
     46          1           0      -13.636104   -1.218682   -1.740108
     47          1           0      -13.839339   -0.129827    1.831462
     48          1           0      -13.779616    0.688046    0.155768
     49          1           0      -14.660693   -1.639287    0.169001
     50          1           0      -10.236292   -2.639116   -1.655673
     51          1           0      -11.276025   -2.086633   -3.109457
     52          1           0       -9.952706   -0.887438   -2.732126
     53          1           0       -9.243892    1.023478   -0.770434
     54          1           0      -10.164006   -0.054915    2.624833
     55          1           0      -11.925727    0.089692    3.311764
     56          1           0      -11.482715   -1.384108    2.296696
     57          1           0      -12.228509    2.201908    0.069943
     58          1           0      -12.235648    2.354051    1.948081
     59          1           0      -10.674944    2.236271    1.176002
     60          1           0      -12.175204   -2.524379    0.988694
     61          1           0       -8.877328   -1.697058    0.547697
     62          1           0       -6.063820   -2.478910   -0.800310
     63          1           0       -5.207791   -1.467024    0.901014
     64          1           0       -7.050167   -2.594939    1.124763
     65          1           0       -7.338920    1.595742    0.027958
     66          1           0       -4.582634    0.103599    0.209164
     67          1           0       13.278198   -1.640344    2.321080
     68          1           0       11.874826   -2.178578    1.292955
     69          1           0       13.755619   -2.788613    0.034061
     70          1           0       12.816211   -2.127913   -2.237691
     71          1           0       11.851927   -2.521176   -0.889507
     72          1           0       11.590400   -0.324009    3.722942
     73          1           0       10.532295    0.828201    2.957730
     74          1           0       10.223044   -0.838131    2.731231
     75          1           0       13.560312    1.247623    0.671245
     76          1           0       12.348617    2.089751    1.869026
     77          1           0       13.846626    0.719057    2.389250
     78          1           0       12.920269    0.076810   -2.771470
     79          1           0       12.050396    1.610596   -2.305593
     80          1           0       13.338139    1.027444   -1.457747
     81          1           0       -5.350484    3.299385   -0.293173
     82          1           0        9.898568   -0.105164   -2.014550
     83          1           0       15.092169   -0.997515    0.321589
     84          1           0        8.467844    2.107664    0.336368
     85          1           0       -2.456832    4.394537    0.156186
     86          1           0       -2.499703    4.104354   -1.543607
     87          1           0       -3.985166    4.561375   -0.709913
     88          1           0       -2.573614    0.629272   -0.143145
     89          1           0        6.710176   -1.917447   -0.206466
     90          1           0        8.478520   -1.484196   -0.611725
     91          1           0        7.937564   -2.084412    1.046778
     92          1           0        6.368391    1.842115    0.224333
     93          1           0       -0.594940    2.951879   -0.475067
     94          1           0        5.017427   -1.092446   -0.407522
     95          1           0       -0.061540   -0.232520   -0.142266
     96          1           0        3.852682    1.933796    0.018941
     97          1           0        1.562829    2.348558   -0.126208
     98          1           0        1.321027   -1.542886   -0.191935
     99          1           0        3.103804   -1.674152   -0.796549
    100          1           0        2.721788   -1.677718    0.996241
 ---------------------------------------------------------------------

 SCF Done:  E(RCAM-B3LYP) =  -1857.18682338     A.U. after   18 cycles

 Excitation energies and oscillator strengths:

 Excited State   1:      Singlet-A      1.5636 eV  792.96 nm  f=2.7291  <S**2>=0.000
     163 ->166         0.10343
     164 ->165         0.72109
     164 <-165        -0.18456
 This state for optimization and/or second-order correction.
 Total Energy, E(TD-HF/TD-DFT) =  -1857.12936370
 Copying the excited state density for this state as the 1-particle RhoCI density.

 The electronic state is 1-A.
 Alpha  occ. eigenvalues --  -19.22982 -19.22492 -19.21739 -19.19331 -10.32475
 Alpha  occ. eigenvalues --  -10.32222 -10.32150 -10.31799 -10.30787 -10.30683
 Alpha  occ. eigenvalues --  -10.29452 -10.29013 -10.28422 -10.28386 -10.28278
 Alpha  occ. eigenvalues --  -10.28243 -10.28121 -10.28114 -10.27919 -10.27745
 Alpha  occ. eigenvalues --  -10.27625 -10.27590 -10.27490 -10.27485 -10.27413
 Alpha  occ. eigenvalues --  -10.27393 -10.27268 -10.27237 -10.27198 -10.27192
 Alpha  occ. eigenvalues --  -10.27175 -10.27158 -10.26778 -10.26741 -10.26582
 Alpha  occ. eigenvalues --  -10.26545 -10.26170 -10.25872 -10.25809 -10.25168
 Alpha  occ. eigenvalues --  -10.24959 -10.24559 -10.23764 -10.22991  -1.16463
 Alpha  occ. eigenvalues --   -1.13843  -1.12882  -1.12411  -0.93237  -0.92750
 Alpha  occ. eigenvalues --   -0.92240  -0.91673  -0.90767  -0.89125  -0.88234
 Alpha  occ. eigenvalues --   -0.86268  -0.86006  -0.85236  -0.84976  -0.82784
 Alpha  occ. eigenvalues --   -0.81830  -0.80477  -0.79644  -0.79010  -0.77301
 Alpha  occ. eigenvalues --   -0.76554  -0.76337  -0.76076  -0.75750  -0.74896
 Alpha  occ. eigenvalues --   -0.74441  -0.73209  -0.72454  -0.70453  -0.69809
 Alpha  occ. eigenvalues --   -0.68964  -0.67601  -0.66168  -0.65766  -0.64625
 Alpha  occ. eigenvalues --   -0.64122  -0.62354  -0.60530  -0.60211  -0.59259
 Alpha  occ. eigenvalues --   -0.59216  -0.58826  -0.58081  -0.57533  -0.57017
 Alpha  occ. eigenvalues --   -0.55985  -0.55657  -0.54971  -0.54529  -0.54313
 Alpha  occ. eigenvalues --   -0.53807  -0.53083  -0.52920  -0.52222  -0.51791
 Alpha  occ. eigenvalues --   -0.51148  -0.50838  -0.50601  -0.50476  -0.49643
 Alpha  occ. eigenvalues --   -0.49503  -0.49122  -0.48845  -0.48512  -0.48295
 Alpha  occ. eigenvalues --   -0.48021  -0.47899  -0.47749  -0.47140  -0.46592
 Alpha  occ. eigenvalues --   -0.46068  -0.45914  -0.45546  -0.45323  -0.44985
 Alpha  occ. eigenvalues --   -0.44797  -0.44640  -0.44462  -0.44240  -0.43964
 Alpha  occ. eigenvalues --   -0.43774  -0.43465  -0.43298  -0.42586  -0.42254
 Alpha  occ. eigenvalues --   -0.41991  -0.41640  -0.41354  -0.41306  -0.41012
 Alpha  occ. eigenvalues --   -0.40886  -0.40776  -0.40717  -0.40201  -0.40105
 Alpha  occ. eigenvalues --   -0.40038  -0.39788  -0.39468  -0.39372  -0.38539
 Alpha  occ. eigenvalues --   -0.38293  -0.37887  -0.37466  -0.37377  -0.36884
 Alpha  occ. eigenvalues --   -0.35325  -0.35142  -0.34881  -0.34565  -0.34441
 Alpha  occ. eigenvalues --   -0.33172  -0.32498  -0.32182  -0.31881  -0.30854
 Alpha  occ. eigenvalues --   -0.29677  -0.28074  -0.24684  -0.18094
 Alpha virt. eigenvalues --   -0.08689  -0.01544   0.02415   0.04901   0.06305
 Alpha virt. eigenvalues --    0.08570   0.09431   0.09817   0.10190   0.10717
 Alpha virt. eigenvalues --    0.11075   0.12183   0.12427   0.12749   0.12990

 Mulliken charges:
               1
     1  O   -0.496590
     2  O   -0.500937
     3  O   -0.547626
     4  O   -0.508590
     5  C    0.242017
     6  C    0.169595
     7  C    0.009154
     8  C   -0.211087
     9  C   -0.167614
    10  C    0.126489
    11  C   -0.313464
    12  C   -0.132426
    13  C   -0.296244
    14  C   -0.318132
    15  C   -0.058364
    16  C    0.074238
    17  C   -0.303153
    18  C   -0.079873
    19  C   -0.081763
    20  C    0.028787
    21  C    0.258687
    22  C   -0.201993
    23  C    0.140601
    24  C   -0.157951
    25  C   -0.044729
    26  C   -0.314684
    27  C   -0.273415
    28  C   -0.297638
    29  C   -0.131921
    30  C    0.087115
    31  C    0.081325
    32  C   -0.281360
    33  C   -0.366255
    34  C   -0.107626
    35  C    0.154806
    36  C   -0.374383
    37  C   -0.094392
    38  C   -0.098416
    39  C   -0.117038
    40  C   -0.053370
    41  C   -0.099101
    42  C   -0.118353
    43  C    0.139724
    44  C   -0.389338
    45  H    0.100705
    46  H    0.126427
    47  H    0.107829
    48  H    0.101048
    49  H    0.095079
    50  H    0.105330
    51  H    0.111198
    52  H    0.122982
    53  H    0.106401
    54  H    0.077781
    55  H    0.094240
    56  H    0.092386
    57  H    0.104235
    58  H    0.101571
    59  H    0.086229
    60  H    0.309529
    61  H    0.071526
    62  H    0.064019
    63  H    0.078374
    64  H    0.094616
    65  H    0.091504
    66  H    0.100051
    67  H    0.091119
    68  H    0.092413
    69  H    0.066622
    70  H    0.087551
    71  H    0.113026
    72  H    0.109011
    73  H    0.093237
    74  H    0.105361
    75  H    0.135588
    76  H    0.078990
    77  H    0.064296
    78  H    0.114660
    79  H    0.077781
    80  H    0.126998
    81  H    0.084074
    82  H    0.300057
    83  H    0.267296
    84  H    0.106714
    85  H    0.133585
    86  H    0.139601
    87  H    0.090038
    88  H    0.067972
    89  H    0.094063
    90  H    0.131330
    91  H    0.110756
    92  H    0.061047
    93  H    0.074997
    94  H    0.088193
    95  H    0.068109
    96  H    0.099655
    97  H    0.072173
    98  H    0.107207
    99  H    0.099122
   100  H    0.129584
 Sum of Mulliken charges =  -0.00000

 Dipole moment (field-independent basis, Debye):
    X=              2.3893    Y=             -0.5942    Z=              2.1230  Tot=              3.2510
 Quadrupole moment (field-independent basis, Debye-Ang):
   XX=           -288.9973   YY=           -260.7504   ZZ=           -280.5073
   XY=             -7.6798   XZ=             31.9677   YZ=              0.3398

 Normal termination of Gaussian 16 at Sun Jul 28 23:25:08 2019.
