 Gaussian 16, Revision A.03,
 Gaussian 16:  ES64L-G16RevA.03 25-Dec-2016

 -------------------------------------
 # td=(NStates=1) CAM-B3LYP/6-31G(d,p)
 -------------------------------------

 --
 TD
 --
 Symbolic Z-matrix:
 Charge =  0 Multiplicity = 1

                         Standard orientation:
 ---------------------------------------------------------------------
 Center     Atomic      Atomic             Coordinates (Angstroms)
 Number     Number       Type             X           Y           Z
 ---------------------------------------------------------------------
      1          8           0      -11.698974    0.414596   -1.473178
      2          8           0      -12.968765   -2.563194    1.188243
      3          8           0       10.507759   -0.869771   -2.091623
      4          8           0       14.481523   -0.997057   -0.343384
      5          6           0      -11.092036   -0.017557   -0.237825
      6          6           0      -11.521672   -1.001420   -1.325423
      7          6           0      -11.855893    0.246686    0.992153
      8          6           0      -12.982019   -1.730897   -1.056519
      9          6           0      -13.373967   -0.175140    0.881739
     10          6           0      -13.581642   -1.584403    0.314792
     11          6           0      -10.660809   -1.757441   -2.185438
     12          6           0       -9.570219    0.113676   -0.264517
     13          6           0      -11.211391   -0.320047    2.320347
     14          6           0      -11.819068    1.833481    1.134047
     15          6           0       -8.639647   -0.667412    0.297291
     16          6           0       -7.237732   -0.515041    0.253646
     17          6           0       -6.326700   -1.747602    0.370462
     18          6           0       -6.686777    0.689414   -0.073692
     19          6           0       -5.332559    0.888221   -0.107283
     20          6           0       11.933137   -0.096126    1.487500
     21          6           0       11.595766   -0.543357   -1.214076
     22          6           0       12.756140   -1.444936    1.538279
     23          6           0       13.364980   -1.724803    0.120989
     24          6           0       12.319034   -1.773026   -1.010572
     25          6           0       11.050580    0.049804    0.137215
     26          6           0       10.950200   -0.197128    2.668182
     27          6           0       12.917424    1.046737    1.666484
     28          6           0       12.551339    0.543955   -1.924772
     29          6           0       -4.725683    2.108892   -0.291280
     30          6           0        9.930761    0.576765    0.194002
     31          6           0       -3.366030    2.529428   -0.277938
     32          6           0        8.697153    1.085951   -0.047947
     33          6           0       -3.051279    3.940622   -0.612435
     34          6           0       -2.311876    1.515396   -0.073745
     35          6           0        7.492739    0.265175   -0.015273
     36          6           0        7.723981   -1.271163    0.211685
     37          6           0        6.281036    0.811220   -0.139805
     38          6           0       -1.006508    1.809490   -0.164006
     39          6           0        4.982329    0.146254   -0.187626
     40          6           0        0.059059    0.952793   -0.211202
     41          6           0        3.840931    0.852590   -0.289042
     42          6           0        1.407828    1.248149   -0.228880
     43          6           0        2.568455    0.384809   -0.336417
     44          6           0        2.398678   -1.143705   -0.203389
     45          1           0      -12.891094   -2.862319   -1.394730
     46          1           0      -13.695127   -1.362900   -1.661158
     47          1           0      -13.797460   -0.092911    1.848477
     48          1           0      -13.878803    0.496848    0.223667
     49          1           0      -14.666204   -1.770442    0.201500
     50          1           0      -10.335738   -2.732920   -1.825682
     51          1           0      -11.131059   -2.049915   -3.124495
     52          1           0       -9.687094   -1.301200   -2.493355
     53          1           0       -9.316066    1.008984   -0.686528
     54          1           0      -10.285417    0.032834    2.484439
     55          1           0      -11.687096   -0.062875    3.223529
     56          1           0      -10.943218   -1.423226    2.325307
     57          1           0      -12.395420    2.247797    0.406039
     58          1           0      -12.124320    2.222069    2.126810
     59          1           0      -10.815983    2.066801    0.983972
     60          1           0      -11.989103   -2.624297    1.049406
     61          1           0       -9.009105   -1.635197    0.562976
     62          1           0       -5.555403   -1.830427   -0.465449
     63          1           0       -5.666143   -1.726994    1.375805
     64          1           0       -7.072229   -2.686647    0.596662
     65          1           0       -7.304895    1.475996   -0.457636
     66          1           0       -4.771309   -0.055219    0.335653
     67          1           0       13.477527   -1.363167    2.422807
     68          1           0       11.930788   -2.251024    1.708400
     69          1           0       13.695661   -2.797739    0.008113
     70          1           0       12.822172   -2.033505   -1.990232
     71          1           0       11.553821   -2.440513   -0.933578
     72          1           0       11.467772   -0.276816    3.585821
     73          1           0       10.114904    0.703277    2.909420
     74          1           0       10.337360   -1.252305    2.538653
     75          1           0       13.542573    1.106097    0.666402
     76          1           0       12.407311    1.894084    1.693643
     77          1           0       13.508769    0.956370    2.651483
     78          1           0       12.824435    0.270256   -2.924493
     79          1           0       12.034631    1.645465   -2.044484
     80          1           0       13.506436    0.658187   -1.122731
     81          1           0       -5.517979    2.964325   -0.733641
     82          1           0       10.105469   -0.032565   -2.562294
     83          1           0       15.100924   -1.015301    0.348171
     84          1           0        8.618093    2.104598   -0.189922
     85          1           0       -2.682113    4.480218    0.346479
     86          1           0       -2.466032    4.034511   -1.455294
     87          1           0       -3.817294    4.612790   -1.073894
     88          1           0       -2.596876    0.558197   -0.102280
     89          1           0        6.708626   -1.659680    0.049627
     90          1           0        8.254894   -1.829113   -0.363611
     91          1           0        7.873441   -1.360226    1.214264
     92          1           0        6.198284    1.896492   -0.168534
     93          1           0       -0.785107    2.895747   -0.215168
     94          1           0        5.100273   -0.975548    0.020006
     95          1           0       -0.269205   -0.134798    0.037915
     96          1           0        4.076825    1.935598   -0.204174
     97          1           0        1.522140    2.420675    0.077612
     98          1           0        1.260933   -1.537587   -0.359265
     99          1           0        2.826017   -1.420049   -1.195013
    100          1           0        2.902198   -1.537198    0.825880
 ---------------------------------------------------------------------

 SCF Done:  E(RCAM-B3LYP) =  -1857.32175894     A.U. after   15 cycles

 Excitation energies and oscillator strengths:

 Excited State   1:      Singlet-A      1.9130 eV  648.10 nm  f=3.0481  <S**2>=0.000
     163 ->166        -0.11943
     164 ->165         0.70457
     164 <-165        -0.12484
 This state for optimization and/or second-order correction.
 Total Energy, E(TD-HF/TD-DFT) =  -1857.25145651
 Copying the excited state density for this state as the 1-particle RhoCI density.

 The electronic state is 1-A.
 Alpha  occ. eigenvalues --  -19.22754 -19.22669 -19.21365 -19.19883 -10.32432
 Alpha  occ. eigenvalues --  -10.32146 -10.31976 -10.31925 -10.30317 -10.28831
 Alpha  occ. eigenvalues --  -10.28829 -10.28489 -10.28163 -10.27978 -10.27866
 Alpha  occ. eigenvalues --  -10.27833 -10.27792 -10.27641 -10.27307 -10.27152
 Alpha  occ. eigenvalues --  -10.26863 -10.26592 -10.26573 -10.26471 -10.26254
 Alpha  occ. eigenvalues --  -10.26132 -10.26116 -10.26092 -10.25881 -10.25800
 Alpha  occ. eigenvalues --  -10.25639 -10.25608 -10.25515 -10.25447 -10.25399
 Alpha  occ. eigenvalues --  -10.25394 -10.25310 -10.25144 -10.25050 -10.24421
 Alpha  occ. eigenvalues --  -10.24192 -10.23826 -10.23307 -10.22956  -1.14898
 Alpha  occ. eigenvalues --   -1.12302  -1.07935  -1.07114  -0.92682  -0.92590
 Alpha  occ. eigenvalues --   -0.91890  -0.91136  -0.90102  -0.89681  -0.87608
 Alpha  occ. eigenvalues --   -0.86871  -0.86047  -0.85777  -0.85075  -0.83001
 Alpha  occ. eigenvalues --   -0.82211  -0.80861  -0.79770  -0.78841  -0.77601
 Alpha  occ. eigenvalues --   -0.77020  -0.76148  -0.76092  -0.75818  -0.75226
 Alpha  occ. eigenvalues --   -0.74823  -0.74794  -0.72333  -0.70675  -0.70311
 Alpha  occ. eigenvalues --   -0.68820  -0.66706  -0.65637  -0.65014  -0.63588
 Alpha  occ. eigenvalues --   -0.63132  -0.61903  -0.60841  -0.60209  -0.59548
 Alpha  occ. eigenvalues --   -0.58854  -0.58702  -0.58263  -0.56997  -0.56213
 Alpha  occ. eigenvalues --   -0.55613  -0.54896  -0.54451  -0.54177  -0.53810
 Alpha  occ. eigenvalues --   -0.53608  -0.52851  -0.52620  -0.52577  -0.52040
 Alpha  occ. eigenvalues --   -0.51273  -0.51121  -0.50564  -0.50558  -0.50113
 Alpha  occ. eigenvalues --   -0.49298  -0.49243  -0.48784  -0.48512  -0.48369
 Alpha  occ. eigenvalues --   -0.48167  -0.47740  -0.47622  -0.47406  -0.46771
 Alpha  occ. eigenvalues --   -0.46610  -0.46245  -0.46091  -0.45853  -0.45092
 Alpha  occ. eigenvalues --   -0.44868  -0.44413  -0.44394  -0.44277  -0.43953
 Alpha  occ. eigenvalues --   -0.43496  -0.43152  -0.42918  -0.42657  -0.42499
 Alpha  occ. eigenvalues --   -0.42104  -0.41954  -0.41373  -0.41286  -0.41117
 Alpha  occ. eigenvalues --   -0.40808  -0.40567  -0.40382  -0.39910  -0.39673
 Alpha  occ. eigenvalues --   -0.39545  -0.39336  -0.39258  -0.39065  -0.38376
 Alpha  occ. eigenvalues --   -0.38007  -0.37795  -0.37517  -0.37470  -0.36965
 Alpha  occ. eigenvalues --   -0.36488  -0.35989  -0.35453  -0.34753  -0.33195
 Alpha  occ. eigenvalues --   -0.32824  -0.32441  -0.31908  -0.31085  -0.30894
 Alpha  occ. eigenvalues --   -0.30184  -0.27569  -0.24279  -0.18709
 Alpha virt. eigenvalues --   -0.06917  -0.00535   0.03297   0.06465   0.08686
 Alpha virt. eigenvalues --    0.10044   0.10068   0.10841   0.11867   0.12139
 Alpha virt. eigenvalues --    0.12480   0.12984   0.13666   0.13741   0.13928

 Mulliken charges:
               1
     1  O   -0.512135
     2  O   -0.565587
     3  O   -0.586898
     4  O   -0.525437
     5  C    0.197381
     6  C    0.268821
     7  C   -0.003736
     8  C   -0.211219
     9  C   -0.167005
    10  C    0.149510
    11  C   -0.371419
    12  C   -0.100508
    13  C   -0.307625
    14  C   -0.312199
    15  C   -0.071193
    16  C    0.083804
    17  C   -0.376413
    18  C   -0.073166
    19  C   -0.068189
    20  C    0.010256
    21  C    0.266154
    22  C   -0.190282
    23  C    0.135737
    24  C   -0.184335
    25  C   -0.109753
    26  C   -0.292848
    27  C   -0.285352
    28  C   -0.312278
    29  C   -0.138559
    30  C    0.179660
    31  C    0.077072
    32  C   -0.237715
    33  C   -0.382604
    34  C   -0.088452
    35  C    0.079827
    36  C   -0.351047
    37  C   -0.115258
    38  C   -0.064645
    39  C   -0.083247
    40  C   -0.083059
    41  C   -0.096542
    42  C   -0.129990
    43  C    0.066184
    44  C   -0.349645
    45  H    0.085802
    46  H    0.116447
    47  H    0.107360
    48  H    0.100828
    49  H    0.096879
    50  H    0.116929
    51  H    0.119631
    52  H    0.123957
    53  H    0.096128
    54  H    0.116709
    55  H    0.111855
    56  H    0.073089
    57  H    0.125589
    58  H    0.096618
    59  H    0.105669
    60  H    0.306147
    61  H    0.061774
    62  H    0.136591
    63  H    0.109886
    64  H    0.090942
    65  H    0.083824
    66  H    0.077524
    67  H    0.092834
    68  H    0.099931
    69  H    0.081657
    70  H    0.114978
    71  H    0.124344
    72  H    0.101127
    73  H    0.086409
    74  H    0.079791
    75  H    0.095129
    76  H    0.120494
    77  H    0.085487
    78  H    0.113885
    79  H    0.059936
    80  H    0.122470
    81  H    0.062437
    82  H    0.317240
    83  H    0.306459
    84  H    0.098522
    85  H    0.121897
    86  H    0.138944
    87  H    0.109163
    88  H    0.075243
    89  H    0.083459
    90  H    0.140577
    91  H    0.133812
    92  H    0.071915
    93  H    0.076451
    94  H    0.089320
    95  H    0.070120
    96  H    0.084784
    97  H    0.072915
    98  H    0.092326
    99  H    0.130491
   100  H    0.119209
 Sum of Mulliken charges =  -0.00000

 Dipole moment (field-independent basis, Debye):
    X=              4.2527    Y=             -0.0985    Z=              1.2424  Tot=              4.4316
 Quadrupole moment (field-independent basis, Debye-Ang):
   XX=           -261.6970   YY=           -261.4220   ZZ=           -272.2724
   XY=             -7.0833   XZ=             30.9593   YZ=              0.2798

 Normal termination of Gaussian 16 at Tue Jul 30 08:38:14 2019.
