 Gaussian 16, Revision A.03,
 Gaussian 16:  ES64L-G16RevA.03 25-Dec-2016

 -------------------------------------
 # td=(NStates=1) CAM-B3LYP/6-31G(d,p)
 -------------------------------------

 --
 TD
 --
 Symbolic Z-matrix:
 Charge =  0 Multiplicity = 1

                         Standard orientation:
 ---------------------------------------------------------------------
 Center     Atomic      Atomic             Coordinates (Angstroms)
 Number     Number       Type             X           Y           Z
 ---------------------------------------------------------------------
      1          8           0      -11.815523   -0.031040   -1.690675
      2          8           0      -12.791594   -2.255125    1.732422
      3          8           0       10.646740   -1.096794   -2.057675
      4          8           0       14.403494   -0.824453   -0.194019
      5          6           0      -11.103364   -0.133646   -0.414781
      6          6           0      -11.663609   -1.377335   -1.074331
      7          6           0      -11.793535    0.538144    0.789252
      8          6           0      -12.951585   -1.925978   -0.726591
      9          6           0      -13.183365    0.037533    0.851702
     10          6           0      -13.503203   -1.438680    0.780618
     11          6           0      -10.845898   -2.221239   -2.109303
     12          6           0       -9.628918    0.088094   -0.518022
     13          6           0      -11.054609    0.412015    2.060906
     14          6           0      -11.694164    2.035510    0.279791
     15          6           0       -8.727967   -0.667762    0.034668
     16          6           0       -7.236491   -0.621044    0.154421
     17          6           0       -6.442235   -1.771627    0.737740
     18          6           0       -6.619361    0.673630    0.056006
     19          6           0       -5.232836    0.929480   -0.001373
     20          6           0       11.872697    0.135355    1.273942
     21          6           0       11.543041   -0.651696   -1.273267
     22          6           0       12.719623   -1.146677    1.495836
     23          6           0       13.417333   -1.771720    0.284291
     24          6           0       12.354971   -1.960302   -0.856565
     25          6           0       11.031959    0.084284   -0.062478
     26          6           0       11.026204    0.407238    2.571980
     27          6           0       12.778471    1.346219    1.133892
     28          6           0       12.506426    0.285573   -2.104072
     29          6           0       -4.789478    2.189266   -0.389983
     30          6           0        9.903828    0.539988   -0.092384
     31          6           0       -3.418259    2.545689   -0.509685
     32          6           0        8.529291    0.870345   -0.156978
     33          6           0       -3.089248    3.913806   -0.965093
     34          6           0       -2.355080    1.601515   -0.047857
     35          6           0        7.421306    0.069198    0.109673
     36          6           0        7.677002   -1.364037    0.449066
     37          6           0        6.263478    0.661577   -0.004822
     38          6           0       -0.868427    1.815795   -0.179480
     39          6           0        5.036053    0.013519    0.071705
     40          6           0        0.069737    0.908204   -0.045795
     41          6           0        3.861131    0.691545   -0.032497
     42          6           0        1.472307    1.088971   -0.166863
     43          6           0        2.549630    0.213756   -0.042158
     44          6           0        2.227181   -1.271811    0.170856
     45          1           0      -12.868705   -3.112455   -0.525007
     46          1           0      -13.638434   -1.844016   -1.461396
     47          1           0      -13.666777    0.626137    1.843271
     48          1           0      -13.631741    0.470052   -0.006125
     49          1           0      -14.583816   -1.776290    0.867309
     50          1           0      -10.530870   -3.326673   -1.610608
     51          1           0      -11.367789   -2.387461   -3.050968
     52          1           0       -9.866546   -1.746794   -2.336138
     53          1           0       -9.360808    0.924937   -1.110836
     54          1           0      -10.088008    0.773744    2.021755
     55          1           0      -11.672757    0.920144    2.925300
     56          1           0      -11.040063   -0.618937    2.441881
     57          1           0      -12.155837    2.177371   -0.810242
     58          1           0      -12.233438    2.750474    1.063793
     59          1           0      -10.613967    2.214377    0.230577
     60          1           0      -11.775679   -2.266556    1.627044
     61          1           0       -9.117710   -1.522432    0.347292
     62          1           0       -5.982544   -2.445358   -0.107370
     63          1           0       -5.704943   -1.400860    1.306745
     64          1           0       -6.992973   -2.571231    1.120971
     65          1           0       -7.314474    1.509785    0.057633
     66          1           0       -4.460349    0.074063    0.116455
     67          1           0       13.408144   -0.804216    2.295888
     68          1           0       11.947090   -1.802318    1.895291
     69          1           0       13.787244   -2.774300    0.571810
     70          1           0       13.086231   -2.183880   -1.727923
     71          1           0       11.595271   -2.805076   -0.660597
     72          1           0       11.880884    0.161686    3.341619
     73          1           0       10.505224    1.440472    2.673843
     74          1           0       10.082324   -0.077751    2.750981
     75          1           0       13.791111    1.003214    0.727414
     76          1           0       12.281941    2.247328    0.719677
     77          1           0       13.172093    1.709140    2.086336
     78          1           0       12.539167   -0.183793   -3.111504
     79          1           0       11.735266    1.137390   -2.299293
     80          1           0       13.549768    0.531012   -1.542929
     81          1           0       -5.414733    2.895467   -0.617008
     82          1           0        9.966313   -0.441919   -2.165740
     83          1           0       15.087773   -0.560929    0.652545
     84          1           0        8.424746    1.962580   -0.369541
     85          1           0       -2.558059    4.519758   -0.131153
     86          1           0       -2.086757    3.876126   -1.742269
     87          1           0       -3.961244    4.495873   -1.402665
     88          1           0       -2.582634    0.570861    0.297835
     89          1           0        6.956643   -2.200058    0.378532
     90          1           0        8.494344   -1.722522   -0.145445
     91          1           0        7.970735   -1.474178    1.442463
     92          1           0        6.394669    1.748244   -0.008338
     93          1           0       -0.446874    2.731869   -0.258347
     94          1           0        4.943874   -1.129904    0.148824
     95          1           0       -0.261691   -0.157185    0.093755
     96          1           0        3.832805    1.737877   -0.225941
     97          1           0        1.992420    2.212703   -0.345186
     98          1           0        1.191476   -1.546256    0.138590
     99          1           0        2.662352   -1.709419   -0.893721
    100          1           0        2.795132   -1.806777    0.968642
 ---------------------------------------------------------------------

 SCF Done:  E(RCAM-B3LYP) =  -1857.30597012     A.U. after   15 cycles

 Excitation energies and oscillator strengths:

 Excited State   1:      Singlet-A      2.1829 eV  567.98 nm  f=2.8269  <S**2>=0.000
     163 ->166        -0.14652
     164 ->165         0.68793
 This state for optimization and/or second-order correction.
 Total Energy, E(TD-HF/TD-DFT) =  -1857.22575050
 Copying the excited state density for this state as the 1-particle RhoCI density.

 The electronic state is 1-A.
 Alpha  occ. eigenvalues --  -19.24147 -19.21764 -19.21533 -19.21354 -10.32498
 Alpha  occ. eigenvalues --  -10.32446 -10.32183 -10.32051 -10.31260 -10.28777
 Alpha  occ. eigenvalues --  -10.28766 -10.28673 -10.28346 -10.28108 -10.27783
 Alpha  occ. eigenvalues --  -10.27630 -10.27625 -10.27533 -10.27527 -10.26971
 Alpha  occ. eigenvalues --  -10.26958 -10.26868 -10.26664 -10.26645 -10.26473
 Alpha  occ. eigenvalues --  -10.26445 -10.26428 -10.26259 -10.26184 -10.26106
 Alpha  occ. eigenvalues --  -10.25903 -10.25843 -10.25711 -10.25676 -10.25658
 Alpha  occ. eigenvalues --  -10.25656 -10.25583 -10.25414 -10.25365 -10.25018
 Alpha  occ. eigenvalues --  -10.24753 -10.24653 -10.24239 -10.24187  -1.16181
 Alpha  occ. eigenvalues --   -1.12856  -1.08446  -1.07598  -0.93556  -0.92414
 Alpha  occ. eigenvalues --   -0.92380  -0.91615  -0.91099  -0.89859  -0.88004
 Alpha  occ. eigenvalues --   -0.86328  -0.86008  -0.85346  -0.84475  -0.83330
 Alpha  occ. eigenvalues --   -0.82349  -0.80373  -0.79694  -0.78322  -0.77050
 Alpha  occ. eigenvalues --   -0.76623  -0.76370  -0.76020  -0.75612  -0.75338
 Alpha  occ. eigenvalues --   -0.74713  -0.73949  -0.73177  -0.70929  -0.70190
 Alpha  occ. eigenvalues --   -0.68847  -0.67827  -0.65701  -0.65226  -0.63710
 Alpha  occ. eigenvalues --   -0.63656  -0.61668  -0.61137  -0.61029  -0.60745
 Alpha  occ. eigenvalues --   -0.59981  -0.59041  -0.58398  -0.57392  -0.56775
 Alpha  occ. eigenvalues --   -0.56319  -0.55582  -0.55323  -0.54624  -0.54308
 Alpha  occ. eigenvalues --   -0.53464  -0.52946  -0.52782  -0.52636  -0.51937
 Alpha  occ. eigenvalues --   -0.51272  -0.50911  -0.50645  -0.49887  -0.49713
 Alpha  occ. eigenvalues --   -0.49169  -0.49109  -0.48879  -0.48381  -0.48084
 Alpha  occ. eigenvalues --   -0.47930  -0.47522  -0.47226  -0.47155  -0.46760
 Alpha  occ. eigenvalues --   -0.46552  -0.46509  -0.45672  -0.45544  -0.45197
 Alpha  occ. eigenvalues --   -0.44916  -0.44563  -0.44519  -0.44102  -0.43946
 Alpha  occ. eigenvalues --   -0.43584  -0.43452  -0.43064  -0.42742  -0.42420
 Alpha  occ. eigenvalues --   -0.42172  -0.41802  -0.41475  -0.41355  -0.41131
 Alpha  occ. eigenvalues --   -0.41044  -0.40853  -0.40565  -0.40344  -0.40290
 Alpha  occ. eigenvalues --   -0.40006  -0.39654  -0.39073  -0.38875  -0.38479
 Alpha  occ. eigenvalues --   -0.38224  -0.37954  -0.37787  -0.37347  -0.37267
 Alpha  occ. eigenvalues --   -0.36265  -0.36205  -0.35085  -0.34702  -0.34349
 Alpha  occ. eigenvalues --   -0.32898  -0.32530  -0.31829  -0.31199  -0.30621
 Alpha  occ. eigenvalues --   -0.30062  -0.27881  -0.23673  -0.19939
 Alpha virt. eigenvalues --   -0.05905  -0.01522   0.03172   0.06201   0.07047
 Alpha virt. eigenvalues --    0.09056   0.09497   0.10274   0.11564   0.12123
 Alpha virt. eigenvalues --    0.12345   0.12561   0.13054   0.13534   0.13667

 Mulliken charges:
               1
     1  O   -0.523334
     2  O   -0.562492
     3  O   -0.512847
     4  O   -0.544873
     5  C    0.211733
     6  C    0.211589
     7  C    0.021735
     8  C   -0.226504
     9  C   -0.169880
    10  C    0.162220
    11  C   -0.305427
    12  C   -0.119353
    13  C   -0.293567
    14  C   -0.305568
    15  C   -0.052461
    16  C    0.064453
    17  C   -0.364743
    18  C   -0.130416
    19  C   -0.059962
    20  C    0.019361
    21  C    0.262327
    22  C   -0.211434
    23  C    0.170911
    24  C   -0.207993
    25  C   -0.102537
    26  C   -0.297509
    27  C   -0.292810
    28  C   -0.304809
    29  C   -0.085870
    30  C    0.115549
    31  C    0.105484
    32  C   -0.281895
    33  C   -0.379714
    34  C   -0.140390
    35  C    0.190832
    36  C   -0.392841
    37  C   -0.108387
    38  C   -0.065157
    39  C   -0.108014
    40  C   -0.073955
    41  C   -0.103682
    42  C   -0.151344
    43  C    0.140460
    44  C   -0.367356
    45  H    0.090561
    46  H    0.124659
    47  H    0.060283
    48  H    0.122939
    49  H    0.110456
    50  H    0.061131
    51  H    0.127708
    52  H    0.123610
    53  H    0.102867
    54  H    0.118918
    55  H    0.094199
    56  H    0.087086
    57  H    0.123020
    58  H    0.086180
    59  H    0.104463
    60  H    0.311200
    61  H    0.053604
    62  H    0.101355
    63  H    0.135957
    64  H    0.124410
    65  H    0.091565
    66  H    0.093697
    67  H    0.077774
    68  H    0.107512
    69  H    0.092963
    70  H    0.110961
    71  H    0.104108
    72  H    0.086617
    73  H    0.097538
    74  H    0.106639
    75  H    0.088540
    76  H    0.111939
    77  H    0.085332
    78  H    0.104085
    79  H    0.056146
    80  H    0.136963
    81  H    0.070032
    82  H    0.297734
    83  H    0.309540
    84  H    0.104685
    85  H    0.129607
    86  H    0.098361
    87  H    0.114509
    88  H    0.081288
    89  H    0.111165
    90  H    0.124314
    91  H    0.133311
    92  H    0.085793
    93  H    0.073091
    94  H    0.090447
    95  H    0.072296
    96  H    0.072993
    97  H    0.052263
    98  H    0.118533
    99  H    0.093442
   100  H    0.120080
 Sum of Mulliken charges =  -0.00000

 Dipole moment (field-independent basis, Debye):
    X=              3.0615    Y=             -0.6074    Z=              2.4570  Tot=              3.9722
 Quadrupole moment (field-independent basis, Debye-Ang):
   XX=           -275.3757   YY=           -259.5913   ZZ=           -282.5661
   XY=             -5.7446   XZ=             35.3525   YZ=             -2.2209

 Normal termination of Gaussian 16 at Wed Jul 31 23:57:30 2019.
