 Gaussian 16, Revision A.03,
 Gaussian 16:  ES64L-G16RevA.03 25-Dec-2016

 -------------------------------------
 # td=(NStates=1) CAM-B3LYP/6-31G(d,p)
 -------------------------------------

 --
 TD
 --
 Symbolic Z-matrix:
 Charge =  0 Multiplicity = 1

                         Standard orientation:
 ---------------------------------------------------------------------
 Center     Atomic      Atomic             Coordinates (Angstroms)
 Number     Number       Type             X           Y           Z
 ---------------------------------------------------------------------
      1          8           0      -11.644743    0.095934   -1.724335
      2          8           0      -13.127390   -2.177960    1.657954
      3          8           0       10.455614   -1.383799   -1.853810
      4          8           0       14.375087   -0.974112   -0.215427
      5          6           0      -11.025265   -0.228641   -0.384938
      6          6           0      -11.641600   -1.290544   -1.171468
      7          6           0      -11.776322    0.472344    0.761878
      8          6           0      -13.012078   -1.911460   -0.761977
      9          6           0      -13.247757    0.098315    0.731760
     10          6           0      -13.607297   -1.442810    0.560235
     11          6           0      -10.853629   -2.312238   -1.962705
     12          6           0       -9.569651    0.050988   -0.407521
     13          6           0      -11.091920    0.208882    2.060202
     14          6           0      -11.712054    2.024220    0.454599
     15          6           0       -8.684811   -0.780142    0.199770
     16          6           0       -7.248937   -0.663245    0.319598
     17          6           0       -6.374615   -1.787407    0.732420
     18          6           0       -6.615161    0.568660    0.087889
     19          6           0       -5.261683    0.755956   -0.066599
     20          6           0       11.979347    0.199905    1.194900
     21          6           0       11.588230   -0.808186   -1.176592
     22          6           0       12.673717   -1.075417    1.627646
     23          6           0       13.347709   -1.729363    0.399805
     24          6           0       12.249144   -2.083650   -0.681678
     25          6           0       11.130255    0.059334    0.029274
     26          6           0       11.159057    0.626428    2.450229
     27          6           0       13.087320    1.318630    0.962973
     28          6           0       12.438535    0.038493   -2.154676
     29          6           0       -4.801093    2.011078   -0.285942
     30          6           0        9.967605    0.521369   -0.020534
     31          6           0       -3.425454    2.459754   -0.495750
     32          6           0        8.745264    0.885039   -0.315541
     33          6           0       -3.193567    3.938384   -0.800026
     34          6           0       -2.427876    1.547239   -0.286263
     35          6           0        7.464790    0.191106   -0.001220
     36          6           0        7.622609   -1.266742    0.457325
     37          6           0        6.325980    0.744373   -0.315393
     38          6           0       -0.972365    1.901809   -0.489722
     39          6           0        4.980722    0.235224    0.036232
     40          6           0        0.029443    1.030786   -0.102278
     41          6           0        3.779994    0.893602   -0.226520
     42          6           0        1.469781    1.300638   -0.230109
     43          6           0        2.526325    0.400647   -0.030735
     44          6           0        2.487049   -0.955935    0.356763
     45          1           0      -13.003939   -3.032215   -0.462332
     46          1           0      -13.604093   -1.681204   -1.547735
     47          1           0      -13.820573    0.644717    1.566502
     48          1           0      -13.620960    0.402035   -0.408148
     49          1           0      -14.660469   -1.326694    0.628051
     50          1           0      -10.450732   -3.165220   -1.467656
     51          1           0      -11.463492   -2.524509   -2.671690
     52          1           0      -10.013910   -1.694248   -2.227383
     53          1           0       -9.174703    0.837641   -1.139645
     54          1           0       -9.946692    0.615187    2.320465
     55          1           0      -11.594672    0.805639    2.849971
     56          1           0      -10.992879   -0.769460    2.528097
     57          1           0      -12.019995    2.213763   -0.595199
     58          1           0      -12.372638    2.543198    1.024387
     59          1           0      -10.838177    2.326857    0.849020
     60          1           0      -12.176361   -2.372346    1.488465
     61          1           0       -8.983559   -1.615216    0.811791
     62          1           0       -6.004337   -2.596160   -0.215797
     63          1           0       -5.505736   -1.392460    1.413643
     64          1           0       -6.950174   -2.571206    1.271840
     65          1           0       -7.342055    1.327290    0.070998
     66          1           0       -4.543723   -0.042698    0.211990
     67          1           0       13.465049   -0.735975    2.368100
     68          1           0       12.120566   -1.961214    2.119965
     69          1           0       13.743964   -2.664938    0.843578
     70          1           0       12.719001   -2.494299   -1.614045
     71          1           0       11.556100   -2.823995   -0.254070
     72          1           0       11.714344    0.519642    3.228644
     73          1           0       10.708885    1.566113    2.563367
     74          1           0       10.356864   -0.171207    2.737180
     75          1           0       13.937712    1.111427    0.424181
     76          1           0       12.599994    2.024807    0.541595
     77          1           0       13.528722    1.590203    2.008240
     78          1           0       12.621071   -0.645132   -2.967140
     79          1           0       12.080859    0.913689   -2.430258
     80          1           0       13.480606    0.066370   -1.603697
     81          1           0       -5.585586    2.785645   -0.541692
     82          1           0        9.792151   -0.794856   -1.978300
     83          1           0       14.968359   -0.747970    0.371183
     84          1           0        8.568333    1.912695   -0.574101
     85          1           0       -2.542830    4.408567    0.029827
     86          1           0       -2.390115    3.906265   -1.624030
     87          1           0       -4.056254    4.403388   -0.938365
     88          1           0       -2.582835    0.550488    0.109024
     89          1           0        6.588213   -1.684792    0.900995
     90          1           0        8.041783   -1.967504   -0.461121
     91          1           0        8.377276   -1.273237    1.394435
     92          1           0        6.254156    1.826425   -0.530724
     93          1           0       -0.653049    2.882923   -0.464295
     94          1           0        4.906645   -0.910117    0.142324
     95          1           0       -0.187615   -0.061797    0.007666
     96          1           0        3.984396    1.876117   -0.566478
     97          1           0        1.845719    2.347838   -0.423332
     98          1           0        1.663182   -1.364235    0.783194
     99          1           0        2.870684   -1.575279   -0.402683
    100          1           0        3.060556   -1.113775    1.254262
 ---------------------------------------------------------------------

 SCF Done:  E(RCAM-B3LYP) =  -1857.32109724     A.U. after   15 cycles

 Excitation energies and oscillator strengths:

 Excited State   1:      Singlet-A      2.4821 eV  499.51 nm  f=2.8308  <S**2>=0.000
     163 ->166        -0.16227
     164 ->165         0.68440
 This state for optimization and/or second-order correction.
 Total Energy, E(TD-HF/TD-DFT) =  -1857.22988199
 Copying the excited state density for this state as the 1-particle RhoCI density.

 The electronic state is 1-A.
 Alpha  occ. eigenvalues --  -19.22152 -19.22134 -19.21437 -19.19094 -10.32559
 Alpha  occ. eigenvalues --  -10.31566 -10.31559 -10.31503 -10.30166 -10.28188
 Alpha  occ. eigenvalues --  -10.28158 -10.28061 -10.27521 -10.27430 -10.27361
 Alpha  occ. eigenvalues --  -10.27319 -10.27280 -10.26969 -10.26881 -10.26860
 Alpha  occ. eigenvalues --  -10.26821 -10.26744 -10.26664 -10.26641 -10.26630
 Alpha  occ. eigenvalues --  -10.26571 -10.26401 -10.26228 -10.26055 -10.26049
 Alpha  occ. eigenvalues --  -10.25828 -10.25775 -10.25714 -10.25658 -10.25636
 Alpha  occ. eigenvalues --  -10.25447 -10.25286 -10.25232 -10.23733 -10.23603
 Alpha  occ. eigenvalues --  -10.23462 -10.23430 -10.22508 -10.22466  -1.13569
 Alpha  occ. eigenvalues --   -1.11838  -1.09805  -1.09555  -0.94209  -0.93113
 Alpha  occ. eigenvalues --   -0.92301  -0.90895  -0.90547  -0.89941  -0.87178
 Alpha  occ. eigenvalues --   -0.86917  -0.86336  -0.86111  -0.85046  -0.82882
 Alpha  occ. eigenvalues --   -0.82455  -0.81278  -0.80532  -0.79112  -0.77839
 Alpha  occ. eigenvalues --   -0.77276  -0.76370  -0.76246  -0.75802  -0.75641
 Alpha  occ. eigenvalues --   -0.75138  -0.74729  -0.73336  -0.70840  -0.70528
 Alpha  occ. eigenvalues --   -0.68879  -0.66913  -0.66311  -0.65836  -0.64342
 Alpha  occ. eigenvalues --   -0.63814  -0.62634  -0.61190  -0.60201  -0.59826
 Alpha  occ. eigenvalues --   -0.59216  -0.58963  -0.58647  -0.57956  -0.56287
 Alpha  occ. eigenvalues --   -0.55971  -0.55828  -0.54681  -0.54543  -0.54319
 Alpha  occ. eigenvalues --   -0.53779  -0.53402  -0.52964  -0.52675  -0.52112
 Alpha  occ. eigenvalues --   -0.51920  -0.51211  -0.51003  -0.50541  -0.50429
 Alpha  occ. eigenvalues --   -0.50085  -0.49929  -0.49575  -0.48439  -0.48104
 Alpha  occ. eigenvalues --   -0.47897  -0.47479  -0.47207  -0.47051  -0.46955
 Alpha  occ. eigenvalues --   -0.46653  -0.46474  -0.46351  -0.46164  -0.45717
 Alpha  occ. eigenvalues --   -0.45029  -0.44608  -0.44543  -0.43958  -0.43626
 Alpha  occ. eigenvalues --   -0.43427  -0.43176  -0.42843  -0.42638  -0.42520
 Alpha  occ. eigenvalues --   -0.42094  -0.41551  -0.41450  -0.41195  -0.41081
 Alpha  occ. eigenvalues --   -0.40985  -0.40745  -0.40531  -0.40414  -0.40269
 Alpha  occ. eigenvalues --   -0.39771  -0.39406  -0.39299  -0.38874  -0.38727
 Alpha  occ. eigenvalues --   -0.38633  -0.37933  -0.37750  -0.37515  -0.37349
 Alpha  occ. eigenvalues --   -0.36732  -0.36405  -0.35387  -0.34839  -0.33787
 Alpha  occ. eigenvalues --   -0.32892  -0.32508  -0.31928  -0.31105  -0.30102
 Alpha  occ. eigenvalues --   -0.29720  -0.28351  -0.24121  -0.20684
 Alpha virt. eigenvalues --   -0.05111  -0.01001   0.03671   0.06453   0.07787
 Alpha virt. eigenvalues --    0.09809   0.10085   0.10973   0.11232   0.12509
 Alpha virt. eigenvalues --    0.12568   0.13155   0.13496   0.13788   0.14098

 Mulliken charges:
               1
     1  O   -0.527296
     2  O   -0.541032
     3  O   -0.563547
     4  O   -0.505219
     5  C    0.191477
     6  C    0.214807
     7  C    0.044808
     8  C   -0.244749
     9  C   -0.203715
    10  C    0.164534
    11  C   -0.303024
    12  C   -0.130265
    13  C   -0.325027
    14  C   -0.308011
    15  C   -0.057747
    16  C    0.074721
    17  C   -0.362528
    18  C   -0.105925
    19  C   -0.047751
    20  C   -0.009255
    21  C    0.239781
    22  C   -0.190889
    23  C    0.124310
    24  C   -0.175686
    25  C   -0.040280
    26  C   -0.298699
    27  C   -0.290898
    28  C   -0.316446
    29  C   -0.130379
    30  C    0.181843
    31  C    0.088818
    32  C   -0.316522
    33  C   -0.355173
    34  C   -0.119133
    35  C    0.146044
    36  C   -0.354307
    37  C   -0.124586
    38  C   -0.094158
    39  C   -0.114305
    40  C   -0.098980
    41  C   -0.120647
    42  C   -0.146941
    43  C    0.169051
    44  C   -0.402894
    45  H    0.106944
    46  H    0.132505
    47  H    0.087265
    48  H    0.082951
    49  H    0.108926
    50  H    0.109774
    51  H    0.122387
    52  H    0.123114
    53  H    0.121130
    54  H    0.082844
    55  H    0.102475
    56  H    0.102002
    57  H    0.130360
    58  H    0.105054
    59  H    0.105061
    60  H    0.304542
    61  H    0.066799
    62  H    0.080042
    63  H    0.115452
    64  H    0.105166
    65  H    0.084161
    66  H    0.091499
    67  H    0.081475
    68  H    0.097089
    69  H    0.074656
    70  H    0.113901
    71  H    0.119429
    72  H    0.104201
    73  H    0.109106
    74  H    0.083919
    75  H    0.113090
    76  H    0.115353
    77  H    0.076427
    78  H    0.108994
    79  H    0.103464
    80  H    0.139095
    81  H    0.075392
    82  H    0.286024
    83  H    0.289603
    84  H    0.099401
    85  H    0.121205
    86  H    0.124384
    87  H    0.116968
    88  H    0.089463
    89  H    0.093484
    90  H    0.121111
    91  H    0.103985
    92  H    0.074625
    93  H    0.088394
    94  H    0.076585
    95  H    0.084348
    96  H    0.075869
    97  H    0.079716
    98  H    0.108500
    99  H    0.136803
   100  H    0.129308
 Sum of Mulliken charges =  -0.00000

 Dipole moment (field-independent basis, Debye):
    X=              3.6420    Y=             -0.0671    Z=              2.9104  Tot=              4.6625
 Quadrupole moment (field-independent basis, Debye-Ang):
   XX=           -263.5295   YY=           -257.8520   ZZ=           -279.2628
   XY=              8.9179   XZ=             31.1330   YZ=             -3.1904

 Normal termination of Gaussian 16 at Wed Jul 31 10:25:52 2019.
