 Gaussian 16, Revision A.03,
 Gaussian 16:  ES64L-G16RevA.03 25-Dec-2016

 -------------------------------------
 # td=(NStates=1) CAM-B3LYP/6-31G(d,p)
 -------------------------------------

 --
 TD
 --
 Symbolic Z-matrix:
 Charge =  0 Multiplicity = 1

                         Standard orientation:
 ---------------------------------------------------------------------
 Center     Atomic      Atomic             Coordinates (Angstroms)
 Number     Number       Type             X           Y           Z
 ---------------------------------------------------------------------
      1          8           0      -11.721826    0.148109   -1.584280
      2          8           0      -13.075094   -2.301562    1.657224
      3          8           0       10.714821   -1.213850   -2.071326
      4          8           0       14.530489   -1.082342    0.053497
      5          6           0      -11.058463   -0.199538   -0.299801
      6          6           0      -11.655554   -1.271973   -1.108402
      7          6           0      -11.737171    0.379064    0.918258
      8          6           0      -12.965611   -1.909109   -0.825968
      9          6           0      -13.168620    0.011031    0.911802
     10          6           0      -13.456798   -1.457580    0.584050
     11          6           0      -10.772282   -2.095893   -2.043314
     12          6           0       -9.534921    0.119349   -0.413685
     13          6           0      -11.019360   -0.118068    2.165010
     14          6           0      -11.689101    1.853397    0.722575
     15          6           0       -8.664358   -0.837563   -0.026826
     16          6           0       -7.191349   -0.625238    0.060922
     17          6           0       -6.307048   -1.879386    0.360239
     18          6           0       -6.611549    0.648457   -0.202722
     19          6           0       -5.275667    0.861277   -0.109919
     20          6           0       11.916217    0.087364    1.452023
     21          6           0       11.792660   -0.676098   -1.251191
     22          6           0       12.519582   -1.317320    1.665294
     23          6           0       13.391781   -1.887680    0.431673
     24          6           0       12.525441   -2.046528   -0.870333
     25          6           0       11.132484    0.049581   -0.013007
     26          6           0       10.860210    0.400754    2.452248
     27          6           0       12.904753    1.399507    1.383268
     28          6           0       12.601984    0.321518   -2.140028
     29          6           0       -4.766318    2.090809   -0.442343
     30          6           0        9.886796    0.512247   -0.009066
     31          6           0       -3.414298    2.597007   -0.362544
     32          6           0        8.642831    0.929658   -0.226880
     33          6           0       -3.067756    4.027604   -0.562099
     34          6           0       -2.314193    1.675830   -0.241630
     35          6           0        7.454271    0.071548   -0.059108
     36          6           0        7.637680   -1.329132    0.271690
     37          6           0        6.241458    0.697462   -0.173155
     38          6           0       -1.010184    2.032566   -0.356455
     39          6           0        4.870862    0.153369    0.013681
     40          6           0       -0.004247    0.974723   -0.228136
     41          6           0        3.744131    0.892384   -0.207491
     42          6           0        1.331435    1.276301   -0.173234
     43          6           0        2.493574    0.472749   -0.078726
     44          6           0        2.251621   -0.984937    0.235545
     45          1           0      -12.935265   -3.006167   -0.739770
     46          1           0      -13.674357   -1.504619   -1.499806
     47          1           0      -13.707946    0.407563    1.832725
     48          1           0      -13.720909    0.649238    0.170505
     49          1           0      -14.468230   -1.380839    0.700057
     50          1           0      -10.281306   -2.957345   -1.623897
     51          1           0      -11.488916   -2.211117   -2.922869
     52          1           0       -9.955586   -1.327106   -2.497485
     53          1           0       -9.403145    1.002278   -0.774545
     54          1           0      -10.001241    0.432303    2.235287
     55          1           0      -11.792044   -0.021953    3.004050
     56          1           0      -10.689098   -1.148317    2.354175
     57          1           0      -12.264437    2.332760   -0.081826
     58          1           0      -11.992067    2.160827    1.706136
     59          1           0      -10.459270    2.250461    0.727484
     60          1           0      -12.118331   -2.639973    1.341004
     61          1           0       -9.143087   -1.646092    0.396587
     62          1           0       -5.880848   -2.198248   -0.710230
     63          1           0       -5.610522   -1.432431    1.152295
     64          1           0       -6.939349   -2.452510    0.921908
     65          1           0       -7.250458    1.396901   -0.392870
     66          1           0       -4.617531   -0.064526    0.411943
     67          1           0       13.052207   -1.086173    2.617215
     68          1           0       11.605114   -1.856245    1.841579
     69          1           0       13.804081   -3.011612    0.798397
     70          1           0       13.021911   -2.256499   -1.775562
     71          1           0       11.792002   -2.742891   -0.459516
     72          1           0       11.210932    0.418447    3.403800
     73          1           0       10.369290    1.445127    2.363501
     74          1           0       10.021561   -0.424996    2.364930
     75          1           0       13.735893    1.390780    0.645763
     76          1           0       12.316774    2.223423    0.999719
     77          1           0       13.335655    1.632095    2.314520
     78          1           0       13.035730   -0.383474   -3.019345
     79          1           0       11.898915    1.093917   -2.433542
     80          1           0       13.420012    0.660921   -1.501036
     81          1           0       -5.547546    2.905052   -0.887759
     82          1           0       10.237383   -0.420210   -2.486280
     83          1           0       14.961007   -1.004272    1.001950
     84          1           0        8.490608    1.805284   -0.861169
     85          1           0       -2.518254    4.389851    0.242245
     86          1           0       -2.564912    4.368828   -1.544727
     87          1           0       -3.890832    4.697822   -0.677677
     88          1           0       -2.625825    0.603704   -0.158720
     89          1           0        6.669385   -1.767670   -0.096628
     90          1           0        8.344214   -1.672375   -0.563582
     91          1           0        7.754897   -1.682503    1.467121
     92          1           0        6.428126    1.752450   -0.566386
     93          1           0       -0.709936    3.066953   -0.487269
     94          1           0        4.779805   -0.951420    0.048091
     95          1           0       -0.405807   -0.231422   -0.425260
     96          1           0        3.885231    2.038614   -0.301223
     97          1           0        1.509731    2.323890   -0.220461
     98          1           0        1.160474   -1.148138   -0.144984
     99          1           0        2.924079   -1.526561   -0.342542
    100          1           0        2.215364   -1.091706    1.479752
 ---------------------------------------------------------------------

 SCF Done:  E(RCAM-B3LYP) =  -1857.28833260     A.U. after   16 cycles

 Excitation energies and oscillator strengths:

 Excited State   1:      Singlet-A      1.8324 eV  676.62 nm  f=2.9605  <S**2>=0.000
     163 ->166        -0.10982
     164 ->165         0.70878
     164 <-165        -0.14075
 This state for optimization and/or second-order correction.
 Total Energy, E(TD-HF/TD-DFT) =  -1857.22099328
 Copying the excited state density for this state as the 1-particle RhoCI density.

 The electronic state is 1-A.
 Alpha  occ. eigenvalues --  -19.23455 -19.22398 -19.21310 -19.20934 -10.33853
 Alpha  occ. eigenvalues --  -10.32739 -10.31826 -10.31102 -10.29574 -10.29031
 Alpha  occ. eigenvalues --  -10.28641 -10.27921 -10.27737 -10.27699 -10.27222
 Alpha  occ. eigenvalues --  -10.27217 -10.27189 -10.27103 -10.26948 -10.26948
 Alpha  occ. eigenvalues --  -10.26917 -10.26658 -10.26535 -10.26524 -10.26461
 Alpha  occ. eigenvalues --  -10.26453 -10.26388 -10.26373 -10.26371 -10.26264
 Alpha  occ. eigenvalues --  -10.26254 -10.26044 -10.26012 -10.25926 -10.25868
 Alpha  occ. eigenvalues --  -10.25773 -10.25736 -10.25679 -10.25380 -10.25165
 Alpha  occ. eigenvalues --  -10.24974 -10.24882 -10.24780 -10.24706  -1.11781
 Alpha  occ. eigenvalues --   -1.09129  -1.08798  -1.07639  -0.92504  -0.92323
 Alpha  occ. eigenvalues --   -0.91697  -0.91501  -0.90375  -0.89928  -0.87451
 Alpha  occ. eigenvalues --   -0.86994  -0.85583  -0.84953  -0.84010  -0.82553
 Alpha  occ. eigenvalues --   -0.81586  -0.80494  -0.80032  -0.78257  -0.76607
 Alpha  occ. eigenvalues --   -0.76540  -0.76525  -0.76158  -0.76028  -0.75779
 Alpha  occ. eigenvalues --   -0.75290  -0.73926  -0.72185  -0.70566  -0.69179
 Alpha  occ. eigenvalues --   -0.68082  -0.66348  -0.65682  -0.64115  -0.63306
 Alpha  occ. eigenvalues --   -0.62672  -0.61210  -0.60143  -0.59670  -0.58483
 Alpha  occ. eigenvalues --   -0.58352  -0.57807  -0.56792  -0.56258  -0.56188
 Alpha  occ. eigenvalues --   -0.55836  -0.55708  -0.55270  -0.54085  -0.53804
 Alpha  occ. eigenvalues --   -0.53690  -0.52586  -0.52440  -0.52130  -0.51487
 Alpha  occ. eigenvalues --   -0.51151  -0.50900  -0.50562  -0.50337  -0.49775
 Alpha  occ. eigenvalues --   -0.49546  -0.49136  -0.48738  -0.48479  -0.48249
 Alpha  occ. eigenvalues --   -0.48157  -0.47906  -0.47508  -0.47271  -0.46813
 Alpha  occ. eigenvalues --   -0.46215  -0.45931  -0.45748  -0.45645  -0.45132
 Alpha  occ. eigenvalues --   -0.44828  -0.44576  -0.44552  -0.43881  -0.43582
 Alpha  occ. eigenvalues --   -0.43404  -0.43015  -0.42901  -0.42811  -0.42193
 Alpha  occ. eigenvalues --   -0.42177  -0.41840  -0.41644  -0.41155  -0.40634
 Alpha  occ. eigenvalues --   -0.40315  -0.40261  -0.40192  -0.39875  -0.39826
 Alpha  occ. eigenvalues --   -0.39578  -0.39268  -0.39049  -0.38709  -0.38233
 Alpha  occ. eigenvalues --   -0.37926  -0.37876  -0.37606  -0.37508  -0.37413
 Alpha  occ. eigenvalues --   -0.36878  -0.36357  -0.35060  -0.34524  -0.33841
 Alpha  occ. eigenvalues --   -0.32751  -0.32270  -0.31702  -0.31191  -0.30779
 Alpha  occ. eigenvalues --   -0.29364  -0.27345  -0.24337  -0.18171
 Alpha virt. eigenvalues --   -0.07023  -0.00308   0.03247   0.06245   0.07212
 Alpha virt. eigenvalues --    0.08310   0.09330   0.09655   0.10888   0.11442
 Alpha virt. eigenvalues --    0.11873   0.12163   0.12799   0.13026   0.13985

 Mulliken charges:
               1
     1  O   -0.532760
     2  O   -0.543881
     3  O   -0.559497
     4  O   -0.533971
     5  C    0.183080
     6  C    0.212640
     7  C    0.042301
     8  C   -0.220717
     9  C   -0.205811
    10  C    0.153516
    11  C   -0.321137
    12  C   -0.057949
    13  C   -0.310769
    14  C   -0.289954
    15  C   -0.072236
    16  C   -0.007707
    17  C   -0.345305
    18  C   -0.048135
    19  C   -0.058806
    20  C    0.019669
    21  C    0.212031
    22  C   -0.211193
    23  C    0.145496
    24  C   -0.159754
    25  C   -0.104122
    26  C   -0.303504
    27  C   -0.332044
    28  C   -0.295108
    29  C   -0.149692
    30  C    0.160949
    31  C    0.082028
    32  C   -0.280782
    33  C   -0.391374
    34  C   -0.094759
    35  C    0.114262
    36  C   -0.373762
    37  C   -0.101484
    38  C   -0.090658
    39  C   -0.123134
    40  C   -0.090825
    41  C   -0.089514
    42  C   -0.115338
    43  C    0.102978
    44  C   -0.340552
    45  H    0.115930
    46  H    0.140538
    47  H    0.092348
    48  H    0.098943
    49  H    0.096843
    50  H    0.107607
    51  H    0.107997
    52  H    0.116090
    53  H    0.095662
    54  H    0.102928
    55  H    0.107258
    56  H    0.096815
    57  H    0.135150
    58  H    0.105226
    59  H    0.049615
    60  H    0.296176
    61  H    0.069012
    62  H    0.134140
    63  H    0.115760
    64  H    0.117463
    65  H    0.075638
    66  H    0.083317
    67  H    0.094561
    68  H    0.118112
    69  H    0.054433
    70  H    0.122638
    71  H    0.121410
    72  H    0.100662
    73  H    0.111553
    74  H    0.094588
    75  H    0.111571
    76  H    0.113235
    77  H    0.098608
    78  H    0.098023
    79  H    0.099131
    80  H    0.137634
    81  H    0.075732
    82  H    0.300713
    83  H    0.311817
    84  H    0.105313
    85  H    0.135669
    86  H    0.110516
    87  H    0.110563
    88  H    0.081685
    89  H    0.101254
    90  H    0.141105
    91  H    0.106165
    92  H    0.070832
    93  H    0.102906
    94  H    0.092433
    95  H    0.078006
    96  H    0.075264
    97  H    0.074453
    98  H    0.089321
    99  H    0.119013
   100  H    0.107912
 Sum of Mulliken charges =  -0.00000

 Dipole moment (field-independent basis, Debye):
    X=              2.0767    Y=              0.0653    Z=              1.4345  Tot=              2.5248
 Quadrupole moment (field-independent basis, Debye-Ang):
   XX=           -267.6767   YY=           -259.6568   ZZ=           -276.2537
   XY=             10.5883   XZ=             26.7982   YZ=             -4.0362

 Normal termination of Gaussian 16 at Mon Jul 29 14:16:33 2019.
