 Gaussian 16, Revision A.03,
 Gaussian 16:  ES64L-G16RevA.03 25-Dec-2016

 -------------------------------------
 # td=(NStates=1) CAM-B3LYP/6-31G(d,p)
 -------------------------------------

 --
 TD
 --
 Symbolic Z-matrix:
 Charge =  0 Multiplicity = 1

                         Standard orientation:
 ---------------------------------------------------------------------
 Center     Atomic      Atomic             Coordinates (Angstroms)
 Number     Number       Type             X           Y           Z
 ---------------------------------------------------------------------
      1          8           0      -11.796807    0.414107   -1.388761
      2          8           0      -13.190464   -2.476693    1.281129
      3          8           0       10.764831   -0.793324   -2.092337
      4          8           0       14.578585   -1.179156   -0.063399
      5          6           0      -11.097273   -0.125820   -0.271019
      6          6           0      -11.811391   -1.000333   -1.285101
      7          6           0      -11.767492    0.339149    1.155634
      8          6           0      -13.174468   -1.590237   -0.958328
      9          6           0      -13.297275   -0.069658    0.996546
     10          6           0      -13.672151   -1.491316    0.463760
     11          6           0      -11.032950   -1.654193   -2.347647
     12          6           0       -9.554449    0.089764   -0.334564
     13          6           0      -11.113931   -0.235341    2.383483
     14          6           0      -11.860727    1.892762    1.236664
     15          6           0       -8.621376   -0.802371   -0.061616
     16          6           0       -7.257684   -0.671787    0.010407
     17          6           0       -6.434694   -1.827023    0.221379
     18          6           0       -6.619669    0.586858   -0.162774
     19          6           0       -5.244916    0.843418   -0.118000
     20          6           0       11.928158   -0.012540    1.410853
     21          6           0       11.763151   -0.472407   -1.187444
     22          6           0       12.621283   -1.329503    1.542572
     23          6           0       13.421625   -1.829704    0.299467
     24          6           0       12.417786   -1.841758   -0.861835
     25          6           0       11.170957    0.054603    0.039075
     26          6           0       10.926089    0.268463    2.516933
     27          6           0       12.973484    1.082158    1.433446
     28          6           0       12.748321    0.601490   -1.931528
     29          6           0       -4.682289    2.102618   -0.242142
     30          6           0       10.002765    0.630136   -0.018052
     31          6           0       -3.375388    2.432467   -0.348523
     32          6           0        8.683752    1.060465   -0.097903
     33          6           0       -3.029350    3.860960   -0.618854
     34          6           0       -2.297147    1.484144   -0.308376
     35          6           0        7.498772    0.121841   -0.008106
     36          6           0        7.728054   -1.242539    0.189041
     37          6           0        6.245139    0.738967   -0.130656
     38          6           0       -0.982930    1.735695   -0.331859
     39          6           0        5.016985    0.213062   -0.077921
     40          6           0        0.090858    0.788652   -0.310193
     41          6           0        3.807539    0.886087   -0.177211
     42          6           0        1.436121    1.066266   -0.226366
     43          6           0        2.573327    0.245078   -0.170759
     44          6           0        2.447451   -1.199056    0.078687
     45          1           0      -13.345045   -2.650890   -1.342714
     46          1           0      -13.851503   -0.946754   -1.590186
     47          1           0      -13.886007   -0.045187    1.940448
     48          1           0      -13.848726    0.747545    0.412417
     49          1           0      -14.711447   -1.393638    0.329604
     50          1           0      -10.989766   -2.782230   -2.066665
     51          1           0      -11.652945   -1.459088   -3.288273
     52          1           0       -9.918183   -1.294349   -2.224107
     53          1           0       -9.258312    1.185036   -0.481557
     54          1           0       -9.998037    0.090647    2.611200
     55          1           0      -11.761994   -0.223068    3.316047
     56          1           0      -11.142953   -1.294722    2.179041
     57          1           0      -12.346536    2.368655    0.489703
     58          1           0      -12.038492    2.084262    2.463592
     59          1           0      -10.879862    2.335369    1.251635
     60          1           0      -12.319266   -2.604836    1.073205
     61          1           0       -8.980450   -1.761364    0.405509
     62          1           0       -6.175223   -2.105633   -0.786725
     63          1           0       -5.646455   -1.576138    0.862868
     64          1           0       -6.851598   -2.794127    0.563962
     65          1           0       -7.303573    1.342413   -0.237837
     66          1           0       -4.718167    0.009900    0.175863
     67          1           0       13.276715   -1.297791    2.540104
     68          1           0       11.865319   -2.213158    1.706324
     69          1           0       13.804566   -2.858645    0.650076
     70          1           0       12.926083   -2.090681   -1.767051
     71          1           0       11.620937   -2.484468   -0.743690
     72          1           0       11.226609    0.068713    3.559357
     73          1           0       10.342997    1.241621    2.387259
     74          1           0       10.166130   -0.482808    2.638147
     75          1           0       13.522150    1.150424    0.579837
     76          1           0       12.414556    2.115985    1.422640
     77          1           0       13.675745    0.835023    2.286122
     78          1           0       13.044302    0.230160   -2.813971
     79          1           0       12.157998    1.304645   -2.028838
     80          1           0       13.612449    0.782290   -1.459335
     81          1           0       -5.305421    2.967966   -0.278382
     82          1           0       10.113587   -0.045460   -1.992260
     83          1           0       15.237001   -1.107594    0.590258
     84          1           0        8.492669    1.862605   -0.285328
     85          1           0       -2.525165    4.489819    0.292824
     86          1           0       -2.462203    3.956799   -1.657634
     87          1           0       -4.024666    4.408915   -0.907704
     88          1           0       -2.436510    0.336356   -0.556330
     89          1           0        6.897748   -1.872440    0.323993
     90          1           0        8.363498   -1.818358   -0.577655
     91          1           0        8.333047   -1.373566    1.168188
     92          1           0        6.283005    1.803786   -0.193776
     93          1           0       -0.552389    2.616993   -0.411886
     94          1           0        4.986759   -0.899856   -0.232394
     95          1           0       -0.215147   -0.199102   -0.184102
     96          1           0        3.666443    1.952810   -0.274957
     97          1           0        1.417264    2.112995   -0.294706
     98          1           0        1.368693   -1.476809    0.668426
     99          1           0        2.616003   -1.834704   -1.072702
    100          1           0        3.420187   -1.510832    0.622043
 ---------------------------------------------------------------------

 SCF Done:  E(RCAM-B3LYP) =  -1857.25142734     A.U. after   17 cycles

 Excitation energies and oscillator strengths:

 Excited State   1:      Singlet-A      1.6534 eV  749.88 nm  f=3.1483  <S**2>=0.000
     163 ->166         0.11057
     164 ->165         0.71417
     164 <-165        -0.16247
 This state for optimization and/or second-order correction.
 Total Energy, E(TD-HF/TD-DFT) =  -1857.19066613
 Copying the excited state density for this state as the 1-particle RhoCI density.

 The electronic state is 1-A.
 Alpha  occ. eigenvalues --  -19.22369 -19.21731 -19.21719 -19.20601 -10.32758
 Alpha  occ. eigenvalues --  -10.31988 -10.31966 -10.31230 -10.30178 -10.29310
 Alpha  occ. eigenvalues --  -10.28585 -10.28189 -10.28008 -10.27989 -10.27575
 Alpha  occ. eigenvalues --  -10.27413 -10.27318 -10.27236 -10.27225 -10.27050
 Alpha  occ. eigenvalues --  -10.26865 -10.26776 -10.26595 -10.26425 -10.26288
 Alpha  occ. eigenvalues --  -10.26155 -10.26065 -10.26026 -10.26001 -10.25949
 Alpha  occ. eigenvalues --  -10.25769 -10.25603 -10.25538 -10.25420 -10.25354
 Alpha  occ. eigenvalues --  -10.25324 -10.25184 -10.25042 -10.24972 -10.24791
 Alpha  occ. eigenvalues --  -10.24620 -10.24611 -10.23982 -10.20532  -1.15899
 Alpha  occ. eigenvalues --   -1.13234  -1.12010  -1.10621  -0.93620  -0.93472
 Alpha  occ. eigenvalues --   -0.92862  -0.91933  -0.90996  -0.89400  -0.88276
 Alpha  occ. eigenvalues --   -0.86797  -0.86133  -0.85763  -0.85197  -0.83808
 Alpha  occ. eigenvalues --   -0.82745  -0.81625  -0.81186  -0.79436  -0.78902
 Alpha  occ. eigenvalues --   -0.76770  -0.76402  -0.76291  -0.76244  -0.75683
 Alpha  occ. eigenvalues --   -0.75226  -0.74147  -0.72552  -0.71002  -0.70500
 Alpha  occ. eigenvalues --   -0.68872  -0.67694  -0.65794  -0.65037  -0.64591
 Alpha  occ. eigenvalues --   -0.63682  -0.63596  -0.62461  -0.60836  -0.60652
 Alpha  occ. eigenvalues --   -0.60135  -0.59383  -0.58554  -0.58037  -0.57061
 Alpha  occ. eigenvalues --   -0.56271  -0.56153  -0.55419  -0.55248  -0.55012
 Alpha  occ. eigenvalues --   -0.54610  -0.53560  -0.53248  -0.52229  -0.51917
 Alpha  occ. eigenvalues --   -0.51665  -0.51532  -0.51069  -0.50670  -0.50575
 Alpha  occ. eigenvalues --   -0.49734  -0.49544  -0.49501  -0.49266  -0.48995
 Alpha  occ. eigenvalues --   -0.48566  -0.48170  -0.47954  -0.47673  -0.47328
 Alpha  occ. eigenvalues --   -0.46477  -0.46381  -0.46171  -0.45715  -0.45458
 Alpha  occ. eigenvalues --   -0.45409  -0.44842  -0.44586  -0.44536  -0.44269
 Alpha  occ. eigenvalues --   -0.43837  -0.43328  -0.42939  -0.42486  -0.42383
 Alpha  occ. eigenvalues --   -0.42067  -0.41920  -0.41699  -0.41476  -0.41150
 Alpha  occ. eigenvalues --   -0.40836  -0.40785  -0.40636  -0.40481  -0.40183
 Alpha  occ. eigenvalues --   -0.40122  -0.39602  -0.39461  -0.39019  -0.38545
 Alpha  occ. eigenvalues --   -0.38414  -0.38305  -0.38082  -0.38008  -0.37649
 Alpha  occ. eigenvalues --   -0.37060  -0.36598  -0.34667  -0.34241  -0.33867
 Alpha  occ. eigenvalues --   -0.32281  -0.32128  -0.31987  -0.31438  -0.31083
 Alpha  occ. eigenvalues --   -0.30186  -0.28045  -0.24122  -0.17941
 Alpha virt. eigenvalues --   -0.08025  -0.01285   0.02718   0.06645   0.06872
 Alpha virt. eigenvalues --    0.09338   0.10335   0.10489   0.11543   0.12270
 Alpha virt. eigenvalues --    0.12287   0.13164   0.13494   0.13808   0.14252

 Mulliken charges:
               1
     1  O   -0.492866
     2  O   -0.511364
     3  O   -0.563358
     4  O   -0.534626
     5  C    0.172298
     6  C    0.244311
     7  C    0.037328
     8  C   -0.230082
     9  C   -0.200109
    10  C    0.155656
    11  C   -0.316610
    12  C   -0.130596
    13  C   -0.307453
    14  C   -0.297295
    15  C   -0.076151
    16  C    0.080460
    17  C   -0.386063
    18  C   -0.085260
    19  C   -0.063756
    20  C    0.045235
    21  C    0.211839
    22  C   -0.207397
    23  C    0.172390
    24  C   -0.179981
    25  C   -0.027991
    26  C   -0.315294
    27  C   -0.280037
    28  C   -0.279804
    29  C   -0.115056
    30  C    0.016665
    31  C    0.112214
    32  C   -0.137271
    33  C   -0.371361
    34  C   -0.127708
    35  C    0.141408
    36  C   -0.406059
    37  C   -0.105921
    38  C   -0.047037
    39  C   -0.120885
    40  C   -0.097444
    41  C   -0.083856
    42  C   -0.123223
    43  C    0.151442
    44  C   -0.356983
    45  H    0.094946
    46  H    0.113708
    47  H    0.092793
    48  H    0.093795
    49  H    0.106740
    50  H    0.085889
    51  H    0.117965
    52  H    0.118645
    53  H    0.102795
    54  H    0.101924
    55  H    0.114125
    56  H    0.082324
    57  H    0.128860
    58  H    0.078798
    59  H    0.094320
    60  H    0.303322
    61  H    0.074811
    62  H    0.141577
    63  H    0.130243
    64  H    0.107335
    65  H    0.062572
    66  H    0.081810
    67  H    0.066715
    68  H    0.089147
    69  H    0.062669
    70  H    0.114979
    71  H    0.118405
    72  H    0.092034
    73  H    0.111402
    74  H    0.101726
    75  H    0.126145
    76  H    0.086690
    77  H    0.083578
    78  H    0.112660
    79  H    0.091059
    80  H    0.122113
    81  H    0.079510
    82  H    0.302426
    83  H    0.305998
    84  H    0.037881
    85  H    0.111513
    86  H    0.117165
    87  H    0.097832
    88  H    0.081752
    89  H    0.114644
    90  H    0.130639
    91  H    0.116687
    92  H    0.074927
    93  H    0.062923
    94  H    0.085801
    95  H    0.054079
    96  H    0.087188
    97  H    0.064764
    98  H    0.104911
    99  H    0.080004
   100  H    0.118387
 Sum of Mulliken charges =  -0.00000

 Dipole moment (field-independent basis, Debye):
    X=              1.9560    Y=             -0.5447    Z=              2.1184  Tot=              2.9344
 Quadrupole moment (field-independent basis, Debye-Ang):
   XX=           -265.7747   YY=           -260.4682   ZZ=           -279.3301
   XY=              1.9100   XZ=             32.4443   YZ=             -2.8183

 Normal termination of Gaussian 16 at Thu Aug  1 21:28:28 2019.
