 Gaussian 16, Revision A.03,
 Gaussian 16:  ES64L-G16RevA.03 25-Dec-2016

 -------------------------------------
 # td=(NStates=1) CAM-B3LYP/6-31G(d,p)
 -------------------------------------

 --
 TD
 --
 Symbolic Z-matrix:
 Charge =  0 Multiplicity = 1

                         Standard orientation:
 ---------------------------------------------------------------------
 Center     Atomic      Atomic             Coordinates (Angstroms)
 Number     Number       Type             X           Y           Z
 ---------------------------------------------------------------------
      1          8           0      -11.824146    0.494221   -1.346146
      2          8           0      -12.849626   -2.676218    1.121551
      3          8           0       10.600700   -0.969438   -2.070825
      4          8           0       14.572214   -0.889672   -0.151064
      5          6           0      -11.036492   -0.156099   -0.284647
      6          6           0      -11.726394   -0.914848   -1.271357
      7          6           0      -11.758638    0.202225    1.114753
      8          6           0      -13.076119   -1.580009   -1.075806
      9          6           0      -13.200130   -0.212990    1.106867
     10          6           0      -13.475591   -1.632846    0.451574
     11          6           0      -10.907330   -1.499384   -2.267881
     12          6           0       -9.546805    0.135234   -0.416528
     13          6           0      -11.076126   -0.550698    2.224446
     14          6           0      -11.610811    1.749860    1.510851
     15          6           0       -8.669731   -0.817196    0.057380
     16          6           0       -7.103991   -0.603222    0.019265
     17          6           0       -6.330607   -1.859379    0.093621
     18          6           0       -6.675288    0.671157   -0.259787
     19          6           0       -5.325603    1.014469   -0.295835
     20          6           0       11.858482   -0.135950    1.358961
     21          6           0       11.623080   -0.581571   -1.304217
     22          6           0       12.651266   -1.408924    1.365436
     23          6           0       13.464753   -1.673595    0.189208
     24          6           0       12.478602   -1.838669   -0.941202
     25          6           0       11.030971   -0.018420    0.127980
     26          6           0       10.892711   -0.200279    2.620771
     27          6           0       12.776628    1.013964    1.548161
     28          6           0       12.527789    0.609657   -1.943752
     29          6           0       -4.803824    2.237282   -0.326156
     30          6           0        9.839209    0.565821    0.160071
     31          6           0       -3.365957    2.517879   -0.284884
     32          6           0        8.627457    0.995746   -0.073900
     33          6           0       -2.947349    3.944024   -0.403033
     34          6           0       -2.365843    1.555646   -0.270430
     35          6           0        7.421911    0.172397   -0.061855
     36          6           0        7.605608   -1.255528    0.229821
     37          6           0        6.239426    0.846956   -0.071815
     38          6           0       -0.957723    1.886312   -0.266406
     39          6           0        4.984883    0.300088   -0.103274
     40          6           0        0.041067    1.000157   -0.219831
     41          6           0        3.762343    0.908783   -0.094752
     42          6           0        1.393842    1.265315   -0.155060
     43          6           0        2.445347    0.371550   -0.114869
     44          6           0        2.364977   -1.172607   -0.073911
     45          1           0      -13.068490   -2.632972   -1.292212
     46          1           0      -13.697812   -0.931800   -1.635122
     47          1           0      -13.430861   -0.235484    2.313465
     48          1           0      -13.846916    0.555873    0.637282
     49          1           0      -14.634598   -1.713078    0.428638
     50          1           0      -10.444851   -2.634252   -2.053513
     51          1           0      -11.390723   -1.591420   -3.169394
     52          1           0       -9.882470   -1.082145   -2.546634
     53          1           0       -9.314278    1.158615   -0.888813
     54          1           0      -10.161207   -0.177821    2.281293
     55          1           0      -11.532699   -0.375732    3.302989
     56          1           0      -11.021397   -1.693774    2.059041
     57          1           0      -12.149984    2.461480    0.670572
     58          1           0      -12.159016    1.905392    2.496479
     59          1           0      -10.489619    2.141077    1.662223
     60          1           0      -11.925046   -2.488641    0.912816
     61          1           0       -8.972178   -1.725399    0.408788
     62          1           0       -5.982964   -2.407261   -1.065409
     63          1           0       -5.275765   -1.588240    0.779876
     64          1           0       -6.817745   -2.610297    0.768340
     65          1           0       -7.430166    1.356657   -0.384239
     66          1           0       -4.510343    0.249459   -0.537598
     67          1           0       13.499901   -1.202669    2.104745
     68          1           0       12.133284   -2.194802    1.830109
     69          1           0       13.724213   -2.762325    0.293640
     70          1           0       12.867695   -2.059440   -1.865132
     71          1           0       11.634752   -2.553103   -0.762525
     72          1           0       11.568626   -0.317504    3.450515
     73          1           0       10.375729    0.629747    2.774654
     74          1           0       10.175051   -1.075720    2.595080
     75          1           0       13.444625    0.818472    0.754202
     76          1           0       12.329500    1.954133    1.188665
     77          1           0       13.280210    0.980406    2.422353
     78          1           0       12.680910    0.199496   -2.909903
     79          1           0       11.954016    1.397002   -1.999889
     80          1           0       13.554460    0.599449   -1.195808
     81          1           0       -5.630123    3.052248   -0.338493
     82          1           0       10.077329   -0.140020   -2.135604
     83          1           0       15.101149   -1.033916    0.636203
     84          1           0        8.479034    2.099022   -0.219196
     85          1           0       -2.501476    4.450501    0.393206
     86          1           0       -2.051162    4.133413   -1.114502
     87          1           0       -3.902567    4.708250   -0.536928
     88          1           0       -2.474218    0.548702    0.001392
     89          1           0        6.706460   -1.810102   -0.178866
     90          1           0        8.521196   -1.629384   -0.193809
     91          1           0        7.672702   -1.359658    1.293488
     92          1           0        6.185112    1.861573   -0.445241
     93          1           0       -0.817010    2.920007   -0.407171
     94          1           0        5.073823   -0.722658    0.041748
     95          1           0       -0.242351    0.026300   -0.186039
     96          1           0        3.734816    2.115091   -0.110210
     97          1           0        1.815864    2.227812   -0.042472
     98          1           0        1.195964   -1.527011   -0.250581
     99          1           0        2.909346   -1.640430   -0.878838
    100          1           0        2.649142   -1.418105    0.826333
 ---------------------------------------------------------------------

 SCF Done:  E(RCAM-B3LYP) =  -1857.31269079     A.U. after   15 cycles

 Excitation energies and oscillator strengths:

 Excited State   1:      Singlet-A      2.4615 eV  503.69 nm  f=3.0793  <S**2>=0.000
     163 ->166         0.15637
     164 ->165         0.68345
 This state for optimization and/or second-order correction.
 Total Energy, E(TD-HF/TD-DFT) =  -1857.22223249
 Copying the excited state density for this state as the 1-particle RhoCI density.

 The electronic state is 1-A.
 Alpha  occ. eigenvalues --  -19.24532 -19.22525 -19.22417 -19.21902 -10.32040
 Alpha  occ. eigenvalues --  -10.32034 -10.31867 -10.31439 -10.31419 -10.30018
 Alpha  occ. eigenvalues --  -10.28432 -10.28300 -10.28241 -10.28107 -10.27643
 Alpha  occ. eigenvalues --  -10.27636 -10.27389 -10.27305 -10.26941 -10.26906
 Alpha  occ. eigenvalues --  -10.26875 -10.26708 -10.26656 -10.26312 -10.26044
 Alpha  occ. eigenvalues --  -10.25995 -10.25950 -10.25786 -10.25743 -10.25720
 Alpha  occ. eigenvalues --  -10.25459 -10.25452 -10.25446 -10.25418 -10.25382
 Alpha  occ. eigenvalues --  -10.25055 -10.24964 -10.24912 -10.24831 -10.24753
 Alpha  occ. eigenvalues --  -10.24442 -10.23972 -10.23438 -10.22666  -1.15582
 Alpha  occ. eigenvalues --   -1.13779  -1.13356  -1.11990  -0.94191  -0.92664
 Alpha  occ. eigenvalues --   -0.92234  -0.91374  -0.90519  -0.89855  -0.87751
 Alpha  occ. eigenvalues --   -0.86883  -0.86818  -0.85888  -0.84855  -0.83240
 Alpha  occ. eigenvalues --   -0.82483  -0.80778  -0.80593  -0.78703  -0.77616
 Alpha  occ. eigenvalues --   -0.76849  -0.76625  -0.76568  -0.76211  -0.76097
 Alpha  occ. eigenvalues --   -0.74275  -0.74006  -0.73602  -0.70727  -0.69861
 Alpha  occ. eigenvalues --   -0.69196  -0.66886  -0.66041  -0.65018  -0.63998
 Alpha  occ. eigenvalues --   -0.63772  -0.62621  -0.61401  -0.60478  -0.59920
 Alpha  occ. eigenvalues --   -0.59433  -0.59282  -0.58869  -0.58484  -0.56710
 Alpha  occ. eigenvalues --   -0.56604  -0.55614  -0.55475  -0.54824  -0.54673
 Alpha  occ. eigenvalues --   -0.54164  -0.53783  -0.53256  -0.52790  -0.52481
 Alpha  occ. eigenvalues --   -0.51906  -0.51825  -0.51194  -0.50962  -0.50382
 Alpha  occ. eigenvalues --   -0.50095  -0.49588  -0.49197  -0.48988  -0.48822
 Alpha  occ. eigenvalues --   -0.48128  -0.47833  -0.47783  -0.47415  -0.46999
 Alpha  occ. eigenvalues --   -0.46847  -0.46316  -0.46167  -0.46062  -0.45747
 Alpha  occ. eigenvalues --   -0.45439  -0.45272  -0.45166  -0.44178  -0.43969
 Alpha  occ. eigenvalues --   -0.43912  -0.43192  -0.43108  -0.42735  -0.42663
 Alpha  occ. eigenvalues --   -0.42624  -0.42333  -0.42023  -0.41857  -0.41525
 Alpha  occ. eigenvalues --   -0.41243  -0.40948  -0.40553  -0.40453  -0.39989
 Alpha  occ. eigenvalues --   -0.39984  -0.39443  -0.39427  -0.39144  -0.38575
 Alpha  occ. eigenvalues --   -0.38358  -0.38042  -0.37974  -0.37693  -0.37126
 Alpha  occ. eigenvalues --   -0.37073  -0.36222  -0.35428  -0.35180  -0.34050
 Alpha  occ. eigenvalues --   -0.32809  -0.32448  -0.32235  -0.31563  -0.30690
 Alpha  occ. eigenvalues --   -0.28931  -0.28148  -0.24631  -0.20380
 Alpha virt. eigenvalues --   -0.05136  -0.00924   0.03202   0.06567   0.07147
 Alpha virt. eigenvalues --    0.09196   0.09747   0.09846   0.11416   0.11994
 Alpha virt. eigenvalues --    0.12631   0.13057   0.13108   0.13277   0.13902

 Mulliken charges:
               1
     1  O   -0.517612
     2  O   -0.513876
     3  O   -0.522436
     4  O   -0.516118
     5  C    0.144573
     6  C    0.288312
     7  C    0.027177
     8  C   -0.207621
     9  C   -0.166822
    10  C    0.121325
    11  C   -0.344005
    12  C   -0.110716
    13  C   -0.289035
    14  C   -0.304428
    15  C   -0.080839
    16  C    0.081598
    17  C   -0.349483
    18  C   -0.079302
    19  C   -0.063211
    20  C   -0.003092
    21  C    0.219110
    22  C   -0.177989
    23  C    0.131516
    24  C   -0.193247
    25  C   -0.049456
    26  C   -0.301723
    27  C   -0.292397
    28  C   -0.310879
    29  C   -0.121543
    30  C    0.086548
    31  C    0.108628
    32  C   -0.281268
    33  C   -0.395470
    34  C   -0.130226
    35  C    0.113779
    36  C   -0.379173
    37  C   -0.094004
    38  C   -0.055413
    39  C   -0.093585
    40  C   -0.076825
    41  C   -0.126413
    42  C   -0.114231
    43  C    0.109576
    44  C   -0.357253
    45  H    0.119080
    46  H    0.130381
    47  H    0.074209
    48  H    0.099469
    49  H    0.093934
    50  H    0.069693
    51  H    0.120437
    52  H    0.123027
    53  H    0.126885
    54  H    0.120317
    55  H    0.092091
    56  H    0.068827
    57  H    0.099593
    58  H    0.104812
    59  H    0.092572
    60  H    0.305512
    61  H    0.079699
    62  H    0.099151
    63  H    0.086017
    64  H    0.118455
    65  H    0.076806
    66  H    0.091266
    67  H    0.052991
    68  H    0.118587
    69  H    0.087182
    70  H    0.108947
    71  H    0.113191
    72  H    0.086465
    73  H    0.116838
    74  H    0.088151
    75  H    0.109485
    76  H    0.102616
    77  H    0.102105
    78  H    0.110493
    79  H    0.100532
    80  H    0.127068
    81  H    0.079104
    82  H    0.312522
    83  H    0.315097
    84  H    0.102453
    85  H    0.139116
    86  H    0.119398
    87  H    0.087129
    88  H    0.082488
    89  H    0.105874
    90  H    0.135079
    91  H    0.136830
    92  H    0.074929
    93  H    0.061425
    94  H    0.064195
    95  H    0.068622
    96  H    0.060008
    97  H    0.074666
    98  H    0.078545
    99  H    0.128878
   100  H    0.144310
 Sum of Mulliken charges =  -0.00000

 Dipole moment (field-independent basis, Debye):
    X=              3.2832    Y=             -0.8044    Z=              1.6940  Tot=              3.7810
 Quadrupole moment (field-independent basis, Debye-Ang):
   XX=           -267.1184   YY=           -263.5324   ZZ=           -276.9609
   XY=            -11.4609   XZ=             30.2522   YZ=              0.3195

 Normal termination of Gaussian 16 at Mon Jul 29 19:36:34 2019.
