 Gaussian 16, Revision A.03,
 Gaussian 16:  ES64L-G16RevA.03 25-Dec-2016

 -------------------------------------
 # td=(NStates=1) CAM-B3LYP/6-31G(d,p)
 -------------------------------------

 --
 TD
 --
 Symbolic Z-matrix:
 Charge =  0 Multiplicity = 1

                         Standard orientation:
 ---------------------------------------------------------------------
 Center     Atomic      Atomic             Coordinates (Angstroms)
 Number     Number       Type             X           Y           Z
 ---------------------------------------------------------------------
      1          8           0      -11.755966    0.299057   -1.408209
      2          8           0      -13.037820   -2.481394    1.403750
      3          8           0       10.588521   -1.191987   -1.959318
      4          8           0       14.484951   -0.978142   -0.050209
      5          6           0      -11.055650   -0.130991   -0.279788
      6          6           0      -11.739096   -1.168552   -1.165813
      7          6           0      -11.738034    0.397190    0.964090
      8          6           0      -13.007675   -1.818423   -0.930211
      9          6           0      -13.259659   -0.059385    0.984151
     10          6           0      -13.542296   -1.470275    0.531400
     11          6           0      -10.829696   -1.928733   -2.157445
     12          6           0       -9.556631    0.031251   -0.413537
     13          6           0      -11.141181   -0.166066    2.304550
     14          6           0      -11.624950    1.856064    1.147633
     15          6           0       -8.678205   -0.790479    0.083110
     16          6           0       -7.207000   -0.535137    0.003900
     17          6           0       -6.351497   -1.814330    0.272623
     18          6           0       -6.614717    0.735926   -0.090105
     19          6           0       -5.240465    0.992975   -0.182444
     20          6           0       11.973038    0.036403    1.292581
     21          6           0       11.678798   -0.717793   -1.176624
     22          6           0       12.768099   -1.197191    1.536571
     23          6           0       13.358614   -1.846375    0.338087
     24          6           0       12.503032   -1.909329   -0.810356
     25          6           0       11.104717   -0.021841    0.019605
     26          6           0       11.048754    0.261154    2.643640
     27          6           0       12.929992    1.275387    1.327978
     28          6           0       12.475114    0.462790   -2.008259
     29          6           0       -4.751859    2.280781   -0.279007
     30          6           0        9.842763    0.392439    0.030646
     31          6           0       -3.417611    2.560042   -0.457786
     32          6           0        8.683732    0.984300   -0.156421
     33          6           0       -3.072710    4.064775   -0.621968
     34          6           0       -2.424045    1.651330   -0.461840
     35          6           0        7.371702    0.198564   -0.021353
     36          6           0        7.621580   -1.284756    0.375534
     37          6           0        6.300194    0.819969   -0.171257
     38          6           0       -1.013666    1.892445   -0.421720
     39          6           0        5.019524    0.157942   -0.165242
     40          6           0        0.025012    0.914785   -0.269534
     41          6           0        3.806425    0.754952   -0.318188
     42          6           0        1.414537    1.183852   -0.359094
     43          6           0        2.510170    0.302509   -0.094333
     44          6           0        2.296298   -1.179865    0.200316
     45          1           0      -12.994991   -2.954733   -1.238658
     46          1           0      -13.769881   -1.468426   -1.453606
     47          1           0      -13.730615    0.071100    1.921646
     48          1           0      -13.770394    0.779027    0.377476
     49          1           0      -14.490791   -1.625808    0.616503
     50          1           0      -10.665283   -2.859428   -1.762200
     51          1           0      -11.653499   -2.211972   -2.996755
     52          1           0       -9.906233   -1.540596   -2.521424
     53          1           0       -9.349680    0.883599   -1.110579
     54          1           0      -10.127746   -0.045837    2.712216
     55          1           0      -11.818032    0.076094    3.018695
     56          1           0      -11.237700   -1.164335    2.332429
     57          1           0      -12.105476    2.440453    0.330198
     58          1           0      -12.066579    2.114431    2.214385
     59          1           0      -10.537481    2.069887    1.225963
     60          1           0      -12.107201   -2.502699    1.263456
     61          1           0       -9.052148   -1.721704    0.439930
     62          1           0       -6.066545   -2.101250   -0.731837
     63          1           0       -5.235555   -1.460619    0.650713
     64          1           0       -6.679571   -2.737484    0.974851
     65          1           0       -7.332537    1.520988   -0.134677
     66          1           0       -4.628614    0.034722   -0.122635
     67          1           0       13.599843   -0.806340    2.104010
     68          1           0       12.114967   -2.021933    1.950907
     69          1           0       13.636874   -2.807688    0.393601
     70          1           0       12.928364   -2.394025   -1.621852
     71          1           0       11.685210   -2.631900   -0.547606
     72          1           0       11.503929    0.277904    3.596004
     73          1           0       10.435583    1.141155    2.484473
     74          1           0       10.298611   -0.590153    2.738678
     75          1           0       13.733542    1.095152    0.538525
     76          1           0       12.384632    2.320816    0.984835
     77          1           0       13.413113    1.466501    2.420803
     78          1           0       12.849493    0.133962   -3.143377
     79          1           0       11.879574    1.222959   -1.841695
     80          1           0       13.529032    0.668550   -1.550690
     81          1           0       -5.464854    3.118897   -0.519770
     82          1           0        9.811440   -0.556310   -2.099094
     83          1           0       15.080264   -0.963870    0.683136
     84          1           0        8.510773    1.888257   -0.418812
     85          1           0       -2.553221    4.275352    0.322056
     86          1           0       -2.193491    4.127743   -1.333131
     87          1           0       -3.934837    4.839018   -0.919421
     88          1           0       -2.623322    0.500678   -0.639395
     89          1           0        6.758628   -1.911695    0.500440
     90          1           0        8.271600   -1.749810   -0.458681
     91          1           0        8.306805   -1.370024    1.239937
     92          1           0        6.192886    1.798709   -0.364530
     93          1           0       -0.794096    2.918139   -0.606358
     94          1           0        5.049923   -1.005163    0.077104
     95          1           0       -0.391230   -0.067679    0.085521
     96          1           0        3.993086    1.799436   -0.620498
     97          1           0        1.762620    2.195909   -0.307194
     98          1           0        1.189991   -1.467846    0.235899
     99          1           0        2.661124   -1.638847   -0.569462
    100          1           0        2.669483   -1.591370    1.046867
 ---------------------------------------------------------------------

 SCF Done:  E(RCAM-B3LYP) =  -1857.31755299     A.U. after   15 cycles

 Excitation energies and oscillator strengths:

 Excited State   1:      Singlet-A      2.2314 eV  555.64 nm  f=2.8043  <S**2>=0.000
     163 ->166         0.12611
     164 ->165         0.69742
 This state for optimization and/or second-order correction.
 Total Energy, E(TD-HF/TD-DFT) =  -1857.23555209
 Copying the excited state density for this state as the 1-particle RhoCI density.

 The electronic state is 1-A.
 Alpha  occ. eigenvalues --  -19.21793 -19.20971 -19.20679 -19.20565 -10.32584
 Alpha  occ. eigenvalues --  -10.32079 -10.31639 -10.29872 -10.29508 -10.28861
 Alpha  occ. eigenvalues --  -10.28749 -10.28209 -10.27781 -10.27470 -10.27407
 Alpha  occ. eigenvalues --  -10.27343 -10.27293 -10.27053 -10.27051 -10.26994
 Alpha  occ. eigenvalues --  -10.26977 -10.26912 -10.26699 -10.26659 -10.26650
 Alpha  occ. eigenvalues --  -10.26457 -10.26427 -10.26372 -10.26342 -10.26217
 Alpha  occ. eigenvalues --  -10.26131 -10.25882 -10.25881 -10.25849 -10.25697
 Alpha  occ. eigenvalues --  -10.25680 -10.25483 -10.25178 -10.24830 -10.24744
 Alpha  occ. eigenvalues --  -10.24262 -10.24149 -10.23729 -10.22422  -1.14760
 Alpha  occ. eigenvalues --   -1.10007  -1.09534  -1.08269  -0.93355  -0.92554
 Alpha  occ. eigenvalues --   -0.92387  -0.91216  -0.90522  -0.90090  -0.87995
 Alpha  occ. eigenvalues --   -0.87480  -0.86793  -0.85936  -0.84867  -0.83117
 Alpha  occ. eigenvalues --   -0.82292  -0.81132  -0.80083  -0.78506  -0.77253
 Alpha  occ. eigenvalues --   -0.77145  -0.76835  -0.76720  -0.76124  -0.75908
 Alpha  occ. eigenvalues --   -0.74291  -0.74026  -0.73412  -0.71296  -0.71109
 Alpha  occ. eigenvalues --   -0.69302  -0.67337  -0.65651  -0.65181  -0.64746
 Alpha  occ. eigenvalues --   -0.63784  -0.62270  -0.61154  -0.60133  -0.59538
 Alpha  occ. eigenvalues --   -0.59277  -0.58752  -0.58270  -0.58084  -0.57268
 Alpha  occ. eigenvalues --   -0.56907  -0.55902  -0.55507  -0.55237  -0.54556
 Alpha  occ. eigenvalues --   -0.53976  -0.53556  -0.53112  -0.52653  -0.51640
 Alpha  occ. eigenvalues --   -0.50938  -0.50808  -0.50480  -0.50407  -0.50084
 Alpha  occ. eigenvalues --   -0.49526  -0.49180  -0.48814  -0.48508  -0.48436
 Alpha  occ. eigenvalues --   -0.47985  -0.47753  -0.47479  -0.47251  -0.46911
 Alpha  occ. eigenvalues --   -0.46449  -0.46042  -0.45806  -0.45570  -0.45470
 Alpha  occ. eigenvalues --   -0.44988  -0.44890  -0.44790  -0.44568  -0.44007
 Alpha  occ. eigenvalues --   -0.43918  -0.43672  -0.43539  -0.42946  -0.42766
 Alpha  occ. eigenvalues --   -0.42563  -0.42331  -0.42003  -0.41389  -0.41342
 Alpha  occ. eigenvalues --   -0.40960  -0.40694  -0.40402  -0.40254  -0.40032
 Alpha  occ. eigenvalues --   -0.39668  -0.39459  -0.38845  -0.38559  -0.38434
 Alpha  occ. eigenvalues --   -0.38293  -0.38176  -0.37618  -0.37141  -0.36915
 Alpha  occ. eigenvalues --   -0.36295  -0.36150  -0.35922  -0.34827  -0.34123
 Alpha  occ. eigenvalues --   -0.32493  -0.32360  -0.32096  -0.31486  -0.30678
 Alpha  occ. eigenvalues --   -0.29559  -0.28823  -0.25025  -0.19696
 Alpha virt. eigenvalues --   -0.05767  -0.00369   0.04112   0.05348   0.06746
 Alpha virt. eigenvalues --    0.10155   0.10708   0.11073   0.11413   0.12652
 Alpha virt. eigenvalues --    0.12816   0.13279   0.13402   0.13693   0.14155

 Mulliken charges:
               1
     1  O   -0.517174
     2  O   -0.544634
     3  O   -0.591907
     4  O   -0.558047
     5  C    0.200360
     6  C    0.244487
     7  C    0.015574
     8  C   -0.230567
     9  C   -0.204352
    10  C    0.159785
    11  C   -0.332934
    12  C   -0.100461
    13  C   -0.314178
    14  C   -0.293143
    15  C   -0.070783
    16  C    0.046886
    17  C   -0.378163
    18  C   -0.090954
    19  C   -0.054307
    20  C    0.020790
    21  C    0.291373
    22  C   -0.165759
    23  C    0.156058
    24  C   -0.202358
    25  C   -0.080334
    26  C   -0.313384
    27  C   -0.303356
    28  C   -0.303268
    29  C   -0.129110
    30  C    0.138072
    31  C    0.108148
    32  C   -0.236436
    33  C   -0.383679
    34  C   -0.122138
    35  C    0.109269
    36  C   -0.372265
    37  C   -0.088895
    38  C   -0.090511
    39  C   -0.100047
    40  C   -0.100301
    41  C   -0.118856
    42  C   -0.127893
    43  C    0.092023
    44  C   -0.367973
    45  H    0.105774
    46  H    0.134639
    47  H    0.111032
    48  H    0.100711
    49  H    0.096448
    50  H    0.117308
    51  H    0.087694
    52  H    0.130868
    53  H    0.113072
    54  H    0.104432
    55  H    0.111076
    56  H    0.078162
    57  H    0.108769
    58  H    0.088841
    59  H    0.104601
    60  H    0.300212
    61  H    0.086111
    62  H    0.138043
    63  H    0.090053
    64  H    0.113514
    65  H    0.081334
    66  H    0.086009
    67  H    0.086097
    68  H    0.092345
    69  H    0.094124
    70  H    0.125554
    71  H    0.107944
    72  H    0.106303
    73  H    0.112656
    74  H    0.086880
    75  H    0.125404
    76  H    0.080207
    77  H    0.083591
    78  H    0.087733
    79  H    0.104696
    80  H    0.122422
    81  H    0.089126
    82  H    0.314835
    83  H    0.298392
    84  H    0.088117
    85  H    0.136447
    86  H    0.119288
    87  H    0.106555
    88  H    0.075440
    89  H    0.110123
    90  H    0.119590
    91  H    0.127597
    92  H    0.073134
    93  H    0.070964
    94  H    0.062754
    95  H    0.086969
    96  H    0.069355
    97  H    0.090471
    98  H    0.094190
    99  H    0.139067
   100  H    0.128273
 Sum of Mulliken charges =  -0.00000

 Dipole moment (field-independent basis, Debye):
    X=              1.5886    Y=             -0.9367    Z=              1.7781  Tot=              2.5618
 Quadrupole moment (field-independent basis, Debye-Ang):
   XX=           -261.0805   YY=           -258.1576   ZZ=           -278.8583
   XY=             -2.7058   XZ=             32.0568   YZ=             -1.3170

 Normal termination of Gaussian 16 at Mon Jul 29 17:10:22 2019.
