 Gaussian 16, Revision A.03,
 Gaussian 16:  ES64L-G16RevA.03 25-Dec-2016

 -------------------------------------
 # td=(NStates=1) CAM-B3LYP/6-31G(d,p)
 -------------------------------------

 --
 TD
 --
 Symbolic Z-matrix:
 Charge =  0 Multiplicity = 1

                         Standard orientation:
 ---------------------------------------------------------------------
 Center     Atomic      Atomic             Coordinates (Angstroms)
 Number     Number       Type             X           Y           Z
 ---------------------------------------------------------------------
      1          8           0      -11.644041   -0.058910   -1.682130
      2          8           0      -13.183836   -2.256212    1.555347
      3          8           0       10.487239   -1.110876   -2.033849
      4          8           0       14.367820   -1.091158    0.001290
      5          6           0      -11.085554   -0.170831   -0.359295
      6          6           0      -11.615661   -1.274754   -1.068366
      7          6           0      -11.861808    0.558788    0.785147
      8          6           0      -12.855354   -1.977767   -0.719468
      9          6           0      -13.272654    0.025916    0.683518
     10          6           0      -13.578577   -1.455098    0.441533
     11          6           0      -10.632059   -2.247965   -1.945715
     12          6           0       -9.591670   -0.034542   -0.350274
     13          6           0      -11.237264    0.148135    2.166249
     14          6           0      -11.885513    2.042981    0.445915
     15          6           0       -8.551757   -0.807132    0.161347
     16          6           0       -7.117609   -0.610115    0.215765
     17          6           0       -6.354596   -1.734323    0.762024
     18          6           0       -6.648945    0.670168   -0.059495
     19          6           0       -5.209980    0.984448   -0.055928
     20          6           0       11.956350    0.138272    1.325027
     21          6           0       11.588743   -0.677933   -1.295843
     22          6           0       12.647451   -1.258805    1.527507
     23          6           0       13.264027   -1.900293    0.433979
     24          6           0       12.291712   -2.032917   -0.798546
     25          6           0       11.025587    0.047464    0.017442
     26          6           0       11.068343    0.460532    2.477413
     27          6           0       12.912494    1.333240    1.124545
     28          6           0       12.619035    0.088895   -2.155135
     29          6           0       -4.716584    2.199677   -0.357485
     30          6           0        9.867416    0.447375    0.015200
     31          6           0       -3.312535    2.601249   -0.407291
     32          6           0        8.682509    1.066906   -0.091118
     33          6           0       -2.998809    3.996665   -0.754526
     34          6           0       -2.310126    1.651674   -0.285404
     35          6           0        7.531198    0.196164    0.036688
     36          6           0        7.691919   -1.252920    0.239628
     37          6           0        6.267777    0.831188   -0.088948
     38          6           0       -0.927358    1.844315   -0.326774
     39          6           0        4.988911    0.154993   -0.078624
     40          6           0        0.065721    0.851009   -0.192525
     41          6           0        3.844001    0.878350   -0.269284
     42          6           0        1.470313    1.129136   -0.274848
     43          6           0        2.510519    0.366245    0.010070
     44          6           0        2.366288   -1.099394    0.475737
     45          1           0      -12.868834   -3.133524   -0.725915
     46          1           0      -13.604394   -1.774457   -1.715181
     47          1           0      -13.953971    0.497384    1.605211
     48          1           0      -13.743203    0.613331   -0.169315
     49          1           0      -14.806248   -1.573883    0.255850
     50          1           0      -10.413236   -3.175892   -1.327620
     51          1           0      -11.268609   -2.627071   -2.788400
     52          1           0       -9.895256   -1.765990   -2.339689
     53          1           0       -9.199843    0.769011   -1.024153
     54          1           0      -10.257912    0.435578    2.416612
     55          1           0      -11.938843    0.520404    2.921555
     56          1           0      -11.314223   -0.940756    2.300628
     57          1           0      -12.298101    2.367024   -0.549294
     58          1           0      -12.440146    2.409348    1.352518
     59          1           0      -10.910292    2.580114    0.747692
     60          1           0      -12.227600   -2.428974    1.635778
     61          1           0       -9.138764   -1.541859    0.492014
     62          1           0       -5.630447   -2.215236   -0.004165
     63          1           0       -5.604335   -1.679258    1.666001
     64          1           0       -7.058011   -2.637263    0.970479
     65          1           0       -7.190077    1.436248   -0.292553
     66          1           0       -4.474367    0.285586    0.213304
     67          1           0       13.210659   -1.227168    2.393698
     68          1           0       11.675530   -1.806383    1.813178
     69          1           0       13.669610   -2.800776    0.693827
     70          1           0       12.894124   -2.361764   -1.746210
     71          1           0       11.608774   -2.823291   -0.478235
     72          1           0       11.396450    0.877922    3.453908
     73          1           0       10.227543    1.264551    2.122813
     74          1           0       10.307064   -0.350574    2.721065
     75          1           0       13.610669    1.347510    0.384325
     76          1           0       12.223160    2.314051    0.875331
     77          1           0       13.457455    1.616550    1.992873
     78          1           0       12.866061   -0.751431   -2.914292
     79          1           0       12.242467    1.238815   -2.587728
     80          1           0       13.624483    0.257961   -1.562749
     81          1           0       -5.426439    3.044940   -0.584621
     82          1           0       10.096330   -0.357709   -2.429102
     83          1           0       14.911082   -1.043150    0.705780
     84          1           0        8.456821    2.113466   -0.308397
     85          1           0       -2.082623    4.503834   -0.035188
     86          1           0       -2.621509    4.076449   -1.636845
     87          1           0       -3.896175    4.635941   -0.678730
     88          1           0       -2.782890    0.652529   -0.107395
     89          1           0        6.779507   -1.861999    0.258204
     90          1           0        8.575312   -1.636159   -0.501627
     91          1           0        8.025757   -1.472905    1.225050
     92          1           0        6.411576    1.886744   -0.247819
     93          1           0       -0.382952    2.788128   -0.329487
     94          1           0        5.076511   -0.940028    0.169336
     95          1           0       -0.328838   -0.190761   -0.210051
     96          1           0        4.065960    1.907428   -0.452044
     97          1           0        1.638863    2.165119   -0.608099
     98          1           0        1.355814   -1.411760    0.361601
     99          1           0        2.856881   -1.856873    0.033669
    100          1           0        2.900807   -1.155806    1.388285
 ---------------------------------------------------------------------

 SCF Done:  E(RCAM-B3LYP) =  -1857.32334982     A.U. after   14 cycles

 Excitation energies and oscillator strengths:

 Excited State   1:      Singlet-A      2.4331 eV  509.57 nm  f=3.0050  <S**2>=0.000
     163 ->166         0.15764
     164 ->165         0.68064
 This state for optimization and/or second-order correction.
 Total Energy, E(TD-HF/TD-DFT) =  -1857.23393518
 Copying the excited state density for this state as the 1-particle RhoCI density.

 The electronic state is 1-A.
 Alpha  occ. eigenvalues --  -19.22563 -19.21796 -19.21148 -19.20833 -10.33486
 Alpha  occ. eigenvalues --  -10.32283 -10.31707 -10.31655 -10.30404 -10.29151
 Alpha  occ. eigenvalues --  -10.28482 -10.28325 -10.27666 -10.27588 -10.27045
 Alpha  occ. eigenvalues --  -10.27019 -10.26974 -10.26937 -10.26845 -10.26764
 Alpha  occ. eigenvalues --  -10.26643 -10.26588 -10.26422 -10.26356 -10.26315
 Alpha  occ. eigenvalues --  -10.26278 -10.26026 -10.25989 -10.25942 -10.25923
 Alpha  occ. eigenvalues --  -10.25822 -10.25664 -10.25660 -10.25496 -10.25476
 Alpha  occ. eigenvalues --  -10.25443 -10.25382 -10.25345 -10.25345 -10.25169
 Alpha  occ. eigenvalues --  -10.25054 -10.24545 -10.24333 -10.23957  -1.18213
 Alpha  occ. eigenvalues --   -1.12255  -1.11894  -1.09150  -0.93102  -0.92107
 Alpha  occ. eigenvalues --   -0.91513  -0.91235  -0.90550  -0.90076  -0.87059
 Alpha  occ. eigenvalues --   -0.86648  -0.86182  -0.85374  -0.84642  -0.83165
 Alpha  occ. eigenvalues --   -0.82240  -0.80819  -0.79814  -0.78881  -0.77144
 Alpha  occ. eigenvalues --   -0.77043  -0.76881  -0.76013  -0.75705  -0.75398
 Alpha  occ. eigenvalues --   -0.75270  -0.74787  -0.73318  -0.70558  -0.70114
 Alpha  occ. eigenvalues --   -0.68573  -0.66431  -0.65466  -0.65300  -0.64593
 Alpha  occ. eigenvalues --   -0.63553  -0.62322  -0.61473  -0.60878  -0.59788
 Alpha  occ. eigenvalues --   -0.59280  -0.59087  -0.58619  -0.58086  -0.56891
 Alpha  occ. eigenvalues --   -0.56472  -0.55483  -0.55420  -0.55232  -0.54527
 Alpha  occ. eigenvalues --   -0.53936  -0.53481  -0.53195  -0.52768  -0.52123
 Alpha  occ. eigenvalues --   -0.51901  -0.51185  -0.50407  -0.50037  -0.49775
 Alpha  occ. eigenvalues --   -0.49487  -0.49263  -0.48604  -0.48391  -0.48229
 Alpha  occ. eigenvalues --   -0.47755  -0.47590  -0.46998  -0.46905  -0.46594
 Alpha  occ. eigenvalues --   -0.46507  -0.45929  -0.45567  -0.45370  -0.44882
 Alpha  occ. eigenvalues --   -0.44736  -0.44354  -0.43721  -0.43531  -0.43387
 Alpha  occ. eigenvalues --   -0.43383  -0.43230  -0.43064  -0.42741  -0.42545
 Alpha  occ. eigenvalues --   -0.42228  -0.42208  -0.41963  -0.41501  -0.41110
 Alpha  occ. eigenvalues --   -0.40950  -0.40460  -0.40339  -0.40241  -0.39895
 Alpha  occ. eigenvalues --   -0.39172  -0.39059  -0.38969  -0.38650  -0.38538
 Alpha  occ. eigenvalues --   -0.38355  -0.37993  -0.37653  -0.37252  -0.37158
 Alpha  occ. eigenvalues --   -0.36448  -0.35766  -0.35055  -0.34586  -0.34111
 Alpha  occ. eigenvalues --   -0.34026  -0.32882  -0.31874  -0.31676  -0.31276
 Alpha  occ. eigenvalues --   -0.30767  -0.27066  -0.23582  -0.20010
 Alpha virt. eigenvalues --   -0.04762  -0.00508   0.02843   0.07448   0.08589
 Alpha virt. eigenvalues --    0.09548   0.10385   0.10650   0.11207   0.12349
 Alpha virt. eigenvalues --    0.13022   0.13193   0.13598   0.13814   0.14076

 Mulliken charges:
               1
     1  O   -0.485435
     2  O   -0.554242
     3  O   -0.536989
     4  O   -0.531300
     5  C    0.194602
     6  C    0.250849
     7  C    0.021488
     8  C   -0.209733
     9  C   -0.184229
    10  C    0.163638
    11  C   -0.306468
    12  C   -0.139760
    13  C   -0.307205
    14  C   -0.313176
    15  C   -0.064291
    16  C    0.122417
    17  C   -0.391231
    18  C   -0.084861
    19  C   -0.059521
    20  C    0.043632
    21  C    0.257912
    22  C   -0.190632
    23  C    0.158444
    24  C   -0.195324
    25  C   -0.168849
    26  C   -0.327558
    27  C   -0.296552
    28  C   -0.309921
    29  C   -0.130717
    30  C    0.210580
    31  C    0.106067
    32  C   -0.236695
    33  C   -0.364447
    34  C   -0.115439
    35  C    0.109652
    36  C   -0.389001
    37  C   -0.125231
    38  C   -0.091402
    39  C   -0.076699
    40  C   -0.084983
    41  C   -0.118018
    42  C   -0.141736
    43  C    0.109789
    44  C   -0.367290
    45  H    0.116966
    46  H    0.081510
    47  H    0.075065
    48  H    0.106318
    49  H    0.086766
    50  H    0.086038
    51  H    0.099748
    52  H    0.124155
    53  H    0.083304
    54  H    0.125153
    55  H    0.110294
    56  H    0.075412
    57  H    0.134589
    58  H    0.099128
    59  H    0.098768
    60  H    0.308647
    61  H    0.050441
    62  H    0.114767
    63  H    0.121539
    64  H    0.110791
    65  H    0.075622
    66  H    0.079555
    67  H    0.094746
    68  H    0.092216
    69  H    0.092876
    70  H    0.096458
    71  H    0.114494
    72  H    0.104206
    73  H    0.097372
    74  H    0.096602
    75  H    0.122472
    76  H    0.072720
    77  H    0.097372
    78  H    0.109252
    79  H    0.069204
    80  H    0.149822
    81  H    0.074994
    82  H    0.305473
    83  H    0.289521
    84  H    0.112350
    85  H    0.083468
    86  H    0.148811
    87  H    0.104347
    88  H    0.071648
    89  H    0.101616
    90  H    0.132534
    91  H    0.123824
    92  H    0.064110
    93  H    0.079559
    94  H    0.078486
    95  H    0.078374
    96  H    0.085094
    97  H    0.079330
    98  H    0.110163
    99  H    0.126886
   100  H    0.124894
 Sum of Mulliken charges =  -0.00000

 Dipole moment (field-independent basis, Debye):
    X=              4.7754    Y=             -0.4360    Z=              1.9700  Tot=              5.1841
 Quadrupole moment (field-independent basis, Debye-Ang):
   XX=           -250.0488   YY=           -256.8750   ZZ=           -277.3111
   XY=             -5.2936   XZ=             23.9379   YZ=             -5.8394

 Normal termination of Gaussian 16 at Tue Jul 30 21:16:18 2019.
