 Gaussian 16, Revision A.03,
 Gaussian 16:  ES64L-G16RevA.03 25-Dec-2016

 -------------------------------------
 # td=(NStates=1) CAM-B3LYP/6-31G(d,p)
 -------------------------------------

 --
 TD
 --
 Symbolic Z-matrix:
 Charge =  0 Multiplicity = 1

                         Standard orientation:
 ---------------------------------------------------------------------
 Center     Atomic      Atomic             Coordinates (Angstroms)
 Number     Number       Type             X           Y           Z
 ---------------------------------------------------------------------
      1          8           0      -11.879907    0.381442   -1.411159
      2          8           0      -13.303769   -2.442066    1.358869
      3          8           0       10.743152   -0.936976   -2.093799
      4          8           0       14.517948   -0.861110   -0.023991
      5          6           0      -11.050179   -0.144807   -0.275013
      6          6           0      -11.676395   -1.025343   -1.232904
      7          6           0      -11.738771    0.320250    0.952299
      8          6           0      -13.012352   -1.684585   -0.970331
      9          6           0      -13.187303   -0.001711    0.933682
     10          6           0      -13.590105   -1.456885    0.382055
     11          6           0      -10.846277   -1.776762   -2.217513
     12          6           0       -9.614772    0.114971   -0.409230
     13          6           0      -11.011148   -0.227325    2.273230
     14          6           0      -11.672212    1.881474    1.061725
     15          6           0       -8.713719   -0.721059    0.095383
     16          6           0       -7.229920   -0.626624    0.087912
     17          6           0       -6.450171   -1.793152    0.519378
     18          6           0       -6.553554    0.633395   -0.056911
     19          6           0       -5.175423    0.746648   -0.152911
     20          6           0       11.795341   -0.006650    1.458523
     21          6           0       11.756362   -0.494234   -1.191430
     22          6           0       12.633098   -1.375918    1.449351
     23          6           0       13.369406   -1.840564    0.238016
     24          6           0       12.389049   -1.807305   -1.008734
     25          6           0       11.070609    0.025927    0.062615
     26          6           0       10.773779   -0.062667    2.617288
     27          6           0       12.729898    1.158499    1.553949
     28          6           0       12.680708    0.553906   -1.868662
     29          6           0       -4.745475    2.125821   -0.327800
     30          6           0        9.880734    0.596451    0.053371
     31          6           0       -3.411431    2.470352   -0.342254
     32          6           0        8.677359    0.986929   -0.101342
     33          6           0       -3.101487    3.922896   -0.505488
     34          6           0       -2.258703    1.674462   -0.357961
     35          6           0        7.519783    0.145596   -0.055545
     36          6           0        7.716532   -1.329220   -0.080289
     37          6           0        6.256130    0.760111   -0.075774
     38          6           0       -0.880385    1.926212   -0.293293
     39          6           0        5.082166    0.093402    0.038658
     40          6           0        0.137385    0.906005   -0.367903
     41          6           0        3.904201    0.771914   -0.091601
     42          6           0        1.510110    1.186203   -0.182652
     43          6           0        2.566268    0.245045   -0.168080
     44          6           0        2.278880   -1.212856   -0.079721
     45          1           0      -12.826454   -2.780904   -0.968855
     46          1           0      -13.703497   -1.154548   -1.679179
     47          1           0      -13.510653   -0.016725    1.931707
     48          1           0      -13.855251    0.744966    0.449651
     49          1           0      -14.800010   -1.763185    0.266604
     50          1           0      -10.389352   -2.684570   -2.045037
     51          1           0      -11.217574   -1.962912   -3.144174
     52          1           0       -9.864886   -1.312418   -2.596180
     53          1           0       -9.194976    0.916896   -0.850187
     54          1           0      -10.073151    0.341693    2.252558
     55          1           0      -11.757894   -0.064658    3.216306
     56          1           0      -10.909349   -1.449225    2.199251
     57          1           0      -12.156001    2.201188    0.090663
     58          1           0      -12.276820    2.018127    1.940300
     59          1           0      -10.620950    2.191058    1.125723
     60          1           0      -12.420663   -2.949003    1.042799
     61          1           0       -9.090265   -1.506946    0.870449
     62          1           0       -6.077464   -2.265902   -0.488099
     63          1           0       -5.490383   -1.567178    1.110509
     64          1           0       -7.013747   -2.593773    1.131566
     65          1           0       -7.407222    1.392560   -0.268944
     66          1           0       -4.322277   -0.101867    0.087947
     67          1           0       13.360884   -1.264560    2.328684
     68          1           0       12.031801   -2.102928    2.083814
     69          1           0       13.726230   -2.716957    0.298959
     70          1           0       12.888327   -2.087850   -1.908496
     71          1           0       11.670597   -2.521757   -0.731492
     72          1           0       11.427836   -0.209037    3.496548
     73          1           0       10.164012    0.825937    2.467935
     74          1           0       10.233241   -1.081282    2.614086
     75          1           0       13.298058    1.236908    0.654562
     76          1           0       11.941055    1.992682    1.641269
     77          1           0       13.367258    1.248468    2.384830
     78          1           0       13.063398   -0.056402   -2.697449
     79          1           0       11.968301    1.492139   -2.347263
     80          1           0       13.624719    0.769380   -1.298529
     81          1           0       -5.418863    2.989414   -0.185199
     82          1           0       10.108404   -0.197567   -2.069946
     83          1           0       14.939170   -0.685726    0.754029
     84          1           0        8.400558    2.105978   -0.235106
     85          1           0       -2.353631    4.322924    0.152903
     86          1           0       -2.398053    4.328242   -1.250902
     87          1           0       -4.014817    4.508621   -0.488288
     88          1           0       -2.574178    0.637590   -0.407707
     89          1           0        6.815538   -1.925277   -0.159197
     90          1           0        8.560206   -1.448025   -0.871338
     91          1           0        7.971306   -1.748253    0.798063
     92          1           0        6.114418    1.793042   -0.341003
     93          1           0       -0.541924    2.918916   -0.262998
     94          1           0        4.911407   -0.918997    0.144617
     95          1           0       -0.159802   -0.181557   -0.692100
     96          1           0        4.053248    1.835959   -0.330435
     97          1           0        1.679582    2.305001   -0.311322
     98          1           0        1.188707   -1.392917    0.236546
     99          1           0        2.491313   -1.832271   -0.831713
    100          1           0        2.973064   -1.655634    0.864341
 ---------------------------------------------------------------------

 SCF Done:  E(RCAM-B3LYP) =  -1857.29842459     A.U. after   16 cycles

 Excitation energies and oscillator strengths:

 Excited State   1:      Singlet-A      1.8433 eV  672.61 nm  f=2.8414  <S**2>=0.000
     163 ->166         0.12082
     164 ->165         0.70472
     164 <-165        -0.12686
 This state for optimization and/or second-order correction.
 Total Energy, E(TD-HF/TD-DFT) =  -1857.23068391
 Copying the excited state density for this state as the 1-particle RhoCI density.

 The electronic state is 1-A.
 Alpha  occ. eigenvalues --  -19.21972 -19.21705 -19.20997 -19.20872 -10.32197
 Alpha  occ. eigenvalues --  -10.31591 -10.31557 -10.31504 -10.30716 -10.29216
 Alpha  occ. eigenvalues --  -10.28396 -10.28392 -10.28128 -10.28117 -10.27711
 Alpha  occ. eigenvalues --  -10.27533 -10.27487 -10.27452 -10.27389 -10.27285
 Alpha  occ. eigenvalues --  -10.27259 -10.27252 -10.27237 -10.27192 -10.27021
 Alpha  occ. eigenvalues --  -10.26967 -10.26967 -10.26774 -10.26280 -10.26195
 Alpha  occ. eigenvalues --  -10.26044 -10.25874 -10.25843 -10.25772 -10.25751
 Alpha  occ. eigenvalues --  -10.25676 -10.24977 -10.24644 -10.24617 -10.24609
 Alpha  occ. eigenvalues --  -10.24511 -10.24261 -10.24196 -10.24157  -1.14190
 Alpha  occ. eigenvalues --   -1.10431  -1.08500  -1.08318  -0.93312  -0.92449
 Alpha  occ. eigenvalues --   -0.92287  -0.91529  -0.90718  -0.90134  -0.87936
 Alpha  occ. eigenvalues --   -0.87094  -0.86928  -0.86487  -0.85124  -0.83699
 Alpha  occ. eigenvalues --   -0.82445  -0.81238  -0.81052  -0.78683  -0.77626
 Alpha  occ. eigenvalues --   -0.76727  -0.76492  -0.76376  -0.76223  -0.75730
 Alpha  occ. eigenvalues --   -0.75399  -0.74212  -0.72981  -0.70975  -0.70307
 Alpha  occ. eigenvalues --   -0.68883  -0.67630  -0.65931  -0.65219  -0.64440
 Alpha  occ. eigenvalues --   -0.64033  -0.62540  -0.61768  -0.60677  -0.58981
 Alpha  occ. eigenvalues --   -0.58776  -0.58489  -0.58192  -0.57489  -0.57330
 Alpha  occ. eigenvalues --   -0.56238  -0.55881  -0.55535  -0.55265  -0.54846
 Alpha  occ. eigenvalues --   -0.53683  -0.53636  -0.52361  -0.52158  -0.52106
 Alpha  occ. eigenvalues --   -0.51522  -0.51247  -0.50687  -0.50323  -0.49709
 Alpha  occ. eigenvalues --   -0.49627  -0.49498  -0.48993  -0.48605  -0.48406
 Alpha  occ. eigenvalues --   -0.48226  -0.47950  -0.47745  -0.47364  -0.46978
 Alpha  occ. eigenvalues --   -0.46756  -0.45736  -0.45471  -0.45226  -0.45030
 Alpha  occ. eigenvalues --   -0.44903  -0.44709  -0.44479  -0.44152  -0.43965
 Alpha  occ. eigenvalues --   -0.43679  -0.43431  -0.42703  -0.42677  -0.42595
 Alpha  occ. eigenvalues --   -0.42293  -0.42165  -0.42051  -0.41531  -0.41207
 Alpha  occ. eigenvalues --   -0.41024  -0.40820  -0.40738  -0.40420  -0.40282
 Alpha  occ. eigenvalues --   -0.40074  -0.39493  -0.39084  -0.38779  -0.38717
 Alpha  occ. eigenvalues --   -0.38218  -0.37893  -0.37331  -0.37277  -0.36985
 Alpha  occ. eigenvalues --   -0.36653  -0.36550  -0.35371  -0.34837  -0.33801
 Alpha  occ. eigenvalues --   -0.33709  -0.32830  -0.32440  -0.31851  -0.30537
 Alpha  occ. eigenvalues --   -0.29842  -0.28085  -0.24003  -0.18838
 Alpha virt. eigenvalues --   -0.07244  -0.01347   0.03040   0.05932   0.06447
 Alpha virt. eigenvalues --    0.08470   0.09746   0.10748   0.10780   0.11606
 Alpha virt. eigenvalues --    0.11937   0.12316   0.13497   0.14042   0.14278

 Mulliken charges:
               1
     1  O   -0.524371
     2  O   -0.547508
     3  O   -0.553959
     4  O   -0.570490
     5  C    0.207391
     6  C    0.277561
     7  C   -0.001997
     8  C   -0.206300
     9  C   -0.181220
    10  C    0.161333
    11  C   -0.372430
    12  C   -0.110723
    13  C   -0.283301
    14  C   -0.299524
    15  C   -0.081776
    16  C    0.062348
    17  C   -0.372474
    18  C   -0.085170
    19  C   -0.100853
    20  C    0.007231
    21  C    0.229935
    22  C   -0.229194
    23  C    0.172618
    24  C   -0.177321
    25  C   -0.039561
    26  C   -0.302815
    27  C   -0.280401
    28  C   -0.287167
    29  C   -0.129973
    30  C    0.136965
    31  C    0.138200
    32  C   -0.316908
    33  C   -0.395711
    34  C   -0.116212
    35  C    0.113841
    36  C   -0.368864
    37  C   -0.119569
    38  C   -0.082714
    39  C   -0.036617
    40  C   -0.093019
    41  C   -0.127309
    42  C   -0.120605
    43  C    0.104888
    44  C   -0.371870
    45  H    0.089826
    46  H    0.136665
    47  H    0.107307
    48  H    0.101992
    49  H    0.064315
    50  H    0.119209
    51  H    0.124652
    52  H    0.108271
    53  H    0.097495
    54  H    0.118291
    55  H    0.093484
    56  H    0.069116
    57  H    0.128470
    58  H    0.110405
    59  H    0.094373
    60  H    0.291332
    61  H    0.076613
    62  H    0.114138
    63  H    0.115105
    64  H    0.106944
    65  H    0.084063
    66  H    0.117398
    67  H    0.070152
    68  H    0.092502
    69  H    0.094565
    70  H    0.118888
    71  H    0.123400
    72  H    0.098756
    73  H    0.121913
    74  H    0.101114
    75  H    0.122245
    76  H    0.083639
    77  H    0.098781
    78  H    0.111189
    79  H    0.068512
    80  H    0.146224
    81  H    0.101253
    82  H    0.297423
    83  H    0.296333
    84  H    0.102327
    85  H    0.115266
    86  H    0.117116
    87  H    0.098805
    88  H    0.050998
    89  H    0.104620
    90  H    0.125009
    91  H    0.130116
    92  H    0.082341
    93  H    0.076126
    94  H    0.071057
    95  H    0.087007
    96  H    0.071778
    97  H    0.086131
    98  H    0.111769
    99  H    0.142969
   100  H    0.085829
 Sum of Mulliken charges =  -0.00000

 Dipole moment (field-independent basis, Debye):
    X=              3.0327    Y=             -1.5885    Z=              1.6922  Tot=              3.8189
 Quadrupole moment (field-independent basis, Debye-Ang):
   XX=           -302.6848   YY=           -256.2122   ZZ=           -280.5460
   XY=              1.9687   XZ=             37.0853   YZ=             -0.3190

 Normal termination of Gaussian 16 at Mon Jul 29 05:57:25 2019.
