 Gaussian 16, Revision A.03,
 Gaussian 16:  ES64L-G16RevA.03 25-Dec-2016

 -------------------------------------
 # td=(NStates=1) CAM-B3LYP/6-31G(d,p)
 -------------------------------------

 --
 TD
 --
 Symbolic Z-matrix:
 Charge =  0 Multiplicity = 1

                         Standard orientation:
 ---------------------------------------------------------------------
 Center     Atomic      Atomic             Coordinates (Angstroms)
 Number     Number       Type             X           Y           Z
 ---------------------------------------------------------------------
      1          8           0      -11.701538    0.151258   -1.595982
      2          8           0      -13.028517   -2.515295    1.315030
      3          8           0       10.519280   -1.268700   -2.008150
      4          8           0       14.560855   -1.018676   -0.293450
      5          6           0      -10.972803   -0.094795   -0.330156
      6          6           0      -11.640676   -1.092058   -1.219220
      7          6           0      -11.777332    0.405454    0.862907
      8          6           0      -12.954482   -1.871762   -0.975101
      9          6           0      -13.298562   -0.112722    0.806079
     10          6           0      -13.585275   -1.528198    0.390698
     11          6           0      -10.689171   -1.852495   -2.093384
     12          6           0       -9.527148    0.068601   -0.356807
     13          6           0      -11.156468   -0.074753    2.235410
     14          6           0      -11.809441    1.923774    0.844771
     15          6           0       -8.642659   -0.758359    0.231137
     16          6           0       -7.231049   -0.479030    0.295596
     17          6           0       -6.448617   -1.725142    0.737407
     18          6           0       -6.626656    0.645067   -0.024750
     19          6           0       -5.203751    0.913606   -0.126503
     20          6           0       12.014283    0.162030    1.294068
     21          6           0       11.667411   -0.738998   -1.268336
     22          6           0       12.722216   -1.177904    1.464740
     23          6           0       13.413692   -1.770850    0.219836
     24          6           0       12.414115   -2.028686   -0.854195
     25          6           0       11.083741   -0.135000   -0.005397
     26          6           0       11.125811    0.460316    2.512695
     27          6           0       12.943645    1.332942    1.035012
     28          6           0       12.383930    0.146450   -2.136618
     29          6           0       -4.662003    2.160294   -0.460773
     30          6           0        9.855823    0.503688   -0.058664
     31          6           0       -3.408303    2.512330   -0.521071
     32          6           0        8.588959    0.925460   -0.252733
     33          6           0       -2.905772    3.918818   -0.821482
     34          6           0       -2.347367    1.576057   -0.472455
     35          6           0        7.464570    0.191569    0.100126
     36          6           0        7.521777   -1.342517    0.381289
     37          6           0        6.226036    0.839884    0.084070
     38          6           0       -0.993178    1.922635   -0.388026
     39          6           0        4.997537    0.174266    0.315972
     40          6           0        0.016081    0.982664   -0.056931
     41          6           0        3.718666    0.790402    0.174522
     42          6           0        1.316946    1.159599   -0.065855
     43          6           0        2.419836    0.429675    0.175315
     44          6           0        2.227457   -1.073126    0.542109
     45          1           0      -12.867011   -2.947335   -1.357838
     46          1           0      -13.504532   -1.645105   -1.877066
     47          1           0      -13.734432    0.112598    1.809373
     48          1           0      -13.786224    0.638600    0.183180
     49          1           0      -14.650186   -1.732164    0.089254
     50          1           0      -10.463583   -3.000628   -1.875768
     51          1           0      -11.160763   -1.941487   -3.262945
     52          1           0       -9.783855   -1.278178   -2.157386
     53          1           0       -9.312753    1.051469   -0.937865
     54          1           0      -10.157960    0.272308    2.413470
     55          1           0      -11.922897    0.261367    2.840864
     56          1           0      -11.226681   -1.193312    2.221129
     57          1           0      -12.110442    2.210035   -0.132064
     58          1           0      -12.309552    2.383678    1.694951
     59          1           0      -10.743584    2.165743    0.706539
     60          1           0      -12.094362   -2.472686    1.269565
     61          1           0       -8.930661   -1.920066    0.730579
     62          1           0       -6.087658   -2.160709   -0.274838
     63          1           0       -5.478892   -1.238932    1.213024
     64          1           0       -6.846478   -2.368617    1.431419
     65          1           0       -7.131824    1.525442   -0.543320
     66          1           0       -4.468378    0.265492    0.198416
     67          1           0       13.428344   -1.110806    2.291442
     68          1           0       11.844011   -1.863424    1.801748
     69          1           0       13.894599   -2.707293    0.504327
     70          1           0       12.693750   -2.347755   -1.814637
     71          1           0       11.718023   -2.932491   -0.350847
     72          1           0       11.721275    0.775522    3.354994
     73          1           0       10.784767    1.413075    2.396984
     74          1           0       10.411469   -0.359082    2.650643
     75          1           0       13.787689    1.104276    0.162183
     76          1           0       12.618714    2.096916    0.721169
     77          1           0       13.430679    1.616761    1.929705
     78          1           0       12.792608   -0.328115   -2.958336
     79          1           0       11.773634    1.103160   -2.605146
     80          1           0       13.420375    0.590075   -1.783060
     81          1           0       -5.358832    2.987531   -0.595535
     82          1           0       10.151082   -0.333814   -2.347184
     83          1           0       15.208362   -0.704023    0.463879
     84          1           0        8.418213    1.781102   -0.890595
     85          1           0       -2.571520    4.388894    0.054826
     86          1           0       -2.237416    4.084670   -1.728015
     87          1           0       -3.853395    4.259580   -1.037552
     88          1           0       -2.803789    0.446808   -0.590321
     89          1           0        6.514186   -1.557838    0.130378
     90          1           0        8.205452   -1.835669   -0.248293
     91          1           0        7.810740   -1.340892    1.561033
     92          1           0        6.112588    1.885679    0.011734
     93          1           0       -0.708033    2.863802   -0.499714
     94          1           0        5.139073   -0.904385    0.544698
     95          1           0       -0.348513   -0.075802    0.158203
     96          1           0        4.020450    1.794983   -0.189359
     97          1           0        1.657432    2.175852   -0.330627
     98          1           0        1.195560   -1.424717    0.838756
     99          1           0        3.061660   -1.593189   -0.216375
    100          1           0        2.587932   -1.460734    1.594829
 ---------------------------------------------------------------------

 SCF Done:  E(RCAM-B3LYP) =  -1857.21339572     A.U. after   16 cycles

 Excitation energies and oscillator strengths:

 Excited State   1:      Singlet-A      1.8321 eV  676.73 nm  f=3.1903  <S**2>=0.000
     163 ->166         0.12180
     164 ->165         0.70429
     164 <-165        -0.13176
 This state for optimization and/or second-order correction.
 Total Energy, E(TD-HF/TD-DFT) =  -1857.14606669
 Copying the excited state density for this state as the 1-particle RhoCI density.

 The electronic state is 1-A.
 Alpha  occ. eigenvalues --  -19.22386 -19.22312 -19.21559 -19.20471 -10.32164
 Alpha  occ. eigenvalues --  -10.31569 -10.31510 -10.31249 -10.31027 -10.29144
 Alpha  occ. eigenvalues --  -10.28578 -10.28219 -10.28106 -10.27902 -10.27705
 Alpha  occ. eigenvalues --  -10.27601 -10.27231 -10.27226 -10.27205 -10.27178
 Alpha  occ. eigenvalues --  -10.27174 -10.26986 -10.26707 -10.26676 -10.26576
 Alpha  occ. eigenvalues --  -10.26498 -10.26473 -10.26228 -10.26182 -10.26153
 Alpha  occ. eigenvalues --  -10.26123 -10.26098 -10.25861 -10.25770 -10.25766
 Alpha  occ. eigenvalues --  -10.25568 -10.25497 -10.25205 -10.25169 -10.24760
 Alpha  occ. eigenvalues --  -10.24263 -10.24180 -10.23988 -10.23379  -1.18689
 Alpha  occ. eigenvalues --   -1.08686  -1.08342  -1.07544  -0.93338  -0.92891
 Alpha  occ. eigenvalues --   -0.92466  -0.91903  -0.91296  -0.90468  -0.87734
 Alpha  occ. eigenvalues --   -0.87229  -0.86231  -0.85373  -0.84737  -0.83347
 Alpha  occ. eigenvalues --   -0.82443  -0.80846  -0.79987  -0.78725  -0.78108
 Alpha  occ. eigenvalues --   -0.77491  -0.77135  -0.76966  -0.76921  -0.75556
 Alpha  occ. eigenvalues --   -0.75146  -0.74831  -0.73018  -0.71060  -0.70118
 Alpha  occ. eigenvalues --   -0.69112  -0.67984  -0.65625  -0.64988  -0.64665
 Alpha  occ. eigenvalues --   -0.63370  -0.62188  -0.60836  -0.60673  -0.60184
 Alpha  occ. eigenvalues --   -0.58944  -0.58034  -0.57557  -0.56989  -0.56119
 Alpha  occ. eigenvalues --   -0.55901  -0.55417  -0.55150  -0.54976  -0.54717
 Alpha  occ. eigenvalues --   -0.54167  -0.53740  -0.53256  -0.52898  -0.52805
 Alpha  occ. eigenvalues --   -0.52413  -0.51768  -0.50202  -0.50167  -0.49957
 Alpha  occ. eigenvalues --   -0.49597  -0.49496  -0.49469  -0.48947  -0.48626
 Alpha  occ. eigenvalues --   -0.48186  -0.48089  -0.47930  -0.47472  -0.47236
 Alpha  occ. eigenvalues --   -0.46778  -0.46260  -0.46169  -0.45837  -0.45607
 Alpha  occ. eigenvalues --   -0.45465  -0.45095  -0.44480  -0.44303  -0.44211
 Alpha  occ. eigenvalues --   -0.43765  -0.43721  -0.43645  -0.43015  -0.42140
 Alpha  occ. eigenvalues --   -0.42001  -0.41915  -0.41621  -0.41272  -0.41237
 Alpha  occ. eigenvalues --   -0.40727  -0.40527  -0.40389  -0.40073  -0.39747
 Alpha  occ. eigenvalues --   -0.39335  -0.39005  -0.38745  -0.38592  -0.38145
 Alpha  occ. eigenvalues --   -0.37735  -0.37670  -0.37370  -0.36992  -0.36760
 Alpha  occ. eigenvalues --   -0.35981  -0.35850  -0.35367  -0.33943  -0.33325
 Alpha  occ. eigenvalues --   -0.33185  -0.32224  -0.32121  -0.31471  -0.31058
 Alpha  occ. eigenvalues --   -0.29313  -0.28482  -0.24519  -0.18688
 Alpha virt. eigenvalues --   -0.07444  -0.01137   0.02733   0.04932   0.06214
 Alpha virt. eigenvalues --    0.08646   0.09372   0.10619   0.11767   0.12251
 Alpha virt. eigenvalues --    0.12479   0.12622   0.12821   0.13276   0.13462

 Mulliken charges:
               1
     1  O   -0.479504
     2  O   -0.550145
     3  O   -0.559046
     4  O   -0.576532
     5  C    0.157576
     6  C    0.281667
     7  C   -0.010409
     8  C   -0.227454
     9  C   -0.188854
    10  C    0.146083
    11  C   -0.310580
    12  C   -0.140424
    13  C   -0.280188
    14  C   -0.312928
    15  C   -0.063872
    16  C    0.090487
    17  C   -0.364212
    18  C   -0.111168
    19  C   -0.088311
    20  C    0.021765
    21  C    0.231813
    22  C   -0.185617
    23  C    0.173294
    24  C   -0.170693
    25  C   -0.036417
    26  C   -0.304719
    27  C   -0.293688
    28  C   -0.315755
    29  C   -0.117357
    30  C    0.074213
    31  C    0.086775
    32  C   -0.260795
    33  C   -0.364941
    34  C   -0.117360
    35  C    0.081716
    36  C   -0.336303
    37  C   -0.096442
    38  C   -0.080094
    39  C   -0.093013
    40  C   -0.076583
    41  C   -0.151023
    42  C   -0.111466
    43  C    0.158874
    44  C   -0.373350
    45  H    0.106712
    46  H    0.109515
    47  H    0.099639
    48  H    0.112346
    49  H    0.108653
    50  H    0.082004
    51  H    0.064013
    52  H    0.116497
    53  H    0.120214
    54  H    0.116239
    55  H    0.111503
    56  H    0.066987
    57  H    0.128107
    58  H    0.107258
    59  H    0.092967
    60  H    0.307479
    61  H    0.077489
    62  H    0.126805
    63  H    0.099758
    64  H    0.121809
    65  H    0.079682
    66  H    0.080942
    67  H    0.083404
    68  H    0.094364
    69  H    0.091383
    70  H    0.118001
    71  H    0.100508
    72  H    0.094586
    73  H    0.119214
    74  H    0.110546
    75  H    0.087198
    76  H    0.112228
    77  H    0.089419
    78  H    0.133002
    79  H    0.076978
    80  H    0.127900
    81  H    0.071812
    82  H    0.299778
    83  H    0.311873
    84  H    0.112634
    85  H    0.133686
    86  H    0.122290
    87  H    0.104386
    88  H    0.076332
    89  H    0.115625
    90  H    0.147611
    91  H    0.107525
    92  H    0.083355
    93  H    0.086156
    94  H    0.085176
    95  H    0.075407
    96  H    0.063556
    97  H    0.063188
    98  H    0.109568
    99  H    0.101951
   100  H    0.097724
 Sum of Mulliken charges =  -0.00000

 Dipole moment (field-independent basis, Debye):
    X=              5.7173    Y=              1.7628    Z=              1.5385  Tot=              6.1776
 Quadrupole moment (field-independent basis, Debye-Ang):
   XX=           -249.3888   YY=           -264.4946   ZZ=           -275.6076
   XY=              1.9313   XZ=             23.4238   YZ=             -3.5329

 Normal termination of Gaussian 16 at Tue Jul 30 12:08:05 2019.
