 Gaussian 16, Revision A.03,
 Gaussian 16:  ES64L-G16RevA.03 25-Dec-2016

 -------------------------------------
 # td=(NStates=1) CAM-B3LYP/6-31G(d,p)
 -------------------------------------

 --
 TD
 --
 Symbolic Z-matrix:
 Charge =  0 Multiplicity = 1

                         Standard orientation:
 ---------------------------------------------------------------------
 Center     Atomic      Atomic             Coordinates (Angstroms)
 Number     Number       Type             X           Y           Z
 ---------------------------------------------------------------------
      1          8           0      -11.766349    0.657364   -1.253803
      2          8           0      -12.875213   -2.700483    1.072009
      3          8           0       10.685349   -0.821500   -2.160598
      4          8           0       14.519373   -0.737812   -0.050296
      5          6           0      -11.115986   -0.125009   -0.183155
      6          6           0      -11.815202   -0.787268   -1.378088
      7          6           0      -11.740030    0.217545    1.111567
      8          6           0      -13.178093   -1.475484   -1.127174
      9          6           0      -13.204866   -0.193265    1.137655
     10          6           0      -13.489924   -1.550522    0.454977
     11          6           0      -10.990189   -1.489682   -2.523330
     12          6           0       -9.543863    0.181443   -0.275519
     13          6           0      -10.961908   -0.542387    2.195168
     14          6           0      -11.635669    1.694506    1.374756
     15          6           0       -8.672923   -0.697166    0.025676
     16          6           0       -7.228702   -0.540802   -0.007604
     17          6           0       -6.434782   -1.865878    0.208420
     18          6           0       -6.578887    0.516042   -0.252802
     19          6           0       -5.185703    0.857754   -0.252516
     20          6           0       11.882073   -0.197221    1.410763
     21          6           0       11.665687   -0.397422   -1.317707
     22          6           0       12.689409   -1.457464    1.411907
     23          6           0       13.357614   -1.645114    0.052642
     24          6           0       12.456636   -1.664774   -1.191334
     25          6           0       11.048399   -0.009370   -0.006061
     26          6           0       10.902416   -0.236909    2.670708
     27          6           0       12.772609    0.990574    1.536348
     28          6           0       12.511895    0.668604   -1.981856
     29          6           0       -4.666888    2.148456   -0.318016
     30          6           0        9.956255    0.466442   -0.002646
     31          6           0       -3.261939    2.547276   -0.357046
     32          6           0        8.623810    0.880641   -0.055796
     33          6           0       -3.052860    4.036515   -0.316119
     34          6           0       -2.295471    1.582092   -0.244754
     35          6           0        7.462366    0.045082   -0.095614
     36          6           0        7.580964   -1.404119    0.145550
     37          6           0        6.295491    0.774848   -0.158225
     38          6           0       -0.931473    1.930841   -0.177717
     39          6           0        5.021114    0.137970   -0.076778
     40          6           0        0.109364    0.883876    0.015121
     41          6           0        3.786009    0.896378    0.024398
     42          6           0        1.371289    1.205403   -0.052228
     43          6           0        2.485506    0.368488    0.033240
     44          6           0        2.347610   -1.181193    0.078730
     45          1           0      -13.127779   -2.468196   -1.316892
     46          1           0      -14.001198   -0.941876   -1.752010
     47          1           0      -13.986089   -0.246966    2.104714
     48          1           0      -13.943430    0.453191    0.595754
     49          1           0      -14.460417   -1.868846    0.507815
     50          1           0      -10.580734   -2.457152   -2.452276
     51          1           0      -11.906566   -1.543270   -3.238070
     52          1           0      -10.155988   -0.685167   -2.709275
     53          1           0       -9.444539    1.151805   -0.839824
     54          1           0       -9.961378   -0.063758    2.270437
     55          1           0      -11.654337   -0.316487    3.256207
     56          1           0      -10.752425   -1.564469    2.007777
     57          1           0      -12.088454    2.162265    0.456462
     58          1           0      -12.075413    1.664002    2.286651
     59          1           0      -10.633871    1.898054    1.433859
     60          1           0      -12.111164   -3.014612    0.476243
     61          1           0       -8.932176   -1.798761    0.183069
     62          1           0       -6.008975   -2.098035   -0.674761
     63          1           0       -5.769439   -1.639676    1.099965
     64          1           0       -6.933163   -2.717425    0.472018
     65          1           0       -7.211081    1.417660   -0.139830
     66          1           0       -4.514827    0.009848   -0.448119
     67          1           0       13.318806   -1.638737    2.189352
     68          1           0       11.982294   -2.340958    1.200271
     69          1           0       13.895900   -2.671994    0.122631
     70          1           0       13.039038   -1.833457   -2.054762
     71          1           0       11.676902   -2.470180   -0.779359
     72          1           0       11.377529   -0.426859    3.594758
     73          1           0       10.063631    0.614489    2.675013
     74          1           0       10.380904   -1.183778    2.564758
     75          1           0       13.698987    1.244818    0.838328
     76          1           0       12.227280    1.958148    1.702782
     77          1           0       13.451002    0.780932    2.556846
     78          1           0       12.644768    0.224520   -2.871201
     79          1           0       11.785198    1.678300   -2.174884
     80          1           0       13.323236    0.977801   -1.409176
     81          1           0       -5.418433    2.966407   -0.436996
     82          1           0        9.964162   -0.067532   -2.047698
     83          1           0       15.144586   -0.834880    0.720196
     84          1           0        8.547491    1.920080   -0.236813
     85          1           0       -2.381809    4.244156    0.644229
     86          1           0       -2.503202    4.175951   -1.163401
     87          1           0       -3.833758    4.643104   -0.178753
     88          1           0       -2.579222    0.508258   -0.158788
     89          1           0        6.790545   -2.214378    0.224187
     90          1           0        8.183245   -1.962330   -0.628975
     91          1           0        7.870850   -1.572245    1.217937
     92          1           0        6.600823    1.787067    0.013961
     93          1           0       -0.395134    2.932879   -0.159290
     94          1           0        5.164820   -0.883083   -0.216165
     95          1           0       -0.392570   -0.063861    0.071948
     96          1           0        3.786855    2.054784    0.084856
     97          1           0        1.436671    2.457409    0.006006
     98          1           0        1.295254   -1.478394    0.280120
     99          1           0        2.732906   -1.792254   -0.818497
    100          1           0        2.821657   -1.665221    0.974934
 ---------------------------------------------------------------------

 SCF Done:  E(RCAM-B3LYP) =  -1857.23390940     A.U. after   15 cycles

 Excitation energies and oscillator strengths:

 Excited State   1:      Singlet-A      1.9765 eV  627.29 nm  f=3.2423  <S**2>=0.000
     163 ->166         0.12051
     164 ->165         0.70309
     164 <-165        -0.12186
 This state for optimization and/or second-order correction.
 Total Energy, E(TD-HF/TD-DFT) =  -1857.16127359
 Copying the excited state density for this state as the 1-particle RhoCI density.

 The electronic state is 1-A.
 Alpha  occ. eigenvalues --  -19.22419 -19.21593 -19.20702 -19.20607 -10.33510
 Alpha  occ. eigenvalues --  -10.31509 -10.31382 -10.30516 -10.30095 -10.29232
 Alpha  occ. eigenvalues --  -10.27831 -10.27799 -10.27728 -10.27695 -10.27671
 Alpha  occ. eigenvalues --  -10.27456 -10.27252 -10.27251 -10.27177 -10.26786
 Alpha  occ. eigenvalues --  -10.26769 -10.26721 -10.26705 -10.26681 -10.26627
 Alpha  occ. eigenvalues --  -10.26579 -10.26578 -10.26522 -10.26249 -10.26205
 Alpha  occ. eigenvalues --  -10.26187 -10.26101 -10.25947 -10.25864 -10.25703
 Alpha  occ. eigenvalues --  -10.25653 -10.25458 -10.25434 -10.25175 -10.25136
 Alpha  occ. eigenvalues --  -10.24709 -10.24243 -10.23571 -10.22402  -1.13391
 Alpha  occ. eigenvalues --   -1.11170  -1.08053  -1.07019  -0.93182  -0.92837
 Alpha  occ. eigenvalues --   -0.92117  -0.91762  -0.91351  -0.90461  -0.87243
 Alpha  occ. eigenvalues --   -0.86400  -0.86201  -0.86013  -0.85313  -0.82679
 Alpha  occ. eigenvalues --   -0.81886  -0.80748  -0.80642  -0.79229  -0.78153
 Alpha  occ. eigenvalues --   -0.77426  -0.76353  -0.76206  -0.75821  -0.75743
 Alpha  occ. eigenvalues --   -0.75260  -0.73648  -0.72714  -0.70790  -0.69431
 Alpha  occ. eigenvalues --   -0.68579  -0.67046  -0.64948  -0.64626  -0.63960
 Alpha  occ. eigenvalues --   -0.63407  -0.62471  -0.61555  -0.61024  -0.59388
 Alpha  occ. eigenvalues --   -0.58897  -0.58315  -0.57830  -0.57099  -0.56226
 Alpha  occ. eigenvalues --   -0.55894  -0.55613  -0.55127  -0.54481  -0.54204
 Alpha  occ. eigenvalues --   -0.53055  -0.52763  -0.52258  -0.51889  -0.51756
 Alpha  occ. eigenvalues --   -0.51522  -0.51238  -0.50724  -0.50584  -0.50477
 Alpha  occ. eigenvalues --   -0.50306  -0.49938  -0.49572  -0.49036  -0.48509
 Alpha  occ. eigenvalues --   -0.47961  -0.47373  -0.47199  -0.46805  -0.46713
 Alpha  occ. eigenvalues --   -0.46630  -0.46463  -0.46301  -0.45670  -0.45107
 Alpha  occ. eigenvalues --   -0.45046  -0.44560  -0.44526  -0.44262  -0.44051
 Alpha  occ. eigenvalues --   -0.43450  -0.43260  -0.42805  -0.42393  -0.42310
 Alpha  occ. eigenvalues --   -0.42215  -0.41918  -0.41082  -0.41075  -0.40703
 Alpha  occ. eigenvalues --   -0.40642  -0.40490  -0.40117  -0.40018  -0.39784
 Alpha  occ. eigenvalues --   -0.39427  -0.38990  -0.38863  -0.38717  -0.38382
 Alpha  occ. eigenvalues --   -0.38227  -0.38048  -0.37825  -0.37321  -0.36886
 Alpha  occ. eigenvalues --   -0.36190  -0.35704  -0.34522  -0.34394  -0.33716
 Alpha  occ. eigenvalues --   -0.32872  -0.32533  -0.31985  -0.31660  -0.30932
 Alpha  occ. eigenvalues --   -0.30569  -0.27897  -0.24815  -0.18704
 Alpha virt. eigenvalues --   -0.06757  -0.00536   0.02887   0.06664   0.09026
 Alpha virt. eigenvalues --    0.09248   0.09555   0.10006   0.10716   0.11718
 Alpha virt. eigenvalues --    0.12275   0.13089   0.13389   0.13943   0.14272

 Mulliken charges:
               1
     1  O   -0.519933
     2  O   -0.560610
     3  O   -0.560960
     4  O   -0.578716
     5  C    0.150252
     6  C    0.248590
     7  C    0.013709
     8  C   -0.240327
     9  C   -0.181590
    10  C    0.162713
    11  C   -0.322605
    12  C   -0.139004
    13  C   -0.274277
    14  C   -0.281493
    15  C   -0.039490
    16  C    0.088774
    17  C   -0.378901
    18  C   -0.138878
    19  C   -0.072689
    20  C    0.038256
    21  C    0.231517
    22  C   -0.172121
    23  C    0.140970
    24  C   -0.166488
    25  C   -0.161570
    26  C   -0.309648
    27  C   -0.279650
    28  C   -0.266018
    29  C   -0.133594
    30  C    0.169963
    31  C    0.078928
    32  C   -0.277257
    33  C   -0.348553
    34  C   -0.120099
    35  C    0.152332
    36  C   -0.401777
    37  C   -0.088047
    38  C   -0.109302
    39  C   -0.105081
    40  C   -0.050783
    41  C   -0.125421
    42  C   -0.122454
    43  C    0.108922
    44  C   -0.374518
    45  H    0.106009
    46  H    0.114966
    47  H    0.078921
    48  H    0.103281
    49  H    0.098829
    50  H    0.120717
    51  H    0.103661
    52  H    0.120037
    53  H    0.126972
    54  H    0.101836
    55  H    0.064889
    56  H    0.106239
    57  H    0.125912
    58  H    0.108686
    59  H    0.101299
    60  H    0.301009
    61  H    0.080329
    62  H    0.133940
    63  H    0.117479
    64  H    0.105757
    65  H    0.068056
    66  H    0.084088
    67  H    0.099028
    68  H    0.087213
    69  H    0.063838
    70  H    0.120003
    71  H    0.106996
    72  H    0.108211
    73  H    0.101343
    74  H    0.103091
    75  H    0.124888
    76  H    0.099716
    77  H    0.043211
    78  H    0.121530
    79  H    0.046445
    80  H    0.137528
    81  H    0.083139
    82  H    0.298710
    83  H    0.305210
    84  H    0.114466
    85  H    0.106493
    86  H    0.139787
    87  H    0.122521
    88  H    0.098010
    89  H    0.113498
    90  H    0.130813
    91  H    0.131040
    92  H    0.084832
    93  H    0.085291
    94  H    0.093728
    95  H    0.083469
    96  H    0.083542
    97  H    0.066030
    98  H    0.105202
    99  H    0.117769
   100  H    0.117426
 Sum of Mulliken charges =  -0.00000

 Dipole moment (field-independent basis, Debye):
    X=              1.6387    Y=             -1.7404    Z=              1.2019  Tot=              2.6757
 Quadrupole moment (field-independent basis, Debye-Ang):
   XX=           -276.6593   YY=           -256.3432   ZZ=           -281.0109
   XY=             -1.3992   XZ=             46.0902   YZ=              1.8357

 Normal termination of Gaussian 16 at Thu Aug  1 19:28:28 2019.
