 Gaussian 16, Revision A.03,
 Gaussian 16:  ES64L-G16RevA.03 25-Dec-2016

 -------------------------------------
 # td=(NStates=1) CAM-B3LYP/6-31G(d,p)
 -------------------------------------

 --
 TD
 --
 Symbolic Z-matrix:
 Charge =  0 Multiplicity = 1

                         Standard orientation:
 ---------------------------------------------------------------------
 Center     Atomic      Atomic             Coordinates (Angstroms)
 Number     Number       Type             X           Y           Z
 ---------------------------------------------------------------------
      1          8           0      -11.707495    0.404769   -1.441117
      2          8           0      -13.004060   -2.509644    1.324541
      3          8           0       10.619239   -0.893548   -2.086577
      4          8           0       14.494619   -1.057019   -0.377652
      5          6           0      -10.986931   -0.077106   -0.283352
      6          6           0      -11.651401   -1.038807   -1.149449
      7          6           0      -11.771223    0.380894    1.027290
      8          6           0      -12.961188   -1.756125   -0.929947
      9          6           0      -13.367244   -0.021346    0.899879
     10          6           0      -13.534141   -1.465949    0.510729
     11          6           0      -10.859096   -1.820349   -2.238605
     12          6           0       -9.589553    0.192288   -0.334897
     13          6           0      -11.133940   -0.165027    2.170029
     14          6           0      -11.807242    1.938019    1.011391
     15          6           0       -8.659863   -0.752268   -0.045078
     16          6           0       -7.271765   -0.627085    0.015630
     17          6           0       -6.447264   -1.873242    0.448780
     18          6           0       -6.586850    0.593866   -0.243851
     19          6           0       -5.275831    0.800777   -0.298948
     20          6           0       11.959045   -0.017007    1.396414
     21          6           0       11.602421   -0.420231   -1.170649
     22          6           0       12.831944   -1.269373    1.491515
     23          6           0       13.359635   -1.787909    0.113329
     24          6           0       12.357227   -1.778922   -1.072031
     25          6           0       11.035885    0.096421    0.111770
     26          6           0       11.120829    0.118242    2.652250
     27          6           0       12.958003    1.191487    1.207564
     28          6           0       12.314750    0.495115   -2.064805
     29          6           0       -4.761019    2.109743   -0.369815
     30          6           0        9.834437    0.513784    0.130780
     31          6           0       -3.397436    2.458465   -0.488724
     32          6           0        8.671362    0.943080    0.003048
     33          6           0       -2.953640    3.927299   -0.649083
     34          6           0       -2.332860    1.565113   -0.344955
     35          6           0        7.475111    0.249417    0.132339
     36          6           0        7.736684   -1.365758    0.261199
     37          6           0        6.202346    0.721669    0.129908
     38          6           0       -0.970753    1.816835   -0.337245
     39          6           0        5.023735    0.115779    0.080872
     40          6           0        0.032147    0.832778   -0.259872
     41          6           0        3.795158    0.813415    0.105486
     42          6           0        1.386326    1.156555   -0.012333
     43          6           0        2.466637    0.232074    0.134819
     44          6           0        2.364015   -1.285263    0.290375
     45          1           0      -13.207389   -2.845660   -1.350072
     46          1           0      -13.690432   -1.093998   -1.561966
     47          1           0      -13.875735    0.056958    1.867994
     48          1           0      -13.897276    0.479899    0.100270
     49          1           0      -14.442357   -1.559691    0.601742
     50          1           0      -10.658072   -2.952137   -1.915761
     51          1           0      -11.405090   -1.975148   -3.075830
     52          1           0       -9.932376   -1.212575   -2.411830
     53          1           0       -9.250476    1.221568   -0.487459
     54          1           0       -9.994273   -0.103063    2.122191
     55          1           0      -11.665737    0.327908    3.033825
     56          1           0      -11.270827   -1.330160    2.137814
     57          1           0      -11.983734    2.448867    0.128606
     58          1           0      -12.256733    2.155373    2.012562
     59          1           0      -10.802087    2.510534    1.430788
     60          1           0      -12.044044   -2.500968    1.217241
     61          1           0       -9.083917   -1.871114    0.095436
     62          1           0       -5.473294   -2.003452   -0.389003
     63          1           0       -6.053645   -1.673352    1.618899
     64          1           0       -7.107418   -2.785702    0.481433
     65          1           0       -7.108977    1.544045   -0.526766
     66          1           0       -4.468042   -0.168988   -0.139176
     67          1           0       13.763654   -1.071951    2.103125
     68          1           0       12.322128   -2.235094    2.060000
     69          1           0       13.601702   -2.934952    0.262258
     70          1           0       12.879315   -2.086840   -1.999221
     71          1           0       11.488718   -2.547235   -1.048257
     72          1           0       11.482693   -0.205950    3.523118
     73          1           0       10.762904    1.216990    2.698615
     74          1           0       10.272981   -0.634496    2.597707
     75          1           0       13.508864    0.947578    0.289381
     76          1           0       12.336409    2.056912    1.184055
     77          1           0       13.587787    1.271149    2.056045
     78          1           0       12.740938    0.145570   -2.926127
     79          1           0       11.811027    1.390088   -2.170780
     80          1           0       13.322288    0.900556   -1.784896
     81          1           0       -5.364973    2.747922   -0.288097
     82          1           0       10.119314   -0.028723   -2.383162
     83          1           0       14.874799   -0.785263    0.494651
     84          1           0        8.427206    1.860699   -0.456783
     85          1           0       -2.648905    4.430971    0.396331
     86          1           0       -1.771300    4.163013   -1.252679
     87          1           0       -3.692873    4.565876   -1.112272
     88          1           0       -2.666148    0.520933   -0.291274
     89          1           0        6.835982   -1.937294    0.153875
     90          1           0        8.489525   -1.708467   -0.519945
     91          1           0        8.129078   -1.712162    1.426910
     92          1           0        6.342243    1.921677    0.139744
     93          1           0       -0.611894    2.840695   -0.325949
     94          1           0        4.884667   -0.971299    0.120339
     95          1           0       -0.349926   -0.243557   -0.227604
     96          1           0        3.838612    1.950621    0.212846
     97          1           0        1.701577    2.222821   -0.231150
     98          1           0        1.279579   -1.461500    0.243682
     99          1           0        2.841194   -1.662553   -0.674993
    100          1           0        2.663599   -1.600431    1.195455
 ---------------------------------------------------------------------

 SCF Done:  E(RCAM-B3LYP) =  -1857.21225147     A.U. after   16 cycles

 Excitation energies and oscillator strengths:

 Excited State   1:      Singlet-A      1.8617 eV  665.96 nm  f=3.0880  <S**2>=0.000
     163 ->166         0.12797
     164 ->165         0.70141
     164 <-165        -0.11561
 This state for optimization and/or second-order correction.
 Total Energy, E(TD-HF/TD-DFT) =  -1857.14383347
 Copying the excited state density for this state as the 1-particle RhoCI density.

 The electronic state is 1-A.
 Alpha  occ. eigenvalues --  -19.22621 -19.21613 -19.21040 -19.20578 -10.32390
 Alpha  occ. eigenvalues --  -10.31821 -10.31387 -10.31128 -10.29853 -10.28770
 Alpha  occ. eigenvalues --  -10.28660 -10.28632 -10.28498 -10.28468 -10.28363
 Alpha  occ. eigenvalues --  -10.28017 -10.27926 -10.27884 -10.27840 -10.27726
 Alpha  occ. eigenvalues --  -10.27646 -10.27524 -10.27344 -10.27220 -10.26938
 Alpha  occ. eigenvalues --  -10.26755 -10.26684 -10.26657 -10.26540 -10.26472
 Alpha  occ. eigenvalues --  -10.26329 -10.26160 -10.26114 -10.26070 -10.25574
 Alpha  occ. eigenvalues --  -10.25557 -10.25521 -10.25520 -10.25397 -10.25323
 Alpha  occ. eigenvalues --  -10.25249 -10.24769 -10.24278 -10.22693  -1.13890
 Alpha  occ. eigenvalues --   -1.10278  -1.09349  -1.09223  -0.93496  -0.92944
 Alpha  occ. eigenvalues --   -0.92003  -0.91433  -0.90761  -0.90118  -0.88291
 Alpha  occ. eigenvalues --   -0.87070  -0.86391  -0.85405  -0.84853  -0.83151
 Alpha  occ. eigenvalues --   -0.82570  -0.81445  -0.80538  -0.78830  -0.77761
 Alpha  occ. eigenvalues --   -0.77408  -0.76179  -0.76106  -0.75585  -0.75379
 Alpha  occ. eigenvalues --   -0.74971  -0.74151  -0.73201  -0.70558  -0.70267
 Alpha  occ. eigenvalues --   -0.68666  -0.67278  -0.65748  -0.65142  -0.64738
 Alpha  occ. eigenvalues --   -0.63793  -0.62653  -0.61004  -0.59874  -0.59600
 Alpha  occ. eigenvalues --   -0.58969  -0.58271  -0.57241  -0.56775  -0.56723
 Alpha  occ. eigenvalues --   -0.56413  -0.55688  -0.55463  -0.54868  -0.54394
 Alpha  occ. eigenvalues --   -0.53569  -0.53281  -0.52740  -0.52450  -0.52229
 Alpha  occ. eigenvalues --   -0.51529  -0.51284  -0.50788  -0.50403  -0.50069
 Alpha  occ. eigenvalues --   -0.50016  -0.49593  -0.49504  -0.48865  -0.48539
 Alpha  occ. eigenvalues --   -0.48349  -0.47758  -0.46985  -0.46865  -0.46686
 Alpha  occ. eigenvalues --   -0.46200  -0.46051  -0.45871  -0.45648  -0.45450
 Alpha  occ. eigenvalues --   -0.45235  -0.44858  -0.44711  -0.44434  -0.43876
 Alpha  occ. eigenvalues --   -0.43795  -0.43398  -0.43179  -0.42668  -0.42606
 Alpha  occ. eigenvalues --   -0.42172  -0.41893  -0.41721  -0.41629  -0.41130
 Alpha  occ. eigenvalues --   -0.41044  -0.40699  -0.40291  -0.40242  -0.39763
 Alpha  occ. eigenvalues --   -0.39345  -0.39269  -0.39092  -0.38863  -0.38223
 Alpha  occ. eigenvalues --   -0.38111  -0.37717  -0.37545  -0.37234  -0.37065
 Alpha  occ. eigenvalues --   -0.36977  -0.35929  -0.35520  -0.34920  -0.33825
 Alpha  occ. eigenvalues --   -0.32672  -0.32499  -0.32211  -0.31579  -0.30619
 Alpha  occ. eigenvalues --   -0.29971  -0.28256  -0.23948  -0.19140
 Alpha virt. eigenvalues --   -0.07407  -0.02039   0.02715   0.06224   0.07405
 Alpha virt. eigenvalues --    0.09310   0.10078   0.10179   0.10465   0.11774
 Alpha virt. eigenvalues --    0.12140   0.12309   0.12708   0.13189   0.13274

 Mulliken charges:
               1
     1  O   -0.519669
     2  O   -0.549376
     3  O   -0.555991
     4  O   -0.530117
     5  C    0.207259
     6  C    0.235339
     7  C    0.040926
     8  C   -0.247026
     9  C   -0.205314
    10  C    0.194463
    11  C   -0.320351
    12  C   -0.103487
    13  C   -0.291071
    14  C   -0.305028
    15  C   -0.089714
    16  C    0.075027
    17  C   -0.341012
    18  C   -0.104143
    19  C   -0.045792
    20  C    0.030554
    21  C    0.240423
    22  C   -0.215262
    23  C    0.140371
    24  C   -0.183151
    25  C   -0.110189
    26  C   -0.308752
    27  C   -0.318844
    28  C   -0.306421
    29  C   -0.067178
    30  C    0.296002
    31  C    0.101384
    32  C   -0.342174
    33  C   -0.360940
    34  C   -0.108120
    35  C    0.114420
    36  C   -0.366407
    37  C   -0.091253
    38  C   -0.067070
    39  C   -0.102286
    40  C   -0.089953
    41  C   -0.111544
    42  C   -0.130660
    43  C    0.071619
    44  C   -0.358442
    45  H    0.111780
    46  H    0.108335
    47  H    0.102618
    48  H    0.121158
    49  H    0.084319
    50  H    0.077849
    51  H    0.127190
    52  H    0.117970
    53  H    0.107197
    54  H    0.114878
    55  H    0.097704
    56  H    0.063975
    57  H    0.138909
    58  H    0.099334
    59  H    0.052672
    60  H    0.300423
    61  H    0.069245
    62  H    0.095797
    63  H    0.108320
    64  H    0.112357
    65  H    0.089720
    66  H    0.071498
    67  H    0.088717
    68  H    0.086445
    69  H    0.064802
    70  H    0.121489
    71  H    0.108411
    72  H    0.110087
    73  H    0.096089
    74  H    0.103708
    75  H    0.129204
    76  H    0.105575
    77  H    0.095765
    78  H    0.127009
    79  H    0.091164
    80  H    0.099886
    81  H    0.037131
    82  H    0.294023
    83  H    0.304738
    84  H    0.104399
    85  H    0.109578
    86  H    0.073508
    87  H    0.115087
    88  H    0.067183
    89  H    0.103510
    90  H    0.134977
    91  H    0.075461
    92  H    0.062433
    93  H    0.081460
    94  H    0.096108
    95  H    0.086760
    96  H    0.080543
    97  H    0.090253
    98  H    0.106515
    99  H    0.130279
   100  H    0.143411
 Sum of Mulliken charges =  -0.00000

 Dipole moment (field-independent basis, Debye):
    X=              2.2997    Y=              0.6994    Z=              1.9368  Tot=              3.0869
 Quadrupole moment (field-independent basis, Debye-Ang):
   XX=           -285.9826   YY=           -262.9896   ZZ=           -277.3971
   XY=              6.6730   XZ=             26.3590   YZ=             -0.5492

 Normal termination of Gaussian 16 at Tue Jul 30 21:33:02 2019.
