 Gaussian 16, Revision A.03,
 Gaussian 16:  ES64L-G16RevA.03 25-Dec-2016

 -------------------------------------
 # td=(NStates=1) CAM-B3LYP/6-31G(d,p)
 -------------------------------------

 --
 TD
 --
 Symbolic Z-matrix:
 Charge =  0 Multiplicity = 1

                         Standard orientation:
 ---------------------------------------------------------------------
 Center     Atomic      Atomic             Coordinates (Angstroms)
 Number     Number       Type             X           Y           Z
 ---------------------------------------------------------------------
      1          8           0      -11.742105    0.081372   -1.569960
      2          8           0      -12.737618   -2.448423    1.359666
      3          8           0       10.570064   -1.372713   -1.934893
      4          8           0       14.514708   -0.870051   -0.262848
      5          6           0      -11.062378   -0.206448   -0.390682
      6          6           0      -11.560834   -1.277696   -1.129240
      7          6           0      -11.849685    0.553773    0.837695
      8          6           0      -13.054130   -1.842942   -0.844459
      9          6           0      -13.381334   -0.042780    0.786345
     10          6           0      -13.518695   -1.499281    0.553471
     11          6           0      -10.824739   -2.195161   -2.033603
     12          6           0       -9.550020    0.038947   -0.430474
     13          6           0      -11.183605    0.215158    2.141369
     14          6           0      -11.836954    1.975736    0.443236
     15          6           0       -8.709929   -0.738959    0.156380
     16          6           0       -7.261070   -0.391207    0.325191
     17          6           0       -6.408024   -1.515101    0.914454
     18          6           0       -6.620025    0.743136    0.026251
     19          6           0       -5.221112    0.933742    0.008174
     20          6           0       11.889665    0.231289    1.256523
     21          6           0       11.691472   -0.799815   -1.219932
     22          6           0       12.824894   -0.988794    1.609604
     23          6           0       13.463933   -1.717473    0.396698
     24          6           0       12.435276   -1.983841   -0.686690
     25          6           0       11.050311   -0.056136    0.043407
     26          6           0       11.110137    0.546014    2.454432
     27          6           0       12.946570    1.378806    0.933710
     28          6           0       12.395412    0.149551   -2.147966
     29          6           0       -4.653684    2.169776   -0.420177
     30          6           0        9.893767    0.490886   -0.005360
     31          6           0       -3.381865    2.518027   -0.521595
     32          6           0        8.577887    0.925606   -0.175469
     33          6           0       -2.963576    3.862436   -0.840172
     34          6           0       -2.305668    1.596816   -0.211620
     35          6           0        7.418182    0.090137    0.061200
     36          6           0        7.668629   -1.260873    0.311199
     37          6           0        6.171686    0.695600   -0.057418
     38          6           0       -0.866081    1.793904   -0.246562
     39          6           0        4.888725    0.070151    0.022565
     40          6           0        0.011663    0.820412    0.023675
     41          6           0        3.714971    0.763096   -0.221256
     42          6           0        1.399773    1.156981   -0.185031
     43          6           0        2.456858    0.235674   -0.051812
     44          6           0        2.265905   -1.239088    0.339604
     45          1           0      -13.159169   -3.041524   -0.798403
     46          1           0      -13.771834   -1.625235   -1.726100
     47          1           0      -13.831637    0.494934    1.714546
     48          1           0      -13.938190    0.601880    0.048176
     49          1           0      -14.558817   -2.004215    0.685714
     50          1           0      -10.735657   -3.203235   -1.486193
     51          1           0      -11.506472   -2.488905   -2.853130
     52          1           0       -9.741596   -1.770256   -2.096727
     53          1           0       -9.242286    0.927404   -1.291168
     54          1           0      -10.218163    0.734345    2.160661
     55          1           0      -11.736340    0.262178    3.078070
     56          1           0      -10.675338   -0.832154    2.122502
     57          1           0      -12.130092    2.195844   -0.638829
     58          1           0      -12.421824    2.642787    1.202311
     59          1           0      -10.705004    2.343051    0.282786
     60          1           0      -11.646531   -2.165365    1.248668
     61          1           0       -9.271065   -1.696223    0.863972
     62          1           0       -5.732784   -1.989980    0.163916
     63          1           0       -5.834003   -1.152377    1.848329
     64          1           0       -7.066798   -2.373512    1.396068
     65          1           0       -7.263160    1.636887   -0.336906
     66          1           0       -4.573962    0.148871    0.486999
     67          1           0       13.589084   -0.991589    2.428858
     68          1           0       12.164432   -1.767663    1.797926
     69          1           0       13.751066   -2.618069    0.699655
     70          1           0       12.965467   -2.538882   -1.495806
     71          1           0       11.621616   -2.815237   -0.182858
     72          1           0       11.655989    0.610722    3.393603
     73          1           0       10.443657    1.511368    2.334096
     74          1           0       10.483760   -0.243856    2.673597
     75          1           0       13.594035    1.247955    0.012161
     76          1           0       12.311684    2.310895    0.511112
     77          1           0       13.503862    1.617808    1.840339
     78          1           0       12.912924   -0.292894   -2.998163
     79          1           0       11.693562    1.056658   -2.403911
     80          1           0       13.224069    0.632921   -1.482463
     81          1           0       -5.298287    2.819613   -1.016863
     82          1           0       10.087137   -0.619532   -2.331549
     83          1           0       15.211457   -0.779692    0.427836
     84          1           0        8.500362    1.998428   -0.311726
     85          1           0       -2.325042    4.223831    0.003638
     86          1           0       -2.432006    4.064379   -1.735190
     87          1           0       -3.937835    4.591286   -1.033780
     88          1           0       -2.592952    0.558235    0.206560
     89          1           0        6.736735   -1.960610    0.333283
     90          1           0        8.465930   -1.683512   -0.411229
     91          1           0        8.020241   -1.481366    1.320916
     92          1           0        6.350521    1.677443   -0.544477
     93          1           0       -0.504882    2.894494   -0.635329
     94          1           0        4.943361   -1.119722    0.038185
     95          1           0       -0.476270   -0.086557    0.094685
     96          1           0        3.760523    1.935514   -0.363943
     97          1           0        1.448374    2.121169   -0.264455
     98          1           0        1.214376   -1.529344    0.508856
     99          1           0        2.892001   -1.809791   -0.436396
    100          1           0        2.567551   -1.501437    1.257851
 ---------------------------------------------------------------------

 SCF Done:  E(RCAM-B3LYP) =  -1857.28246336     A.U. after   15 cycles

 Excitation energies and oscillator strengths:

 Excited State   1:      Singlet-A      2.0623 eV  601.20 nm  f=2.9788  <S**2>=0.000
     163 ->166        -0.13703
     164 ->165         0.69581
 This state for optimization and/or second-order correction.
 Total Energy, E(TD-HF/TD-DFT) =  -1857.20667539
 Copying the excited state density for this state as the 1-particle RhoCI density.

 The electronic state is 1-A.
 Alpha  occ. eigenvalues --  -19.22024 -19.21846 -19.21327 -19.20792 -10.32667
 Alpha  occ. eigenvalues --  -10.32108 -10.32045 -10.31116 -10.30703 -10.29025
 Alpha  occ. eigenvalues --  -10.28643 -10.28314 -10.27889 -10.27693 -10.27656
 Alpha  occ. eigenvalues --  -10.27604 -10.27528 -10.27467 -10.27446 -10.27230
 Alpha  occ. eigenvalues --  -10.27155 -10.27144 -10.27051 -10.26875 -10.26844
 Alpha  occ. eigenvalues --  -10.26771 -10.26706 -10.26531 -10.26448 -10.26401
 Alpha  occ. eigenvalues --  -10.26357 -10.26330 -10.26292 -10.26241 -10.25953
 Alpha  occ. eigenvalues --  -10.25885 -10.25856 -10.25791 -10.25702 -10.25689
 Alpha  occ. eigenvalues --  -10.25535 -10.25420 -10.25116 -10.24298  -1.17198
 Alpha  occ. eigenvalues --   -1.09029  -1.07863  -1.05443  -0.93569  -0.92807
 Alpha  occ. eigenvalues --   -0.92158  -0.91358  -0.90894  -0.89665  -0.88096
 Alpha  occ. eigenvalues --   -0.86856  -0.86072  -0.85176  -0.85118  -0.82990
 Alpha  occ. eigenvalues --   -0.81966  -0.80849  -0.80556  -0.78672  -0.76968
 Alpha  occ. eigenvalues --   -0.76658  -0.76479  -0.76425  -0.76010  -0.75219
 Alpha  occ. eigenvalues --   -0.74350  -0.73747  -0.72782  -0.70474  -0.69923
 Alpha  occ. eigenvalues --   -0.67861  -0.67109  -0.64677  -0.64478  -0.63423
 Alpha  occ. eigenvalues --   -0.62883  -0.62180  -0.60673  -0.59048  -0.58676
 Alpha  occ. eigenvalues --   -0.58519  -0.58172  -0.57823  -0.57371  -0.56313
 Alpha  occ. eigenvalues --   -0.55650  -0.55122  -0.54667  -0.54215  -0.53982
 Alpha  occ. eigenvalues --   -0.52877  -0.52676  -0.52181  -0.51568  -0.51250
 Alpha  occ. eigenvalues --   -0.51219  -0.50503  -0.49863  -0.49698  -0.49481
 Alpha  occ. eigenvalues --   -0.49251  -0.48895  -0.48709  -0.48564  -0.48220
 Alpha  occ. eigenvalues --   -0.48169  -0.47840  -0.47722  -0.47018  -0.46806
 Alpha  occ. eigenvalues --   -0.46623  -0.46502  -0.45758  -0.45623  -0.45540
 Alpha  occ. eigenvalues --   -0.45210  -0.44829  -0.44462  -0.44025  -0.43826
 Alpha  occ. eigenvalues --   -0.43808  -0.42855  -0.42772  -0.42518  -0.41843
 Alpha  occ. eigenvalues --   -0.41667  -0.41404  -0.41214  -0.40760  -0.40650
 Alpha  occ. eigenvalues --   -0.40325  -0.40164  -0.40084  -0.39867  -0.39569
 Alpha  occ. eigenvalues --   -0.39481  -0.39215  -0.38985  -0.38961  -0.38727
 Alpha  occ. eigenvalues --   -0.38291  -0.37875  -0.37413  -0.37255  -0.37047
 Alpha  occ. eigenvalues --   -0.36652  -0.36220  -0.35175  -0.34449  -0.33095
 Alpha  occ. eigenvalues --   -0.33018  -0.32565  -0.31761  -0.31279  -0.31093
 Alpha  occ. eigenvalues --   -0.30543  -0.28559  -0.23875  -0.19424
 Alpha virt. eigenvalues --   -0.06315  -0.01160   0.03342   0.05695   0.05864
 Alpha virt. eigenvalues --    0.07491   0.09921   0.10192   0.11243   0.11622
 Alpha virt. eigenvalues --    0.12455   0.12598   0.12908   0.13241   0.13755

 Mulliken charges:
               1
     1  O   -0.494001
     2  O   -0.560954
     3  O   -0.557421
     4  O   -0.558829
     5  C    0.178119
     6  C    0.217634
     7  C    0.053189
     8  C   -0.179226
     9  C   -0.187723
    10  C    0.150254
    11  C   -0.331501
    12  C   -0.099917
    13  C   -0.299529
    14  C   -0.318646
    15  C   -0.073601
    16  C    0.072020
    17  C   -0.378145
    18  C   -0.098646
    19  C   -0.075516
    20  C    0.031207
    21  C    0.270968
    22  C   -0.194468
    23  C    0.135456
    24  C   -0.190265
    25  C   -0.082860
    26  C   -0.303784
    27  C   -0.293365
    28  C   -0.299468
    29  C   -0.135026
    30  C    0.104724
    31  C    0.134970
    32  C   -0.267243
    33  C   -0.386852
    34  C   -0.142136
    35  C    0.176554
    36  C   -0.411230
    37  C   -0.119204
    38  C   -0.080139
    39  C   -0.115428
    40  C   -0.069511
    41  C   -0.104942
    42  C   -0.109979
    43  C    0.111647
    44  C   -0.363365
    45  H    0.089735
    46  H    0.096835
    47  H    0.080613
    48  H    0.116439
    49  H    0.101024
    50  H    0.104516
    51  H    0.130912
    52  H    0.117199
    53  H    0.105072
    54  H    0.115294
    55  H    0.122335
    56  H    0.062557
    57  H    0.136133
    58  H    0.096210
    59  H    0.083519
    60  H    0.291544
    61  H    0.060757
    62  H    0.125687
    63  H    0.114416
    64  H    0.089057
    65  H    0.074527
    66  H    0.094826
    67  H    0.086905
    68  H    0.099784
    69  H    0.102010
    70  H    0.114796
    71  H    0.088942
    72  H    0.097082
    73  H    0.097562
    74  H    0.113500
    75  H    0.125940
    76  H    0.065542
    77  H    0.097382
    78  H    0.122424
    79  H    0.085463
    80  H    0.118812
    81  H    0.083923
    82  H    0.304430
    83  H    0.304669
    84  H    0.109281
    85  H    0.130618
    86  H    0.133758
    87  H    0.078590
    88  H    0.069049
    89  H    0.087501
    90  H    0.143504
    91  H    0.125183
    92  H    0.081553
    93  H    0.071196
    94  H    0.087690
    95  H    0.089343
    96  H    0.085419
    97  H    0.073179
    98  H    0.105986
    99  H    0.115399
   100  H    0.140552
 Sum of Mulliken charges =  -0.00000

 Dipole moment (field-independent basis, Debye):
    X=              5.0694    Y=              0.3680    Z=              1.5759  Tot=              5.3214
 Quadrupole moment (field-independent basis, Debye-Ang):
   XX=           -261.3877   YY=           -265.0355   ZZ=           -275.9307
   XY=            -13.8145   XZ=             28.2184   YZ=             -5.8585

 Normal termination of Gaussian 16 at Tue Jul 30 18:52:00 2019.
