 Gaussian 16, Revision A.03,
 Gaussian 16:  ES64L-G16RevA.03 25-Dec-2016

 -------------------------------------
 # td=(NStates=1) CAM-B3LYP/6-31G(d,p)
 -------------------------------------

 --
 TD
 --
 Symbolic Z-matrix:
 Charge =  0 Multiplicity = 1

                         Standard orientation:
 ---------------------------------------------------------------------
 Center     Atomic      Atomic             Coordinates (Angstroms)
 Number     Number       Type             X           Y           Z
 ---------------------------------------------------------------------
      1          8           0      -11.715297    0.234189   -1.555005
      2          8           0      -13.260851   -2.550985    1.313301
      3          8           0       10.608156   -1.175786   -2.047658
      4          8           0       14.526315   -1.277391   -0.069722
      5          6           0      -10.943074   -0.172064   -0.345509
      6          6           0      -11.669522   -1.111687   -1.257606
      7          6           0      -11.677437    0.269462    0.930465
      8          6           0      -13.113481   -1.712685   -0.961291
      9          6           0      -13.259354   -0.093447    0.871820
     10          6           0      -13.629176   -1.466295    0.392497
     11          6           0      -10.890025   -1.990283   -2.178029
     12          6           0       -9.495437    0.092075   -0.440616
     13          6           0      -11.025719   -0.161958    2.202023
     14          6           0      -11.625681    1.820528    0.951754
     15          6           0       -8.590489   -0.763054    0.183424
     16          6           0       -7.078966   -0.514388    0.224965
     17          6           0       -6.304665   -1.817952    0.598102
     18          6           0       -6.528938    0.611641   -0.097406
     19          6           0       -5.243659    0.939496   -0.106060
     20          6           0       11.942186    0.199005    1.297884
     21          6           0       11.684881   -0.781356   -1.195840
     22          6           0       12.606656   -1.195359    1.605197
     23          6           0       13.322604   -1.853092    0.432055
     24          6           0       12.410297   -2.079960   -0.825147
     25          6           0       11.049199    0.042134    0.011621
     26          6           0       10.914459    0.370326    2.505474
     27          6           0       12.940920    1.329962    1.197733
     28          6           0       12.563538    0.112385   -2.115154
     29          6           0       -4.737224    2.221506   -0.345583
     30          6           0        9.834424    0.606280   -0.110315
     31          6           0       -3.359505    2.618494   -0.478440
     32          6           0        8.671598    0.912683   -0.364944
     33          6           0       -3.049615    4.026783   -0.740786
     34          6           0       -2.326293    1.644686   -0.230456
     35          6           0        7.431201    0.160198   -0.169333
     36          6           0        7.652844   -1.280549    0.267902
     37          6           0        6.224749    0.847373   -0.319398
     38          6           0       -1.000340    1.870969   -0.230481
     39          6           0        4.973140    0.258039    0.015350
     40          6           0       -0.000281    0.921136    0.043649
     41          6           0        3.722285    0.955892   -0.148406
     42          6           0        1.421403    1.268073   -0.083538
     43          6           0        2.485202    0.396413    0.053597
     44          6           0        2.387093   -1.003842    0.471736
     45          1           0      -12.969382   -2.688802   -1.271366
     46          1           0      -13.681927   -1.346529   -1.744901
     47          1           0      -13.644348   -0.054679    1.866751
     48          1           0      -13.961906    0.697344    0.387188
     49          1           0      -14.769217   -1.576568    0.317415
     50          1           0      -10.775116   -3.068350   -1.814574
     51          1           0      -11.588255   -2.070789   -3.010121
     52          1           0       -9.833574   -1.592671   -2.483043
     53          1           0       -9.154421    1.076633   -0.928987
     54          1           0      -10.190168    0.083591    2.585026
     55          1           0      -12.006080    0.211385    2.843548
     56          1           0      -11.088113   -1.266361    2.442096
     57          1           0      -12.119882    2.315772    0.075490
     58          1           0      -11.962774    2.262054    1.905116
     59          1           0      -10.452615    1.961423    0.713897
     60          1           0      -12.358723   -2.913869    1.081660
     61          1           0       -8.923251   -1.484006    0.964482
     62          1           0       -5.546377   -1.836311   -0.300982
     63          1           0       -5.679856   -1.299673    1.348574
     64          1           0       -6.965261   -2.815067    0.643599
     65          1           0       -7.222158    1.459777   -0.130457
     66          1           0       -4.404991    0.202400    0.047118
     67          1           0       13.170815   -0.817771    2.389045
     68          1           0       11.881791   -2.051053    1.933321
     69          1           0       13.548826   -2.813398    0.765663
     70          1           0       12.837305   -2.467030   -1.681958
     71          1           0       11.682223   -2.880025   -0.515003
     72          1           0       11.478486    0.265444    3.466520
     73          1           0       10.433724    1.347929    2.501809
     74          1           0        9.909492   -0.304087    2.411957
     75          1           0       13.733335    1.204427    0.401059
     76          1           0       12.422353    2.330931    1.027892
     77          1           0       13.297664    1.502482    2.148676
     78          1           0       12.920396   -0.453289   -2.976048
     79          1           0       12.080506    1.052020   -2.713124
     80          1           0       13.587788    0.618243   -1.636909
     81          1           0       -5.434073    3.089963   -0.709750
     82          1           0        9.941800   -0.428405   -2.278712
     83          1           0       15.002472   -1.088645    0.664949
     84          1           0        8.580342    2.058107   -0.718436
     85          1           0       -2.397950    4.688583   -0.055005
     86          1           0       -2.552161    4.072807   -1.705508
     87          1           0       -4.014523    4.526944   -0.657755
     88          1           0       -2.626928    0.527898    0.177220
     89          1           0        6.683199   -1.719474    0.340662
     90          1           0        8.488914   -1.808656   -0.224159
     91          1           0        7.932419   -1.329988    1.220715
     92          1           0        6.446049    1.902602   -0.456026
     93          1           0       -0.540506    2.926922   -0.387343
     94          1           0        4.841142   -0.890556    0.251622
     95          1           0       -0.040506   -0.202289    0.316636
     96          1           0        4.005423    2.003962   -0.565840
     97          1           0        1.604354    2.340502   -0.345277
     98          1           0        1.236622   -1.441687    0.436439
     99          1           0        3.037591   -1.569956   -0.119769
    100          1           0        2.714622   -1.275791    1.550123
 ---------------------------------------------------------------------

 SCF Done:  E(RCAM-B3LYP) =  -1857.30499952     A.U. after   15 cycles

 Excitation energies and oscillator strengths:

 Excited State   1:      Singlet-A      2.0282 eV  611.32 nm  f=2.9396  <S**2>=0.000
     163 ->166         0.12488
     164 ->165         0.69943
     164 <-165        -0.10747
 This state for optimization and/or second-order correction.
 Total Energy, E(TD-HF/TD-DFT) =  -1857.23046631
 Copying the excited state density for this state as the 1-particle RhoCI density.

 The electronic state is 1-A.
 Alpha  occ. eigenvalues --  -19.21648 -19.21178 -19.21110 -19.20049 -10.32440
 Alpha  occ. eigenvalues --  -10.31715 -10.31424 -10.31027 -10.30649 -10.28598
 Alpha  occ. eigenvalues --  -10.28337 -10.28241 -10.28211 -10.28129 -10.28116
 Alpha  occ. eigenvalues --  -10.28010 -10.27725 -10.27604 -10.27601 -10.27593
 Alpha  occ. eigenvalues --  -10.27411 -10.27382 -10.27332 -10.27257 -10.27208
 Alpha  occ. eigenvalues --  -10.26924 -10.26915 -10.26674 -10.26610 -10.26601
 Alpha  occ. eigenvalues --  -10.26464 -10.26204 -10.26167 -10.26012 -10.25820
 Alpha  occ. eigenvalues --  -10.25727 -10.25583 -10.25426 -10.25266 -10.25257
 Alpha  occ. eigenvalues --  -10.24740 -10.24564 -10.24434 -10.23947  -1.14946
 Alpha  occ. eigenvalues --   -1.11494  -1.07441  -1.07336  -0.92992  -0.92491
 Alpha  occ. eigenvalues --   -0.92048  -0.91118  -0.90767  -0.90438  -0.87490
 Alpha  occ. eigenvalues --   -0.86898  -0.85881  -0.85383  -0.84927  -0.82570
 Alpha  occ. eigenvalues --   -0.82018  -0.81187  -0.80542  -0.78995  -0.77432
 Alpha  occ. eigenvalues --   -0.76729  -0.76572  -0.76565  -0.75878  -0.75270
 Alpha  occ. eigenvalues --   -0.75014  -0.74080  -0.73067  -0.70164  -0.69507
 Alpha  occ. eigenvalues --   -0.68529  -0.66922  -0.65213  -0.64030  -0.63843
 Alpha  occ. eigenvalues --   -0.63241  -0.61688  -0.60441  -0.59764  -0.59544
 Alpha  occ. eigenvalues --   -0.58884  -0.58720  -0.58112  -0.57136  -0.57045
 Alpha  occ. eigenvalues --   -0.56082  -0.55617  -0.55305  -0.54324  -0.53930
 Alpha  occ. eigenvalues --   -0.53820  -0.52931  -0.52512  -0.52068  -0.51753
 Alpha  occ. eigenvalues --   -0.51069  -0.50612  -0.50418  -0.49928  -0.49703
 Alpha  occ. eigenvalues --   -0.49371  -0.48762  -0.48696  -0.48645  -0.48185
 Alpha  occ. eigenvalues --   -0.47826  -0.47571  -0.47075  -0.47003  -0.46929
 Alpha  occ. eigenvalues --   -0.46673  -0.46393  -0.46142  -0.45461  -0.45398
 Alpha  occ. eigenvalues --   -0.45095  -0.44810  -0.44511  -0.44143  -0.43737
 Alpha  occ. eigenvalues --   -0.43526  -0.43337  -0.42838  -0.42570  -0.42455
 Alpha  occ. eigenvalues --   -0.42176  -0.41883  -0.41458  -0.41239  -0.41179
 Alpha  occ. eigenvalues --   -0.40825  -0.40199  -0.40144  -0.40048  -0.39937
 Alpha  occ. eigenvalues --   -0.39606  -0.39323  -0.39213  -0.38886  -0.38678
 Alpha  occ. eigenvalues --   -0.38278  -0.38056  -0.37678  -0.37521  -0.37323
 Alpha  occ. eigenvalues --   -0.36460  -0.35770  -0.35115  -0.34363  -0.33491
 Alpha  occ. eigenvalues --   -0.32368  -0.32218  -0.31596  -0.31186  -0.31034
 Alpha  occ. eigenvalues --   -0.28834  -0.28305  -0.24438  -0.19219
 Alpha virt. eigenvalues --   -0.06556  -0.00816   0.02771   0.05774   0.06922
 Alpha virt. eigenvalues --    0.09731   0.10277   0.10725   0.10819   0.11677
 Alpha virt. eigenvalues --    0.12110   0.12284   0.12715   0.13349   0.13782

 Mulliken charges:
               1
     1  O   -0.503377
     2  O   -0.568937
     3  O   -0.591235
     4  O   -0.527462
     5  C    0.184941
     6  C    0.247154
     7  C    0.013490
     8  C   -0.208911
     9  C   -0.186255
    10  C    0.160752
    11  C   -0.335786
    12  C   -0.124414
    13  C   -0.280945
    14  C   -0.290589
    15  C   -0.104118
    16  C    0.039997
    17  C   -0.372054
    18  C   -0.065461
    19  C   -0.071761
    20  C    0.004267
    21  C    0.280863
    22  C   -0.184270
    23  C    0.132999
    24  C   -0.175475
    25  C   -0.059678
    26  C   -0.313418
    27  C   -0.313096
    28  C   -0.290647
    29  C   -0.141260
    30  C    0.179788
    31  C    0.089641
    32  C   -0.346717
    33  C   -0.377109
    34  C   -0.107275
    35  C    0.124538
    36  C   -0.378353
    37  C   -0.114062
    38  C   -0.092972
    39  C   -0.120951
    40  C   -0.078377
    41  C   -0.115108
    42  C   -0.124941
    43  C    0.135752
    44  C   -0.378085
    45  H    0.102238
    46  H    0.127675
    47  H    0.111407
    48  H    0.101375
    49  H    0.092207
    50  H    0.093301
    51  H    0.112218
    52  H    0.115945
    53  H    0.123293
    54  H    0.121436
    55  H    0.081365
    56  H    0.086951
    57  H    0.120188
    58  H    0.102466
    59  H    0.068656
    60  H    0.303750
    61  H    0.095455
    62  H    0.120413
    63  H    0.141823
    64  H    0.119061
    65  H    0.083245
    66  H    0.077487
    67  H    0.095484
    68  H    0.101167
    69  H    0.087039
    70  H    0.128550
    71  H    0.101473
    72  H    0.088656
    73  H    0.108781
    74  H    0.098417
    75  H    0.124140
    76  H    0.105631
    77  H    0.105957
    78  H    0.114653
    79  H    0.072146
    80  H    0.087111
    81  H    0.073359
    82  H    0.313710
    83  H    0.291804
    84  H    0.086977
    85  H    0.117398
    86  H    0.135245
    87  H    0.112087
    88  H    0.076989
    89  H    0.101598
    90  H    0.139444
    91  H    0.135614
    92  H    0.090836
    93  H    0.086835
    94  H    0.077969
    95  H    0.073267
    96  H    0.086481
    97  H    0.080413
    98  H    0.089489
    99  H    0.134957
   100  H    0.123284
 Sum of Mulliken charges =  -0.00000

 Dipole moment (field-independent basis, Debye):
    X=              2.0290    Y=              0.1236    Z=              2.3444  Tot=              3.1030
 Quadrupole moment (field-independent basis, Debye-Ang):
   XX=           -286.9499   YY=           -258.4844   ZZ=           -278.5046
   XY=              7.5037   XZ=             36.5186   YZ=             -3.6382

 Normal termination of Gaussian 16 at Tue Jul 30 06:20:39 2019.
