 Gaussian 16, Revision A.03,
 Gaussian 16:  ES64L-G16RevA.03 25-Dec-2016

 -------------------------------------
 # td=(NStates=1) CAM-B3LYP/6-31G(d,p)
 -------------------------------------

 --
 TD
 --
 Symbolic Z-matrix:
 Charge =  0 Multiplicity = 1

                         Standard orientation:
 ---------------------------------------------------------------------
 Center     Atomic      Atomic             Coordinates (Angstroms)
 Number     Number       Type             X           Y           Z
 ---------------------------------------------------------------------
      1          8           0      -11.784151    0.546985   -1.354963
      2          8           0      -13.064705   -2.607054    1.028302
      3          8           0       10.929608   -0.839465   -2.268690
      4          8           0       14.632356   -0.859476    0.054392
      5          6           0      -11.056328   -0.118578   -0.291798
      6          6           0      -11.727598   -0.914491   -1.374342
      7          6           0      -11.800774    0.241600    1.065909
      8          6           0      -13.221805   -1.611321   -1.159206
      9          6           0      -13.245208   -0.142021    1.013273
     10          6           0      -13.641379   -1.560993    0.307900
     11          6           0      -10.940384   -1.565773   -2.525740
     12          6           0       -9.587386    0.223367   -0.319286
     13          6           0      -11.047793   -0.532152    2.220146
     14          6           0      -11.683421    1.686570    1.243434
     15          6           0       -8.691591   -0.627625    0.068494
     16          6           0       -7.339432   -0.453742    0.251818
     17          6           0       -6.549279   -1.725817    0.684074
     18          6           0       -6.697667    0.746365    0.014080
     19          6           0       -5.232210    0.856915    0.061622
     20          6           0       11.836517   -0.152619    1.499780
     21          6           0       11.955892   -0.376002   -1.221455
     22          6           0       12.699847   -1.409650    1.522604
     23          6           0       13.494695   -1.731565    0.283766
     24          6           0       12.591664   -1.725549   -0.970534
     25          6           0       11.054348   -0.001694    0.108460
     26          6           0       10.831986   -0.140075    2.660357
     27          6           0       12.729711    1.206016    1.613623
     28          6           0       12.761171    0.613886   -1.864922
     29          6           0       -4.635888    2.102878   -0.107006
     30          6           0        9.829619    0.504812   -0.024003
     31          6           0       -3.358262    2.424106   -0.140388
     32          6           0        8.556348    0.919217   -0.265560
     33          6           0       -2.980887    3.887459   -0.427761
     34          6           0       -2.335533    1.578936   -0.206833
     35          6           0        7.531502    0.114669   -0.198337
     36          6           0        7.717655   -1.379173   -0.117804
     37          6           0        6.246925    0.743911   -0.323974
     38          6           0       -0.906997    1.823685   -0.172744
     39          6           0        5.007148    0.165707   -0.172411
     40          6           0        0.034979    0.801166   -0.235932
     41          6           0        3.795523    0.807239   -0.125593
     42          6           0        1.389912    1.169680   -0.186555
     43          6           0        2.436493    0.249576   -0.136304
     44          6           0        2.280862   -1.255309    0.030984
     45          1           0      -13.324761   -2.598188   -1.567424
     46          1           0      -14.121134   -0.806888   -1.701033
     47          1           0      -13.760277   -0.182896    1.994931
     48          1           0      -13.803845    0.668741    0.512217
     49          1           0      -14.813672   -1.465055    0.432641
     50          1           0      -10.733265   -2.533170   -2.266757
     51          1           0      -11.650409   -1.446870   -3.385532
     52          1           0      -10.078089   -0.942456   -2.833784
     53          1           0       -9.427826    1.295579   -0.728557
     54          1           0       -9.952582   -0.562452    2.243737
     55          1           0      -11.268051    0.055378    3.318208
     56          1           0      -11.598428   -1.640625    2.136620
     57          1           0      -12.041740    2.294308    0.498240
     58          1           0      -12.466544    1.847204    1.994857
     59          1           0      -10.527480    1.915252    1.695497
     60          1           0      -12.212170   -2.823803    0.470941
     61          1           0       -8.985577   -1.454495    0.433620
     62          1           0       -6.170622   -2.128166   -0.348527
     63          1           0       -5.816513   -1.429887    1.448956
     64          1           0       -7.127583   -2.442461    1.053726
     65          1           0       -7.306885    1.692378   -0.455223
     66          1           0       -4.524368   -0.042259   -0.028580
     67          1           0       13.311326   -1.266334    2.551230
     68          1           0       12.050681   -2.266001    1.673424
     69          1           0       13.752632   -2.782162    0.572715
     70          1           0       13.302710   -2.003892   -1.723229
     71          1           0       11.802534   -2.485618   -0.980858
     72          1           0       11.314318   -0.185902    3.609785
     73          1           0       10.109201    0.815415    2.478465
     74          1           0       10.118515   -1.015204    2.728041
     75          1           0       13.391061    1.204616    0.720858
     76          1           0       12.200988    2.045491    1.549533
     77          1           0       13.235301    1.093838    2.589755
     78          1           0       12.992144    0.481540   -3.006450
     79          1           0       12.145212    1.562913   -2.151203
     80          1           0       13.571829    0.917315   -1.304147
     81          1           0       -5.296923    3.030110   -0.291758
     82          1           0       10.299101    0.061282   -2.446073
     83          1           0       15.291530   -1.223368    0.611250
     84          1           0        8.539947    1.904894   -0.537118
     85          1           0       -2.286317    4.207517    0.294305
     86          1           0       -2.318360    3.913239   -1.330429
     87          1           0       -3.852359    4.501483   -0.641520
     88          1           0       -2.468770    0.489239   -0.204634
     89          1           0        6.906827   -1.877915   -0.426013
     90          1           0        8.630260   -1.619547   -0.850284
     91          1           0        8.155445   -1.530379    0.814919
     92          1           0        6.389798    1.750844   -0.390701
     93          1           0       -0.707721    2.785791   -0.139129
     94          1           0        4.905843   -0.994744   -0.052344
     95          1           0       -0.189218   -0.322875   -0.245786
     96          1           0        3.733213    1.752406   -0.276453
     97          1           0        1.672037    2.267840   -0.372409
     98          1           0        1.257082   -1.704958   -0.196436
     99          1           0        3.004661   -1.673477   -0.774411
    100          1           0        2.424566   -1.692140    1.064983
 ---------------------------------------------------------------------

 SCF Done:  E(RCAM-B3LYP) =  -1857.27683554     A.U. after   15 cycles

 Excitation energies and oscillator strengths:

 Excited State   1:      Singlet-A      2.1447 eV  578.09 nm  f=3.5041  <S**2>=0.000
     163 ->166         0.15550
     164 ->165         0.68852
 This state for optimization and/or second-order correction.
 Total Energy, E(TD-HF/TD-DFT) =  -1857.19801788
 Copying the excited state density for this state as the 1-particle RhoCI density.

 The electronic state is 1-A.
 Alpha  occ. eigenvalues --  -19.23258 -19.22586 -19.21721 -19.20901 -10.33552
 Alpha  occ. eigenvalues --  -10.32424 -10.32157 -10.31803 -10.31488 -10.29028
 Alpha  occ. eigenvalues --  -10.28506 -10.28126 -10.27872 -10.27361 -10.27296
 Alpha  occ. eigenvalues --  -10.27293 -10.27220 -10.26992 -10.26794 -10.26709
 Alpha  occ. eigenvalues --  -10.26616 -10.26589 -10.26510 -10.26455 -10.26134
 Alpha  occ. eigenvalues --  -10.25959 -10.25900 -10.25723 -10.25677 -10.25673
 Alpha  occ. eigenvalues --  -10.25633 -10.25612 -10.25288 -10.25255 -10.25141
 Alpha  occ. eigenvalues --  -10.24987 -10.24924 -10.24919 -10.24754 -10.24718
 Alpha  occ. eigenvalues --  -10.24222 -10.24088 -10.23936 -10.23643  -1.13450
 Alpha  occ. eigenvalues --   -1.10824  -1.10696  -1.04233  -0.93335  -0.92795
 Alpha  occ. eigenvalues --   -0.92039  -0.91442  -0.90791  -0.89976  -0.87475
 Alpha  occ. eigenvalues --   -0.85979  -0.85319  -0.84843  -0.84331  -0.83271
 Alpha  occ. eigenvalues --   -0.81736  -0.80670  -0.80451  -0.78102  -0.77796
 Alpha  occ. eigenvalues --   -0.76657  -0.76584  -0.76116  -0.75615  -0.75318
 Alpha  occ. eigenvalues --   -0.74883  -0.73561  -0.72725  -0.70182  -0.69251
 Alpha  occ. eigenvalues --   -0.68461  -0.66915  -0.65225  -0.64266  -0.63934
 Alpha  occ. eigenvalues --   -0.63360  -0.62275  -0.61314  -0.60685  -0.58831
 Alpha  occ. eigenvalues --   -0.58829  -0.58424  -0.57878  -0.56278  -0.56125
 Alpha  occ. eigenvalues --   -0.56054  -0.55810  -0.54590  -0.54330  -0.53744
 Alpha  occ. eigenvalues --   -0.53380  -0.53269  -0.52705  -0.52453  -0.50924
 Alpha  occ. eigenvalues --   -0.50885  -0.50683  -0.50291  -0.49941  -0.49861
 Alpha  occ. eigenvalues --   -0.49549  -0.49091  -0.48906  -0.48568  -0.48297
 Alpha  occ. eigenvalues --   -0.48196  -0.48184  -0.47927  -0.47514  -0.47075
 Alpha  occ. eigenvalues --   -0.46361  -0.45940  -0.45663  -0.45593  -0.45462
 Alpha  occ. eigenvalues --   -0.45235  -0.44917  -0.44721  -0.44222  -0.44148
 Alpha  occ. eigenvalues --   -0.43032  -0.42824  -0.42541  -0.42455  -0.42017
 Alpha  occ. eigenvalues --   -0.41871  -0.41639  -0.41239  -0.41110  -0.40955
 Alpha  occ. eigenvalues --   -0.40698  -0.40427  -0.40164  -0.40051  -0.39668
 Alpha  occ. eigenvalues --   -0.39487  -0.39269  -0.39143  -0.38663  -0.38505
 Alpha  occ. eigenvalues --   -0.38460  -0.37832  -0.37606  -0.37171  -0.36780
 Alpha  occ. eigenvalues --   -0.36475  -0.36163  -0.35279  -0.34787  -0.34294
 Alpha  occ. eigenvalues --   -0.33246  -0.32307  -0.31530  -0.31267  -0.30342
 Alpha  occ. eigenvalues --   -0.29575  -0.27602  -0.23211  -0.19249
 Alpha virt. eigenvalues --   -0.05795  -0.01439   0.02961   0.06540   0.07258
 Alpha virt. eigenvalues --    0.07947   0.10474   0.10996   0.11286   0.11345
 Alpha virt. eigenvalues --    0.12395   0.12994   0.13483   0.13631   0.14003

 Mulliken charges:
               1
     1  O   -0.513035
     2  O   -0.520718
     3  O   -0.579646
     4  O   -0.538018
     5  C    0.168650
     6  C    0.219041
     7  C    0.078521
     8  C   -0.219484
     9  C   -0.216038
    10  C    0.155005
    11  C   -0.329505
    12  C   -0.106473
    13  C   -0.319302
    14  C   -0.300226
    15  C   -0.018803
    16  C    0.050862
    17  C   -0.355856
    18  C   -0.118253
    19  C   -0.102264
    20  C    0.015718
    21  C    0.251924
    22  C   -0.162609
    23  C    0.103080
    24  C   -0.172350
    25  C   -0.092802
    26  C   -0.303894
    27  C   -0.292525
    28  C   -0.316037
    29  C   -0.117563
    30  C    0.066446
    31  C    0.132439
    32  C   -0.225865
    33  C   -0.388770
    34  C   -0.131486
    35  C    0.127122
    36  C   -0.360270
    37  C   -0.095062
    38  C   -0.061893
    39  C   -0.103694
    40  C   -0.083685
    41  C   -0.073718
    42  C   -0.127369
    43  C    0.093387
    44  C   -0.372992
    45  H    0.112038
    46  H    0.089202
    47  H    0.106133
    48  H    0.097608
    49  H    0.085774
    50  H    0.112530
    51  H    0.118084
    52  H    0.127936
    53  H    0.108254
    54  H    0.109568
    55  H    0.059628
    56  H    0.103794
    57  H    0.126370
    58  H    0.097564
    59  H    0.078440
    60  H    0.314454
    61  H    0.055134
    62  H    0.116039
    63  H    0.127393
    64  H    0.114420
    65  H    0.084577
    66  H    0.100769
    67  H    0.067062
    68  H    0.102573
    69  H    0.086353
    70  H    0.120037
    71  H    0.128744
    72  H    0.100570
    73  H    0.095113
    74  H    0.094515
    75  H    0.116550
    76  H    0.114343
    77  H    0.089202
    78  H    0.120806
    79  H    0.076478
    80  H    0.141807
    81  H    0.067790
    82  H    0.289454
    83  H    0.311297
    84  H    0.112255
    85  H    0.129921
    86  H    0.120024
    87  H    0.108312
    88  H    0.059350
    89  H    0.115472
    90  H    0.124551
    91  H    0.132143
    92  H    0.071041
    93  H    0.062317
    94  H    0.076054
    95  H    0.092373
    96  H    0.053681
    97  H    0.087485
    98  H    0.100515
    99  H    0.115150
   100  H    0.128960
 Sum of Mulliken charges =  -0.00000

 Dipole moment (field-independent basis, Debye):
    X=              3.6369    Y=             -1.4940    Z=              0.2524  Tot=              3.9399
 Quadrupole moment (field-independent basis, Debye-Ang):
   XX=           -252.9899   YY=           -256.9456   ZZ=           -278.9712
   XY=              1.1772   XZ=             37.4370   YZ=             -3.0556

 Normal termination of Gaussian 16 at Mon Jul 29 07:56:16 2019.
