 Gaussian 16, Revision A.03,
 Gaussian 16:  ES64L-G16RevA.03 25-Dec-2016

 -------------------------------------
 # td=(NStates=1) CAM-B3LYP/6-31G(d,p)
 -------------------------------------

 --
 TD
 --
 Symbolic Z-matrix:
 Charge =  0 Multiplicity = 1

                         Standard orientation:
 ---------------------------------------------------------------------
 Center     Atomic      Atomic             Coordinates (Angstroms)
 Number     Number       Type             X           Y           Z
 ---------------------------------------------------------------------
      1          8           0      -11.758865    0.472289   -1.298133
      2          8           0      -13.106795   -2.630600    1.104486
      3          8           0       10.557380   -0.557475   -2.166470
      4          8           0       14.447100   -1.326056   -0.174988
      5          6           0      -11.073607   -0.162590   -0.193621
      6          6           0      -11.700532   -1.013102   -1.245223
      7          6           0      -11.741843    0.173636    1.132318
      8          6           0      -13.089506   -1.594679   -1.056186
      9          6           0      -13.364626   -0.174953    1.114589
     10          6           0      -13.689870   -1.509148    0.252748
     11          6           0      -10.828330   -1.658598   -2.412487
     12          6           0       -9.632476    0.179559   -0.209291
     13          6           0      -10.870955   -0.470002    2.204362
     14          6           0      -11.785855    1.695541    1.430292
     15          6           0       -8.707074   -0.786577   -0.061888
     16          6           0       -7.194492   -0.634693    0.024209
     17          6           0       -6.311695   -1.887547    0.185071
     18          6           0       -6.561567    0.671431   -0.004114
     19          6           0       -5.210267    0.870763   -0.135227
     20          6           0       11.909403   -0.163124    1.387144
     21          6           0       11.663934   -0.466984   -1.238911
     22          6           0       12.493477   -1.588941    1.400203
     23          6           0       13.295269   -1.942749    0.069991
     24          6           0       12.310362   -1.891474   -1.026829
     25          6           0       11.091882    0.101325    0.084966
     26          6           0       11.097404    0.041847    2.593203
     27          6           0       13.029098    0.946211    1.479811
     28          6           0       12.652490    0.592034   -1.811672
     29          6           0       -4.672761    2.206568   -0.275628
     30          6           0        9.914115    0.686778    0.100458
     31          6           0       -3.355643    2.632126   -0.412213
     32          6           0        8.665156    1.139465   -0.013478
     33          6           0       -3.126093    4.082635   -0.524164
     34          6           0       -2.272646    1.686243   -0.366212
     35          6           0        7.491373    0.246462   -0.014376
     36          6           0        7.732493   -1.254494    0.285252
     37          6           0        6.277866    0.803848   -0.080633
     38          6           0       -0.915289    1.961433   -0.331682
     39          6           0        4.913228    0.136138   -0.032192
     40          6           0        0.016507    0.961812   -0.247649
     41          6           0        3.794084    0.927496   -0.084404
     42          6           0        1.411356    1.309857   -0.109079
     43          6           0        2.474064    0.301298   -0.090810
     44          6           0        2.329934   -1.140237    0.054756
     45          1           0      -13.081576   -2.646867   -1.174148
     46          1           0      -13.742164   -1.109105   -1.855423
     47          1           0      -13.863827   -0.256731    2.230832
     48          1           0      -14.034276    0.765239    0.893113
     49          1           0      -14.901581   -1.784921    0.334674
     50          1           0      -10.652369   -2.718363   -2.065476
     51          1           0      -11.434262   -1.775378   -3.336569
     52          1           0       -9.902250   -1.050225   -2.712612
     53          1           0       -9.333563    1.070408   -0.514421
     54          1           0       -9.937683   -0.121435    2.402231
     55          1           0      -11.552759   -0.422174    3.147885
     56          1           0      -10.735174   -1.566883    1.853840
     57          1           0      -12.272729    2.352005    0.701532
     58          1           0      -12.372631    1.860408    2.340733
     59          1           0      -10.855918    2.188957    1.502512
     60          1           0      -12.172611   -2.669106    0.999397
     61          1           0       -9.076583   -1.829820    0.015067
     62          1           0       -5.964271   -2.178772   -0.950852
     63          1           0       -5.431923   -1.646058    0.857475
     64          1           0       -6.919908   -2.650341    0.351819
     65          1           0       -7.341667    1.330872    0.117396
     66          1           0       -4.328885   -0.018270   -0.304857
     67          1           0       13.284101   -1.658991    2.161704
     68          1           0       11.882364   -2.423866    1.436176
     69          1           0       13.550612   -2.888634    0.294423
     70          1           0       12.702151   -2.128242   -1.887219
     71          1           0       11.673552   -2.641635   -0.838461
     72          1           0       11.894913   -0.034947    3.470584
     73          1           0       10.549580    0.971762    2.679476
     74          1           0       10.368329   -0.844338    2.752045
     75          1           0       13.605245    1.034970    0.541429
     76          1           0       12.504484    1.855153    1.821766
     77          1           0       13.755467    0.845392    2.374966
     78          1           0       13.237236    0.075822   -2.630162
     79          1           0       12.164913    1.383008   -2.308347
     80          1           0       13.514663    0.685783   -1.247658
     81          1           0       -5.427124    3.055899   -0.192383
     82          1           0       10.055526    0.255134   -2.072633
     83          1           0       15.018146   -1.260553    0.726584
     84          1           0        8.447129    2.228097   -0.172927
     85          1           0       -2.145938    4.478296    0.179576
     86          1           0       -2.619714    4.273989   -1.697042
     87          1           0       -4.139482    4.495850   -0.694167
     88          1           0       -2.567752    0.657926    0.102972
     89          1           0        6.819787   -1.991751    0.149087
     90          1           0        8.389926   -1.581082   -0.604427
     91          1           0        8.237131   -1.413465    1.036541
     92          1           0        6.421019    1.965236   -0.236566
     93          1           0       -0.383727    2.963116   -0.304142
     94          1           0        4.944417   -1.029849    0.120871
     95          1           0       -0.115651   -0.063797   -0.095967
     96          1           0        3.914386    1.968941   -0.260494
     97          1           0        1.500911    2.434476   -0.212345
     98          1           0        1.231726   -1.521801   -0.932821
     99          1           0        3.645365   -1.636270   -0.308000
    100          1           0        2.134162   -1.386021    1.365822
 ---------------------------------------------------------------------

 SCF Done:  E(RCAM-B3LYP) =  -1857.13770578     A.U. after   15 cycles

 Excitation energies and oscillator strengths:

 Excited State   1:      Singlet-A      1.9100 eV  649.15 nm  f=2.4295  <S**2>=0.000
     163 ->166         0.11208
     164 ->165         0.70574
     164 <-165        -0.12500
 This state for optimization and/or second-order correction.
 Total Energy, E(TD-HF/TD-DFT) =  -1857.06751620
 Copying the excited state density for this state as the 1-particle RhoCI density.

 The electronic state is 1-A.
 Alpha  occ. eigenvalues --  -19.23107 -19.21360 -19.20089 -19.20023 -10.33536
 Alpha  occ. eigenvalues --  -10.33510 -10.33056 -10.32439 -10.31922 -10.29332
 Alpha  occ. eigenvalues --  -10.29060 -10.28921 -10.28873 -10.28634 -10.28479
 Alpha  occ. eigenvalues --  -10.28209 -10.28155 -10.27991 -10.27989 -10.27814
 Alpha  occ. eigenvalues --  -10.27643 -10.27537 -10.27459 -10.27408 -10.27315
 Alpha  occ. eigenvalues --  -10.27225 -10.27074 -10.26988 -10.26864 -10.26801
 Alpha  occ. eigenvalues --  -10.26724 -10.26664 -10.26388 -10.26318 -10.25779
 Alpha  occ. eigenvalues --  -10.25617 -10.25597 -10.25481 -10.25388 -10.25258
 Alpha  occ. eigenvalues --  -10.24799 -10.23947 -10.23424 -10.23363  -1.13222
 Alpha  occ. eigenvalues --   -1.12350  -1.08612  -1.07001  -0.92944  -0.92028
 Alpha  occ. eigenvalues --   -0.91284  -0.90841  -0.90045  -0.89221  -0.87691
 Alpha  occ. eigenvalues --   -0.87349  -0.87010  -0.85314  -0.84690  -0.82472
 Alpha  occ. eigenvalues --   -0.81696  -0.80503  -0.80258  -0.77804  -0.77187
 Alpha  occ. eigenvalues --   -0.77159  -0.76708  -0.75855  -0.75179  -0.75032
 Alpha  occ. eigenvalues --   -0.74963  -0.73766  -0.71746  -0.70224  -0.69804
 Alpha  occ. eigenvalues --   -0.68090  -0.66481  -0.65301  -0.64874  -0.64773
 Alpha  occ. eigenvalues --   -0.64207  -0.62746  -0.60469  -0.59320  -0.58917
 Alpha  occ. eigenvalues --   -0.58628  -0.58498  -0.58283  -0.56867  -0.56294
 Alpha  occ. eigenvalues --   -0.55597  -0.55305  -0.55003  -0.54896  -0.54210
 Alpha  occ. eigenvalues --   -0.53165  -0.52861  -0.52637  -0.52035  -0.51819
 Alpha  occ. eigenvalues --   -0.51675  -0.51074  -0.50464  -0.50176  -0.49703
 Alpha  occ. eigenvalues --   -0.49641  -0.48856  -0.48655  -0.48381  -0.48163
 Alpha  occ. eigenvalues --   -0.47764  -0.47667  -0.47596  -0.47347  -0.46708
 Alpha  occ. eigenvalues --   -0.46522  -0.46238  -0.45993  -0.45340  -0.45153
 Alpha  occ. eigenvalues --   -0.44971  -0.44465  -0.43898  -0.43825  -0.43463
 Alpha  occ. eigenvalues --   -0.43229  -0.43162  -0.42902  -0.42847  -0.42446
 Alpha  occ. eigenvalues --   -0.42158  -0.41994  -0.41917  -0.41424  -0.40971
 Alpha  occ. eigenvalues --   -0.40787  -0.40363  -0.40130  -0.39835  -0.39397
 Alpha  occ. eigenvalues --   -0.38839  -0.38787  -0.38431  -0.38356  -0.38199
 Alpha  occ. eigenvalues --   -0.37908  -0.37857  -0.37329  -0.37297  -0.36643
 Alpha  occ. eigenvalues --   -0.36539  -0.36164  -0.35254  -0.34643  -0.34080
 Alpha  occ. eigenvalues --   -0.32033  -0.31704  -0.31590  -0.31500  -0.30899
 Alpha  occ. eigenvalues --   -0.29877  -0.27930  -0.24426  -0.19108
 Alpha virt. eigenvalues --   -0.06947  -0.00661   0.02886   0.04918   0.06202
 Alpha virt. eigenvalues --    0.06519   0.08380   0.08565   0.09692   0.09884
 Alpha virt. eigenvalues --    0.10223   0.10667   0.12051   0.12612   0.12854

 Mulliken charges:
               1
     1  O   -0.516962
     2  O   -0.570531
     3  O   -0.580868
     4  O   -0.541090
     5  C    0.207178
     6  C    0.205083
     7  C    0.023265
     8  C   -0.188698
     9  C   -0.174150
    10  C    0.131230
    11  C   -0.331543
    12  C   -0.089431
    13  C   -0.281074
    14  C   -0.321863
    15  C   -0.083041
    16  C    0.030068
    17  C   -0.344031
    18  C   -0.083333
    19  C   -0.082270
    20  C    0.040500
    21  C    0.243985
    22  C   -0.200238
    23  C    0.164748
    24  C   -0.167589
    25  C   -0.053571
    26  C   -0.296096
    27  C   -0.312384
    28  C   -0.307192
    29  C   -0.141324
    30  C    0.103190
    31  C    0.142212
    32  C   -0.288281
    33  C   -0.364714
    34  C   -0.140419
    35  C    0.130731
    36  C   -0.352426
    37  C   -0.133131
    38  C   -0.085222
    39  C   -0.116925
    40  C   -0.049346
    41  C   -0.061766
    42  C   -0.129095
    43  C    0.100723
    44  C   -0.300436
    45  H    0.124567
    46  H    0.124922
    47  H    0.085577
    48  H    0.096138
    49  H    0.094437
    50  H    0.101919
    51  H    0.118893
    52  H    0.132999
    53  H    0.104616
    54  H    0.132885
    55  H    0.097441
    56  H    0.057364
    57  H    0.118764
    58  H    0.103959
    59  H    0.096707
    60  H    0.297015
    61  H    0.073914
    62  H    0.098698
    63  H    0.128211
    64  H    0.117787
    65  H    0.082731
    66  H    0.092733
    67  H    0.070203
    68  H    0.106773
    69  H    0.069663
    70  H    0.115643
    71  H    0.113668
    72  H    0.075903
    73  H    0.115203
    74  H    0.089305
    75  H    0.118641
    76  H    0.109111
    77  H    0.075845
    78  H    0.095093
    79  H    0.107864
    80  H    0.131012
    81  H    0.077925
    82  H    0.303825
    83  H    0.316343
    84  H    0.108293
    85  H    0.117011
    86  H    0.085670
    87  H    0.122616
    88  H    0.084583
    89  H    0.089539
    90  H    0.124673
    91  H    0.128275
    92  H    0.064332
    93  H    0.082093
    94  H    0.091123
    95  H    0.078942
    96  H    0.100135
    97  H    0.077669
    98  H    0.058831
    99  H    0.071067
   100  H    0.106979
 Sum of Mulliken charges =  -0.00000

 Dipole moment (field-independent basis, Debye):
    X=              2.9690    Y=              0.0340    Z=              1.8496  Tot=              3.4982
 Quadrupole moment (field-independent basis, Debye-Ang):
   XX=           -261.7354   YY=           -260.9444   ZZ=           -281.2124
   XY=             -6.7853   XZ=             38.8074   YZ=              1.1630

 Normal termination of Gaussian 16 at Thu Aug  1 04:17:41 2019.
