 Gaussian 16, Revision A.03,
 Gaussian 16:  ES64L-G16RevA.03 25-Dec-2016

 -------------------------------------
 # td=(NStates=1) CAM-B3LYP/6-31G(d,p)
 -------------------------------------

 --
 TD
 --
 Symbolic Z-matrix:
 Charge =  0 Multiplicity = 1

                         Standard orientation:
 ---------------------------------------------------------------------
 Center     Atomic      Atomic             Coordinates (Angstroms)
 Number     Number       Type             X           Y           Z
 ---------------------------------------------------------------------
      1          8           0      -11.626073    0.103727   -1.657309
      2          8           0      -13.170315   -2.405366    1.472829
      3          8           0       10.513191   -1.240365   -2.018931
      4          8           0       14.480428   -1.051415   -0.335879
      5          6           0      -11.036168   -0.198000   -0.290388
      6          6           0      -11.663620   -1.284150   -1.176046
      7          6           0      -11.761111    0.402712    0.872205
      8          6           0      -12.962508   -1.882139   -0.913037
      9          6           0      -13.211042   -0.148764    0.769242
     10          6           0      -13.555323   -1.480707    0.411286
     11          6           0      -10.686504   -2.127566   -2.029298
     12          6           0       -9.510790    0.007765   -0.359653
     13          6           0      -11.136675   -0.142249    2.202399
     14          6           0      -11.723107    1.934478    0.751986
     15          6           0       -8.575792   -0.759459    0.270013
     16          6           0       -7.135574   -0.536158    0.265213
     17          6           0       -6.343811   -1.700306    0.497294
     18          6           0       -6.610249    0.719552    0.020353
     19          6           0       -5.178905    1.018287   -0.098576
     20          6           0       11.982492    0.016014    1.312917
     21          6           0       11.638179   -0.768573   -1.256183
     22          6           0       12.719660   -1.242681    1.506855
     23          6           0       13.363533   -1.750361    0.237692
     24          6           0       12.369604   -1.965524   -0.877656
     25          6           0       11.025835   -0.084663    0.047187
     26          6           0       11.083104    0.252315    2.606862
     27          6           0       12.915964    1.267269    1.355419
     28          6           0       12.456419    0.264745   -2.045227
     29          6           0       -4.752234    2.341008   -0.241286
     30          6           0        9.864222    0.399518   -0.043191
     31          6           0       -3.329606    2.625187   -0.427184
     32          6           0        8.686289    0.909901   -0.185216
     33          6           0       -3.029085    4.124892   -0.844980
     34          6           0       -2.366078    1.708027   -0.299412
     35          6           0        7.361465    0.103211    0.057750
     36          6           0        7.557234   -1.266325    0.553008
     37          6           0        6.229074    0.918529   -0.099877
     38          6           0       -1.002693    1.892148   -0.387171
     39          6           0        5.040586    0.197996    0.055266
     40          6           0        0.050218    1.023929   -0.077518
     41          6           0        3.865993    0.890449   -0.097030
     42          6           0        1.437093    1.345374   -0.272735
     43          6           0        2.487413    0.402827   -0.017262
     44          6           0        2.140945   -1.035276    0.136274
     45          1           0      -12.972717   -2.966387   -1.135800
     46          1           0      -13.659393   -1.594179   -1.643590
     47          1           0      -13.799910    0.076169    1.646883
     48          1           0      -13.690934    0.497313   -0.045266
     49          1           0      -14.644047   -1.642230    0.531819
     50          1           0      -10.181989   -2.962018   -1.593188
     51          1           0      -11.104548   -2.501756   -2.922893
     52          1           0       -9.820970   -1.689674   -2.365910
     53          1           0       -9.229091    0.928647   -0.807860
     54          1           0      -10.091596    0.270709    2.329156
     55          1           0      -11.804085    0.108524    3.150032
     56          1           0      -10.936084   -1.316133    2.096460
     57          1           0      -12.251839    2.037536   -0.150938
     58          1           0      -12.417535    2.373786    1.667279
     59          1           0      -10.589813    2.161816    0.745846
     60          1           0      -12.076296   -2.437142    1.562035
     61          1           0       -8.968681   -1.730474    0.706571
     62          1           0       -5.913670   -2.200925   -0.286914
     63          1           0       -5.606133   -1.321307    1.104155
     64          1           0       -6.899028   -2.502186    0.985793
     65          1           0       -7.176284    1.592244    0.064719
     66          1           0       -4.566462    0.207051    0.181550
     67          1           0       13.459944   -1.196770    2.389226
     68          1           0       11.777805   -1.865239    1.615390
     69          1           0       13.510614   -2.845458    0.428759
     70          1           0       12.627776   -2.389828   -1.882397
     71          1           0       11.713211   -2.916456   -0.747750
     72          1           0       11.808174    0.162290    3.607960
     73          1           0       10.632099    1.381942    2.704908
     74          1           0       10.390797   -0.253236    2.586905
     75          1           0       13.476556    1.088687    0.515935
     76          1           0       12.475293    2.260147    1.271050
     77          1           0       13.623748    0.894714    2.119449
     78          1           0       12.594618   -0.227761   -2.945771
     79          1           0       11.759922    1.166800   -2.157465
     80          1           0       13.432148    0.699121   -1.629740
     81          1           0       -5.490106    3.085299   -0.261736
     82          1           0        9.906526   -0.509011   -2.073332
     83          1           0       15.091717   -0.864440    0.429351
     84          1           0        8.416876    1.922750   -0.619520
     85          1           0       -2.149221    4.592069   -0.278758
     86          1           0       -2.641582    4.149032   -2.026829
     87          1           0       -3.723983    4.894831   -0.743302
     88          1           0       -2.560415    0.677074   -0.115782
     89          1           0        6.781535   -1.919627    0.524738
     90          1           0        8.248123   -1.815479   -0.095700
     91          1           0        7.863257   -1.376126    1.501698
     92          1           0        6.333479    1.866235   -0.387543
     93          1           0       -0.817001    2.934429   -0.541588
     94          1           0        4.962270   -0.774032    0.335779
     95          1           0       -0.351907    0.120459    0.084523
     96          1           0        4.006778    1.958986   -0.276027
     97          1           0        1.426780    2.422573   -0.477994
     98          1           0        1.002593   -1.298065   -0.388373
     99          1           0        2.905031   -1.600619   -0.584450
    100          1           0        2.103112   -1.426694    1.270995
 ---------------------------------------------------------------------

 SCF Done:  E(RCAM-B3LYP) =  -1857.27109971     A.U. after   15 cycles

 Excitation energies and oscillator strengths:

 Excited State   1:      Singlet-A      2.3244 eV  533.41 nm  f=2.9099  <S**2>=0.000
     163 ->166         0.14246
     164 ->165         0.68970
 This state for optimization and/or second-order correction.
 Total Energy, E(TD-HF/TD-DFT) =  -1857.18568134
 Copying the excited state density for this state as the 1-particle RhoCI density.

 The electronic state is 1-A.
 Alpha  occ. eigenvalues --  -19.23310 -19.21742 -19.20477 -19.20470 -10.32650
 Alpha  occ. eigenvalues --  -10.32347 -10.31497 -10.31357 -10.30017 -10.29108
 Alpha  occ. eigenvalues --  -10.28347 -10.28236 -10.28217 -10.28159 -10.28156
 Alpha  occ. eigenvalues --  -10.27696 -10.27481 -10.27368 -10.27345 -10.27331
 Alpha  occ. eigenvalues --  -10.27208 -10.26958 -10.26791 -10.26717 -10.26664
 Alpha  occ. eigenvalues --  -10.26526 -10.26394 -10.25931 -10.25765 -10.25648
 Alpha  occ. eigenvalues --  -10.25556 -10.25404 -10.25284 -10.25127 -10.25110
 Alpha  occ. eigenvalues --  -10.25037 -10.24981 -10.24661 -10.24542 -10.24297
 Alpha  occ. eigenvalues --  -10.24148 -10.23914 -10.23841 -10.23608  -1.11635
 Alpha  occ. eigenvalues --   -1.10213  -1.09430  -1.05852  -0.93509  -0.92639
 Alpha  occ. eigenvalues --   -0.91879  -0.91545  -0.91146  -0.89464  -0.87789
 Alpha  occ. eigenvalues --   -0.87332  -0.86854  -0.85986  -0.84520  -0.83648
 Alpha  occ. eigenvalues --   -0.82201  -0.81477  -0.81233  -0.78583  -0.77753
 Alpha  occ. eigenvalues --   -0.77719  -0.77083  -0.76671  -0.76406  -0.76041
 Alpha  occ. eigenvalues --   -0.75468  -0.74171  -0.72684  -0.70616  -0.70279
 Alpha  occ. eigenvalues --   -0.68549  -0.66834  -0.65004  -0.64623  -0.64239
 Alpha  occ. eigenvalues --   -0.63924  -0.63429  -0.62328  -0.61354  -0.60404
 Alpha  occ. eigenvalues --   -0.58788  -0.58377  -0.58346  -0.57416  -0.57299
 Alpha  occ. eigenvalues --   -0.56471  -0.55798  -0.55135  -0.54989  -0.54638
 Alpha  occ. eigenvalues --   -0.53323  -0.53215  -0.52796  -0.52407  -0.51911
 Alpha  occ. eigenvalues --   -0.51340  -0.51151  -0.50702  -0.50464  -0.50046
 Alpha  occ. eigenvalues --   -0.49899  -0.49685  -0.49196  -0.49080  -0.48471
 Alpha  occ. eigenvalues --   -0.47941  -0.47536  -0.47352  -0.46980  -0.46822
 Alpha  occ. eigenvalues --   -0.46557  -0.46188  -0.45945  -0.45656  -0.45266
 Alpha  occ. eigenvalues --   -0.45062  -0.44753  -0.44612  -0.44350  -0.44294
 Alpha  occ. eigenvalues --   -0.44203  -0.43507  -0.43438  -0.43292  -0.43138
 Alpha  occ. eigenvalues --   -0.42568  -0.42400  -0.41873  -0.41298  -0.40867
 Alpha  occ. eigenvalues --   -0.40706  -0.40558  -0.40340  -0.40221  -0.40132
 Alpha  occ. eigenvalues --   -0.39769  -0.39675  -0.39073  -0.39005  -0.38858
 Alpha  occ. eigenvalues --   -0.38615  -0.37959  -0.37576  -0.36827  -0.36716
 Alpha  occ. eigenvalues --   -0.36184  -0.35942  -0.35240  -0.34341  -0.33964
 Alpha  occ. eigenvalues --   -0.32637  -0.32422  -0.32004  -0.31444  -0.30971
 Alpha  occ. eigenvalues --   -0.30211  -0.27862  -0.24416  -0.19854
 Alpha virt. eigenvalues --   -0.05340  -0.00566   0.03269   0.06739   0.06982
 Alpha virt. eigenvalues --    0.08043   0.09519   0.10158   0.11662   0.11795
 Alpha virt. eigenvalues --    0.12724   0.12918   0.12970   0.13348   0.13975

 Mulliken charges:
               1
     1  O   -0.525337
     2  O   -0.571441
     3  O   -0.572846
     4  O   -0.537076
     5  C    0.168944
     6  C    0.265475
     7  C    0.006187
     8  C   -0.215078
     9  C   -0.174043
    10  C    0.136992
    11  C   -0.348758
    12  C   -0.094219
    13  C   -0.276092
    14  C   -0.284955
    15  C   -0.095025
    16  C    0.081403
    17  C   -0.379836
    18  C   -0.115399
    19  C   -0.061204
    20  C   -0.004250
    21  C    0.249851
    22  C   -0.197045
    23  C    0.154498
    24  C   -0.203570
    25  C   -0.157070
    26  C   -0.234276
    27  C   -0.287475
    28  C   -0.285308
    29  C   -0.127012
    30  C    0.259710
    31  C    0.090159
    32  C   -0.353873
    33  C   -0.372685
    34  C   -0.091682
    35  C    0.090286
    36  C   -0.388179
    37  C   -0.073731
    38  C   -0.095867
    39  C   -0.063205
    40  C   -0.068825
    41  C   -0.118609
    42  C   -0.113582
    43  C    0.094675
    44  C   -0.359046
    45  H    0.118193
    46  H    0.131359
    47  H    0.101100
    48  H    0.094533
    49  H    0.106840
    50  H    0.100566
    51  H    0.111470
    52  H    0.129521
    53  H    0.106994
    54  H    0.109438
    55  H    0.107432
    56  H    0.048084
    57  H    0.141685
    58  H    0.085724
    59  H    0.099635
    60  H    0.290011
    61  H    0.073374
    62  H    0.138115
    63  H    0.129424
    64  H    0.109678
    65  H    0.079287
    66  H    0.087514
    67  H    0.092313
    68  H    0.116942
    69  H    0.084756
    70  H    0.115325
    71  H    0.106045
    72  H    0.063490
    73  H    0.077044
    74  H    0.090910
    75  H    0.107822
    76  H    0.114863
    77  H    0.082328
    78  H    0.120745
    79  H    0.078703
    80  H    0.132267
    81  H    0.092438
    82  H    0.301408
    83  H    0.307184
    84  H    0.101606
    85  H    0.112240
    86  H    0.099884
    87  H    0.122226
    88  H    0.070854
    89  H    0.116144
    90  H    0.133738
    91  H    0.140727
    92  H    0.082043
    93  H    0.059303
    94  H    0.082616
    95  H    0.060381
    96  H    0.074984
    97  H    0.089583
    98  H    0.093674
    99  H    0.108884
   100  H    0.114974
 Sum of Mulliken charges =  -0.00000

 Dipole moment (field-independent basis, Debye):
    X=              2.7555    Y=             -0.0775    Z=              2.2915  Tot=              3.5846
 Quadrupole moment (field-independent basis, Debye-Ang):
   XX=           -275.6430   YY=           -258.7261   ZZ=           -280.4776
   XY=             -2.2784   XZ=             27.2525   YZ=             -1.5833

 Normal termination of Gaussian 16 at Tue Jul 30 04:12:42 2019.
