 Gaussian 16, Revision A.03,
 Gaussian 16:  ES64L-G16RevA.03 25-Dec-2016

 -------------------------------------
 # td=(NStates=1) CAM-B3LYP/6-31G(d,p)
 -------------------------------------

 --
 TD
 --
 Symbolic Z-matrix:
 Charge =  0 Multiplicity = 1

                         Standard orientation:
 ---------------------------------------------------------------------
 Center     Atomic      Atomic             Coordinates (Angstroms)
 Number     Number       Type             X           Y           Z
 ---------------------------------------------------------------------
      1          8           0      -11.589679    0.231536   -1.530196
      2          8           0      -12.980080   -2.459831    1.338324
      3          8           0       10.512302   -0.888419   -2.154803
      4          8           0       14.443995   -1.064422   -0.096564
      5          6           0      -10.987554   -0.205443   -0.286008
      6          6           0      -11.666527   -1.148126   -1.239703
      7          6           0      -11.876950    0.272891    0.902890
      8          6           0      -13.032758   -1.746875   -1.005272
      9          6           0      -13.344271   -0.108032    0.902492
     10          6           0      -13.504116   -1.546908    0.488564
     11          6           0      -10.886681   -1.985479   -2.188603
     12          6           0       -9.547792    0.093484   -0.334073
     13          6           0      -11.161204   -0.091152    2.267320
     14          6           0      -11.923508    1.869993    0.758569
     15          6           0       -8.588765   -0.738956    0.228823
     16          6           0       -7.097721   -0.573218    0.212882
     17          6           0       -6.244669   -1.794989    0.367876
     18          6           0       -6.584115    0.649003    0.025972
     19          6           0       -5.139774    0.871467   -0.139013
     20          6           0       11.951065   -0.065799    1.377189
     21          6           0       11.577144   -0.447535   -1.323074
     22          6           0       12.733555   -1.408251    1.385700
     23          6           0       13.280545   -1.855018    0.105052
     24          6           0       12.419442   -1.726963   -1.163694
     25          6           0       11.064857   -0.030271    0.065422
     26          6           0       11.072241    0.013443    2.665783
     27          6           0       12.885926    1.110837    1.569916
     28          6           0       12.479522    0.580989   -1.976518
     29          6           0       -4.673686    2.167979   -0.311615
     30          6           0        9.896756    0.507020    0.068679
     31          6           0       -3.350662    2.597632   -0.467631
     32          6           0        8.644623    0.924274   -0.015660
     33          6           0       -3.010146    4.065661   -0.607957
     34          6           0       -2.304123    1.603769   -0.232559
     35          6           0        7.442835    0.107767   -0.038885
     36          6           0        7.662427   -1.349618    0.099921
     37          6           0        6.240906    0.818662   -0.161913
     38          6           0       -0.924878    1.890187   -0.224958
     39          6           0        4.937974    0.202950   -0.192603
     40          6           0        0.011467    0.928340   -0.101017
     41          6           0        3.736953    0.934099   -0.038052
     42          6           0        1.388461    1.206230   -0.070734
     43          6           0        2.438415    0.273837   -0.007946
     44          6           0        2.339878   -1.108411    0.360041
     45          1           0      -12.978232   -2.828819   -1.115313
     46          1           0      -13.725784   -1.118877   -1.656704
     47          1           0      -13.846500    0.080791    1.939579
     48          1           0      -14.061220    0.467023    0.155523
     49          1           0      -14.529936   -1.652585    0.497032
     50          1           0      -10.731510   -3.025906   -1.864385
     51          1           0      -11.303689   -1.817506   -3.229552
     52          1           0       -9.865593   -1.454633   -2.270418
     53          1           0       -8.968585    0.825957   -0.785523
     54          1           0      -10.055584    0.295194    2.054747
     55          1           0      -11.952644    0.340880    3.041257
     56          1           0      -11.239095   -1.196818    2.548212
     57          1           0      -12.530724    1.977013   -0.138720
     58          1           0      -12.435100    2.131140    1.611770
     59          1           0      -10.859734    2.265873    0.851426
     60          1           0      -12.123148   -2.708145    1.241186
     61          1           0       -8.683056   -1.675431    0.777698
     62          1           0       -6.154029   -2.261559   -0.702996
     63          1           0       -5.094332   -1.420630    0.599429
     64          1           0       -6.940623   -2.334719    1.105946
     65          1           0       -7.175446    1.661864    0.004702
     66          1           0       -4.437414    0.201702    0.058440
     67          1           0       13.535907   -1.509643    2.288793
     68          1           0       12.083269   -2.240087    1.497224
     69          1           0       13.638749   -2.870029    0.191281
     70          1           0       13.124751   -1.845116   -2.054202
     71          1           0       11.758482   -2.473471   -1.155432
     72          1           0       11.902885    0.028434    3.557613
     73          1           0       10.519088    0.778510    2.751768
     74          1           0       10.492884   -0.912699    2.992433
     75          1           0       13.699861    0.991974    0.821183
     76          1           0       12.505504    2.068665    1.397970
     77          1           0       13.409898    1.000912    2.586958
     78          1           0       12.817712    0.205598   -2.882550
     79          1           0       11.897556    1.539800   -2.022126
     80          1           0       13.210634    0.999049   -1.401828
     81          1           0       -5.495470    2.861490   -0.174062
     82          1           0        9.975566   -0.141328   -2.176950
     83          1           0       15.059511   -1.336590    0.586743
     84          1           0        8.354629    1.990837   -0.174336
     85          1           0       -2.913847    4.521752    0.374617
     86          1           0       -2.098541    4.446807   -1.279934
     87          1           0       -3.902115    4.860301   -1.056893
     88          1           0       -2.593289    0.600105   -0.181795
     89          1           0        6.751457   -1.906845    0.026482
     90          1           0        8.350504   -1.635442   -0.775847
     91          1           0        8.359495   -1.587271    0.991673
     92          1           0        6.168483    1.837428   -0.398003
     93          1           0       -0.743571    3.165404   -0.424128
     94          1           0        4.962666   -0.857201   -0.185577
     95          1           0       -0.205751    0.030108    0.068756
     96          1           0        3.626688    1.915008   -0.263519
     97          1           0        1.645027    2.037731   -0.112419
     98          1           0        1.068021   -1.331565    0.566776
     99          1           0        2.319701   -1.646540   -0.582567
    100          1           0        3.182755   -1.445600    1.070876
 ---------------------------------------------------------------------

 SCF Done:  E(RCAM-B3LYP) =  -1857.24720287     A.U. after   15 cycles

 Excitation energies and oscillator strengths:

 Excited State   1:      Singlet-A      2.1895 eV  566.26 nm  f=2.9141  <S**2>=0.000
     163 ->166         0.13945
     164 ->165         0.69350
 This state for optimization and/or second-order correction.
 Total Energy, E(TD-HF/TD-DFT) =  -1857.16673859
 Copying the excited state density for this state as the 1-particle RhoCI density.

 The electronic state is 1-A.
 Alpha  occ. eigenvalues --  -19.21557 -19.21503 -19.20904 -19.20346 -10.32013
 Alpha  occ. eigenvalues --  -10.31959 -10.31375 -10.30173 -10.29319 -10.29046
 Alpha  occ. eigenvalues --  -10.28777 -10.28606 -10.28561 -10.28017 -10.27920
 Alpha  occ. eigenvalues --  -10.27903 -10.27590 -10.27384 -10.27245 -10.27154
 Alpha  occ. eigenvalues --  -10.27008 -10.26999 -10.26888 -10.26865 -10.26691
 Alpha  occ. eigenvalues --  -10.26632 -10.26556 -10.26453 -10.26198 -10.26162
 Alpha  occ. eigenvalues --  -10.26094 -10.26082 -10.25982 -10.25884 -10.25825
 Alpha  occ. eigenvalues --  -10.25524 -10.25274 -10.24887 -10.24701 -10.24372
 Alpha  occ. eigenvalues --  -10.24324 -10.23713 -10.23364 -10.23282  -1.15216
 Alpha  occ. eigenvalues --   -1.12701  -1.11785  -1.10000  -0.93034  -0.92786
 Alpha  occ. eigenvalues --   -0.92122  -0.91100  -0.90473  -0.89743  -0.87816
 Alpha  occ. eigenvalues --   -0.86797  -0.86586  -0.85878  -0.84741  -0.83443
 Alpha  occ. eigenvalues --   -0.82237  -0.81190  -0.80793  -0.79256  -0.77398
 Alpha  occ. eigenvalues --   -0.77229  -0.76765  -0.75895  -0.75679  -0.75469
 Alpha  occ. eigenvalues --   -0.74661  -0.73727  -0.73179  -0.70654  -0.70104
 Alpha  occ. eigenvalues --   -0.68985  -0.67469  -0.66426  -0.65550  -0.64843
 Alpha  occ. eigenvalues --   -0.63253  -0.62861  -0.61660  -0.61152  -0.60767
 Alpha  occ. eigenvalues --   -0.59459  -0.58650  -0.58343  -0.57769  -0.56874
 Alpha  occ. eigenvalues --   -0.55947  -0.55664  -0.55419  -0.55233  -0.54391
 Alpha  occ. eigenvalues --   -0.53779  -0.53739  -0.53500  -0.52607  -0.51827
 Alpha  occ. eigenvalues --   -0.51602  -0.51338  -0.50891  -0.49842  -0.49574
 Alpha  occ. eigenvalues --   -0.49407  -0.49120  -0.49002  -0.48741  -0.48681
 Alpha  occ. eigenvalues --   -0.48244  -0.47902  -0.47798  -0.47265  -0.46872
 Alpha  occ. eigenvalues --   -0.46559  -0.46484  -0.46294  -0.46110  -0.45674
 Alpha  occ. eigenvalues --   -0.45565  -0.44731  -0.44407  -0.44139  -0.43891
 Alpha  occ. eigenvalues --   -0.43458  -0.43394  -0.43199  -0.42835  -0.42625
 Alpha  occ. eigenvalues --   -0.42567  -0.42200  -0.41621  -0.41404  -0.41299
 Alpha  occ. eigenvalues --   -0.41025  -0.40604  -0.40411  -0.40178  -0.40018
 Alpha  occ. eigenvalues --   -0.39809  -0.39458  -0.39291  -0.38464  -0.38255
 Alpha  occ. eigenvalues --   -0.38011  -0.37968  -0.37901  -0.37592  -0.37214
 Alpha  occ. eigenvalues --   -0.36498  -0.35426  -0.35051  -0.34566  -0.33887
 Alpha  occ. eigenvalues --   -0.33288  -0.32057  -0.31654  -0.31194  -0.30663
 Alpha  occ. eigenvalues --   -0.29796  -0.27947  -0.24300  -0.19640
 Alpha virt. eigenvalues --   -0.05796  -0.00639   0.02659   0.05928   0.06626
 Alpha virt. eigenvalues --    0.09892   0.10212   0.10520   0.10806   0.11429
 Alpha virt. eigenvalues --    0.12088   0.12429   0.12685   0.13190   0.13286

 Mulliken charges:
               1
     1  O   -0.504568
     2  O   -0.522367
     3  O   -0.543888
     4  O   -0.545673
     5  C    0.219009
     6  C    0.253518
     7  C   -0.005501
     8  C   -0.227986
     9  C   -0.191221
    10  C    0.177789
    11  C   -0.328270
    12  C   -0.124228
    13  C   -0.296380
    14  C   -0.287956
    15  C   -0.059554
    16  C    0.037871
    17  C   -0.335229
    18  C   -0.112335
    19  C   -0.049890
    20  C    0.017574
    21  C    0.225492
    22  C   -0.164863
    23  C    0.127567
    24  C   -0.176512
    25  C   -0.092616
    26  C   -0.272741
    27  C   -0.305259
    28  C   -0.292445
    29  C   -0.130980
    30  C    0.159219
    31  C    0.096403
    32  C   -0.302913
    33  C   -0.385531
    34  C   -0.110398
    35  C    0.147951
    36  C   -0.382690
    37  C   -0.116749
    38  C   -0.063650
    39  C   -0.111032
    40  C   -0.053214
    41  C   -0.114784
    42  C   -0.041142
    43  C    0.121343
    44  C   -0.378460
    45  H    0.105480
    46  H    0.117790
    47  H    0.092231
    48  H    0.081507
    49  H    0.090538
    50  H    0.099082
    51  H    0.115338
    52  H    0.105305
    53  H    0.110317
    54  H    0.108654
    55  H    0.089480
    56  H    0.087298
    57  H    0.129784
    58  H    0.101770
    59  H    0.084085
    60  H    0.295013
    61  H    0.056622
    62  H    0.127228
    63  H    0.103924
    64  H    0.110284
    65  H    0.088634
    66  H    0.063734
    67  H    0.066875
    68  H    0.095687
    69  H    0.080104
    70  H    0.107982
    71  H    0.118373
    72  H    0.064148
    73  H    0.119479
    74  H    0.089561
    75  H    0.124366
    76  H    0.110421
    77  H    0.089870
    78  H    0.120879
    79  H    0.074104
    80  H    0.136581
    81  H    0.079483
    82  H    0.298136
    83  H    0.297166
    84  H    0.103292
    85  H    0.143268
    86  H    0.115839
    87  H    0.083363
    88  H    0.082762
    89  H    0.108067
    90  H    0.135988
    91  H    0.121828
    92  H    0.082602
    93  H    0.066840
    94  H    0.078072
    95  H    0.046196
    96  H    0.083191
    97  H    0.013515
    98  H    0.072770
    99  H    0.139862
   100  H    0.132522
 Sum of Mulliken charges =  -0.00000

 Dipole moment (field-independent basis, Debye):
    X=              3.4346    Y=             -1.1394    Z=              1.4677  Tot=              3.9050
 Quadrupole moment (field-independent basis, Debye-Ang):
   XX=           -274.4780   YY=           -256.7402   ZZ=           -281.8791
   XY=              0.1554   XZ=             22.3178   YZ=             -2.2140

 Normal termination of Gaussian 16 at Tue Jul 30 20:00:15 2019.
