 Gaussian 16, Revision A.03,
 Gaussian 16:  ES64L-G16RevA.03 25-Dec-2016

 -------------------------------------
 # td=(NStates=1) CAM-B3LYP/6-31G(d,p)
 -------------------------------------

 --
 TD
 --
 Symbolic Z-matrix:
 Charge =  0 Multiplicity = 1

                         Standard orientation:
 ---------------------------------------------------------------------
 Center     Atomic      Atomic             Coordinates (Angstroms)
 Number     Number       Type             X           Y           Z
 ---------------------------------------------------------------------
      1          8           0      -11.614049    0.162115   -1.605531
      2          8           0      -13.433753   -2.341852    1.555677
      3          8           0       10.630997   -1.018372   -2.116008
      4          8           0       14.505183   -1.066879   -0.153652
      5          6           0      -10.974104   -0.023871   -0.348647
      6          6           0      -11.618488   -1.125199   -1.199685
      7          6           0      -11.791745    0.468217    0.784200
      8          6           0      -13.043458   -1.826494   -0.966532
      9          6           0      -13.255016    0.014804    0.709869
     10          6           0      -13.659332   -1.427994    0.397128
     11          6           0      -10.688863   -2.271412   -1.942735
     12          6           0       -9.511453    0.152093   -0.324530
     13          6           0      -11.163569   -0.007117    2.161909
     14          6           0      -11.727712    1.887285    0.766656
     15          6           0       -8.587452   -0.786953    0.046721
     16          6           0       -7.213074   -0.596453    0.124152
     17          6           0       -6.434337   -1.780804    0.661939
     18          6           0       -6.586729    0.594415   -0.103981
     19          6           0       -5.250312    0.839429   -0.153485
     20          6           0       11.956266    0.110461    1.277748
     21          6           0       11.698553   -0.678525   -1.234380
     22          6           0       12.736423   -1.222179    1.445128
     23          6           0       13.435638   -1.816071    0.327068
     24          6           0       12.422175   -1.871661   -0.952181
     25          6           0       11.031571   -0.027518    0.011234
     26          6           0       11.057458    0.209203    2.542551
     27          6           0       12.935004    1.305198    1.273597
     28          6           0       12.515124    0.382463   -1.960598
     29          6           0       -4.651143    2.134672   -0.291943
     30          6           0        9.892178    0.443008   -0.111244
     31          6           0       -3.355012    2.579882   -0.346726
     32          6           0        8.613939    0.963988   -0.073671
     33          6           0       -2.959436    4.053792   -0.657328
     34          6           0       -2.290258    1.661615   -0.222878
     35          6           0        7.416117    0.172461   -0.000187
     36          6           0        7.585080   -1.297300    0.249831
     37          6           0        6.170598    0.749071   -0.072731
     38          6           0       -0.965364    1.775002   -0.322679
     39          6           0        4.966262    0.134150    0.003719
     40          6           0        0.096152    0.852104   -0.124187
     41          6           0        3.795513    0.800562   -0.169857
     42          6           0        1.379747    1.175903   -0.203198
     43          6           0        2.467292    0.243288   -0.034317
     44          6           0        2.361438   -1.082152    0.483424
     45          1           0      -12.991574   -2.985620   -0.873881
     46          1           0      -13.747387   -1.741928   -1.784935
     47          1           0      -13.917606    0.184981    1.683418
     48          1           0      -13.767822    0.657288   -0.083395
     49          1           0      -14.798118   -1.312134    0.237558
     50          1           0      -10.226750   -3.008197   -1.254064
     51          1           0      -11.287864   -2.758419   -2.774510
     52          1           0       -9.891946   -1.630458   -2.498732
     53          1           0       -9.096284    1.124730   -0.739390
     54          1           0      -10.061657    0.434682    2.518327
     55          1           0      -11.859020    0.098920    2.990546
     56          1           0      -10.896814   -1.114296    2.056430
     57          1           0      -12.188933    2.122454   -0.248415
     58          1           0      -12.521546    2.343702    1.497921
     59          1           0      -10.775153    2.559815    0.865867
     60          1           0      -12.330498   -2.555252    1.589745
     61          1           0       -8.949611   -1.832362    0.329920
     62          1           0       -5.457400   -1.635768   -0.082806
     63          1           0       -6.149304   -1.424657    1.762648
     64          1           0       -7.193494   -2.612471    0.548340
     65          1           0       -7.065173    1.568908   -0.152680
     66          1           0       -4.395964    0.040974   -0.088110
     67          1           0       13.612960   -1.275981    2.132709
     68          1           0       12.098404   -1.869921    1.778775
     69          1           0       13.905379   -2.812325    0.753467
     70          1           0       12.811006   -2.138694   -1.950330
     71          1           0       11.682700   -2.545069   -0.657629
     72          1           0       11.763898    0.117430    3.428300
     73          1           0       10.674485    1.181012    2.648325
     74          1           0       10.259043   -0.658229    2.679809
     75          1           0       13.667021    0.899563    0.608348
     76          1           0       12.128601    2.100768    0.801005
     77          1           0       13.132248    1.535803    2.391934
     78          1           0       12.736778    0.136997   -2.953241
     79          1           0       11.831788    1.210486   -2.057755
     80          1           0       13.535721    0.616870   -1.361049
     81          1           0       -5.484137    3.050287   -0.467018
     82          1           0        9.958378   -0.387807   -2.093217
     83          1           0       15.097411   -1.042830    0.594807
     84          1           0        8.606330    2.163511   -0.489458
     85          1           0       -2.675838    4.484449    0.377477
     86          1           0       -2.209274    4.402056   -1.575353
     87          1           0       -3.955214    4.489762   -0.735743
     88          1           0       -2.517878    0.564639   -0.204963
     89          1           0        6.566969   -1.663035   -0.111357
     90          1           0        8.514106   -1.703714   -0.188241
     91          1           0        7.715478   -1.335406    1.344388
     92          1           0        6.023022    1.872080   -0.495581
     93          1           0       -0.444704    2.702341   -0.524914
     94          1           0        5.053723   -0.973840    0.221036
     95          1           0       -0.386915   -0.104904   -0.033284
     96          1           0        3.808886    1.841453   -0.585877
     97          1           0        1.426369    2.163551   -0.691238
     98          1           0        1.474491   -1.546070    0.261317
     99          1           0        3.012708   -1.814437   -0.097461
    100          1           0        2.604915   -1.233963    1.613249
 ---------------------------------------------------------------------

 SCF Done:  E(RCAM-B3LYP) =  -1857.24909265     A.U. after   17 cycles

 Excitation energies and oscillator strengths:

 Excited State   1:      Singlet-A      1.6625 eV  745.75 nm  f=3.1319  <S**2>=0.000
     163 ->166        -0.11355
     164 ->165         0.71256
     164 <-165        -0.15708
 This state for optimization and/or second-order correction.
 Total Energy, E(TD-HF/TD-DFT) =  -1857.18799567
 Copying the excited state density for this state as the 1-particle RhoCI density.

 The electronic state is 1-A.
 Alpha  occ. eigenvalues --  -19.23660 -19.22898 -19.22460 -19.19766 -10.33354
 Alpha  occ. eigenvalues --  -10.32520 -10.32086 -10.31411 -10.31012 -10.29727
 Alpha  occ. eigenvalues --  -10.28811 -10.28469 -10.28400 -10.28316 -10.28249
 Alpha  occ. eigenvalues --  -10.28191 -10.27864 -10.27586 -10.27280 -10.27262
 Alpha  occ. eigenvalues --  -10.27148 -10.27048 -10.26927 -10.26875 -10.26736
 Alpha  occ. eigenvalues --  -10.26707 -10.26650 -10.26606 -10.26547 -10.26517
 Alpha  occ. eigenvalues --  -10.26510 -10.26375 -10.26308 -10.26260 -10.26225
 Alpha  occ. eigenvalues --  -10.26117 -10.26001 -10.25836 -10.25797 -10.25702
 Alpha  occ. eigenvalues --  -10.25241 -10.24602 -10.24301 -10.23475  -1.18676
 Alpha  occ. eigenvalues --   -1.13031  -1.10377  -1.04950  -0.93783  -0.93251
 Alpha  occ. eigenvalues --   -0.93019  -0.92215  -0.91853  -0.90760  -0.88426
 Alpha  occ. eigenvalues --   -0.87048  -0.86903  -0.85860  -0.84997  -0.84191
 Alpha  occ. eigenvalues --   -0.82235  -0.81713  -0.80105  -0.78979  -0.77294
 Alpha  occ. eigenvalues --   -0.76845  -0.76503  -0.76027  -0.75691  -0.75413
 Alpha  occ. eigenvalues --   -0.74806  -0.74353  -0.72649  -0.70239  -0.69631
 Alpha  occ. eigenvalues --   -0.68635  -0.66889  -0.65360  -0.64702  -0.63898
 Alpha  occ. eigenvalues --   -0.63382  -0.62923  -0.61806  -0.60369  -0.59853
 Alpha  occ. eigenvalues --   -0.59438  -0.58706  -0.58528  -0.57927  -0.56251
 Alpha  occ. eigenvalues --   -0.56089  -0.55616  -0.55143  -0.54851  -0.53790
 Alpha  occ. eigenvalues --   -0.53643  -0.53026  -0.52986  -0.52388  -0.52065
 Alpha  occ. eigenvalues --   -0.51363  -0.50822  -0.50678  -0.49888  -0.49794
 Alpha  occ. eigenvalues --   -0.49447  -0.49113  -0.48768  -0.48575  -0.48506
 Alpha  occ. eigenvalues --   -0.48276  -0.47590  -0.47447  -0.46914  -0.46847
 Alpha  occ. eigenvalues --   -0.46525  -0.46137  -0.45854  -0.45738  -0.45148
 Alpha  occ. eigenvalues --   -0.44786  -0.44685  -0.44441  -0.44259  -0.44083
 Alpha  occ. eigenvalues --   -0.43750  -0.43670  -0.43555  -0.43185  -0.42940
 Alpha  occ. eigenvalues --   -0.42781  -0.42039  -0.41998  -0.41852  -0.41535
 Alpha  occ. eigenvalues --   -0.41181  -0.40643  -0.40534  -0.40209  -0.40056
 Alpha  occ. eigenvalues --   -0.39929  -0.39622  -0.39232  -0.38510  -0.38068
 Alpha  occ. eigenvalues --   -0.37991  -0.37911  -0.37441  -0.36722  -0.36604
 Alpha  occ. eigenvalues --   -0.36520  -0.36088  -0.35356  -0.34434  -0.33438
 Alpha  occ. eigenvalues --   -0.33367  -0.32776  -0.32175  -0.32000  -0.31627
 Alpha  occ. eigenvalues --   -0.31204  -0.28020  -0.24256  -0.18263
 Alpha virt. eigenvalues --   -0.08215  -0.01625   0.02107   0.06412   0.07103
 Alpha virt. eigenvalues --    0.07717   0.09529   0.09678   0.10468   0.11543
 Alpha virt. eigenvalues --    0.11734   0.12155   0.12308   0.12734   0.13667

 Mulliken charges:
               1
     1  O   -0.468148
     2  O   -0.554144
     3  O   -0.571791
     4  O   -0.508180
     5  C    0.197998
     6  C    0.238987
     7  C    0.053294
     8  C   -0.230854
     9  C   -0.194069
    10  C    0.144668
    11  C   -0.342733
    12  C   -0.113451
    13  C   -0.291588
    14  C   -0.307917
    15  C   -0.069743
    16  C    0.063548
    17  C   -0.334727
    18  C   -0.086939
    19  C   -0.069156
    20  C   -0.002280
    21  C    0.239221
    22  C   -0.154082
    23  C    0.107421
    24  C   -0.166561
    25  C   -0.095112
    26  C   -0.302724
    27  C   -0.280207
    28  C   -0.282642
    29  C   -0.144565
    30  C    0.129290
    31  C    0.100079
    32  C   -0.246186
    33  C   -0.356644
    34  C   -0.109951
    35  C    0.074129
    36  C   -0.358077
    37  C   -0.082246
    38  C   -0.098684
    39  C   -0.073705
    40  C   -0.042924
    41  C   -0.122376
    42  C   -0.133013
    43  C    0.105106
    44  C   -0.379285
    45  H    0.101688
    46  H    0.123369
    47  H    0.097850
    48  H    0.100786
    49  H    0.097934
    50  H    0.107481
    51  H    0.105683
    52  H    0.110296
    53  H    0.106002
    54  H    0.085802
    55  H    0.121104
    56  H    0.058682
    57  H    0.106252
    58  H    0.088686
    59  H    0.101128
    60  H    0.299621
    61  H    0.070023
    62  H    0.109468
    63  H    0.128793
    64  H    0.104898
    65  H    0.086363
    66  H    0.077193
    67  H    0.067638
    68  H    0.112305
    69  H    0.066951
    70  H    0.114242
    71  H    0.106327
    72  H    0.087165
    73  H    0.115086
    74  H    0.090568
    75  H    0.124632
    76  H    0.089129
    77  H    0.100755
    78  H    0.115004
    79  H    0.085430
    80  H    0.109120
    81  H    0.052874
    82  H    0.297359
    83  H    0.298736
    84  H    0.091963
    85  H    0.122432
    86  H    0.118887
    87  H    0.111411
    88  H    0.064384
    89  H    0.106545
    90  H    0.133507
    91  H    0.131768
    92  H    0.068047
    93  H    0.055757
    94  H    0.085631
    95  H    0.071742
    96  H    0.082645
    97  H    0.094218
    98  H    0.121800
    99  H    0.111310
   100  H    0.126495
 Sum of Mulliken charges =  -0.00000

 Dipole moment (field-independent basis, Debye):
    X=              4.0085    Y=             -0.4459    Z=              2.2716  Tot=              4.6289
 Quadrupole moment (field-independent basis, Debye-Ang):
   XX=           -285.6874   YY=           -264.1400   ZZ=           -280.2236
   XY=             -6.8495   XZ=             40.0487   YZ=             -4.2089

 Normal termination of Gaussian 16 at Wed Jul 31 11:43:07 2019.
