 Gaussian 16, Revision A.03,
 Gaussian 16:  ES64L-G16RevA.03 25-Dec-2016

 -------------------------------------
 # td=(NStates=1) CAM-B3LYP/6-31G(d,p)
 -------------------------------------

 --
 TD
 --
 Symbolic Z-matrix:
 Charge =  0 Multiplicity = 1

                         Standard orientation:
 ---------------------------------------------------------------------
 Center     Atomic      Atomic             Coordinates (Angstroms)
 Number     Number       Type             X           Y           Z
 ---------------------------------------------------------------------
      1          8           0      -11.736053    0.254439   -1.498725
      2          8           0      -13.147574   -2.178506    1.546725
      3          8           0       10.682641   -1.068474   -2.152281
      4          8           0       14.534749   -1.219904    0.111562
      5          6           0      -11.030545   -0.121936   -0.298613
      6          6           0      -11.728862   -1.113299   -1.141690
      7          6           0      -11.647307    0.414350    0.983178
      8          6           0      -13.149507   -1.667725   -0.765904
      9          6           0      -13.257587    0.212589    1.026873
     10          6           0      -13.617979   -1.287489    0.595783
     11          6           0      -10.994144   -2.020116   -2.057388
     12          6           0       -9.520670    0.041968   -0.424242
     13          6           0      -11.052578   -0.103650    2.248375
     14          6           0      -11.507886    2.056047    0.957868
     15          6           0       -8.657857   -0.885511   -0.038592
     16          6           0       -7.234367   -0.740648   -0.019898
     17          6           0       -6.391570   -1.986889    0.233226
     18          6           0       -6.697310    0.584062   -0.223009
     19          6           0       -5.356894    0.814539   -0.290094
     20          6           0       11.905512    0.209607    1.284654
     21          6           0       11.681057   -0.684537   -1.253698
     22          6           0       12.467326   -1.228064    1.622936
     23          6           0       13.315652   -1.841697    0.424581
     24          6           0       12.327138   -2.003140   -0.772517
     25          6           0       11.135041    0.110114   -0.038507
     26          6           0       10.962404    0.541395    2.567198
     27          6           0       12.906124    1.363445    1.208524
     28          6           0       12.676432    0.241855   -2.064449
     29          6           0       -4.735031    2.062761   -0.384586
     30          6           0        9.833525    0.527058   -0.044781
     31          6           0       -3.312775    2.342800   -0.485319
     32          6           0        8.615417    1.027444   -0.084763
     33          6           0       -2.969208    3.826455   -0.821519
     34          6           0       -2.379189    1.440928   -0.424221
     35          6           0        7.457020    0.224000   -0.049624
     36          6           0        7.658536   -1.277922    0.327166
     37          6           0        6.246104    0.830910   -0.203436
     38          6           0       -0.972433    1.716974   -0.395972
     39          6           0        4.975468    0.281051    0.102655
     40          6           0        0.123388    0.910459   -0.208229
     41          6           0        3.862776    0.962278   -0.040200
     42          6           0        1.455385    1.136250   -0.182199
     43          6           0        2.532725    0.350364    0.048772
     44          6           0        2.441687   -1.159477    0.244200
     45          1           0      -13.170559   -2.725761   -0.820209
     46          1           0      -13.797208   -1.301027   -1.574513
     47          1           0      -13.687308    0.238801    2.182685
     48          1           0      -13.614292    0.814347    0.292995
     49          1           0      -14.697857   -1.490415    0.695529
     50          1           0      -10.718788   -2.930370   -1.356120
     51          1           0      -11.546638   -2.248705   -2.881988
     52          1           0      -10.235700   -1.518932   -2.338074
     53          1           0       -9.362749    1.100523   -0.742817
     54          1           0       -9.942440   -0.049685    2.318557
     55          1           0      -11.140988    0.412356    3.221494
     56          1           0      -11.351151   -1.293514    2.491910
     57          1           0      -11.727486    2.363595   -0.089138
     58          1           0      -12.276633    2.234574    1.729125
     59          1           0      -10.434200    2.206731    1.256770
     60          1           0      -12.246184   -2.566410    1.196877
     61          1           0       -8.896166   -1.909387    0.414204
     62          1           0       -6.126138   -2.351274   -0.891238
     63          1           0       -5.454914   -1.659212    0.867341
     64          1           0       -6.832290   -2.903277    0.584738
     65          1           0       -7.425152    1.429979   -0.123976
     66          1           0       -4.613984   -0.031967   -0.383211
     67          1           0       13.042669   -1.285098    2.626364
     68          1           0       11.717472   -2.018783    1.791109
     69          1           0       13.625130   -2.905045    0.839263
     70          1           0       12.845735   -2.316804   -1.607097
     71          1           0       11.534143   -2.660791   -0.613420
     72          1           0       11.756428    0.546013    3.393713
     73          1           0       10.314690    1.292199    2.502517
     74          1           0       10.161985   -0.269988    2.806289
     75          1           0       13.569756    1.284433    0.416342
     76          1           0       12.334849    2.290151    1.144367
     77          1           0       13.330851    1.424664    2.282100
     78          1           0       12.927635   -0.251625   -3.028195
     79          1           0       12.167128    1.384046   -2.208993
     80          1           0       13.728164    0.246359   -1.654545
     81          1           0       -5.484640    2.742460   -0.729446
     82          1           0       10.333679   -0.340486   -2.628738
     83          1           0       15.024625   -1.167211    0.749026
     84          1           0        8.228157    2.143377   -0.576404
     85          1           0       -2.397627    4.269790    0.013271
     86          1           0       -2.435856    3.756031   -1.722396
     87          1           0       -3.602273    4.515224   -0.972831
     88          1           0       -2.613286    0.421783   -0.337861
     89          1           0        6.587452   -1.705587    0.401434
     90          1           0        8.210458   -1.572269   -0.552697
     91          1           0        8.499388   -1.337186    1.350157
     92          1           0        6.270038    1.914177   -0.587179
     93          1           0       -0.636438    2.710774   -0.798409
     94          1           0        4.833413   -0.847589    0.495051
     95          1           0       -0.239256   -0.168817    0.085788
     96          1           0        3.895810    1.943675   -0.353201
     97          1           0        1.749913    2.107246   -0.197276
     98          1           0        1.418798   -1.570051    0.456210
     99          1           0        2.390494   -1.888902   -0.833434
    100          1           0        3.349136   -1.453176    0.964709
 ---------------------------------------------------------------------

 SCF Done:  E(RCAM-B3LYP) =  -1857.25174805     A.U. after   15 cycles

 Excitation energies and oscillator strengths:

 Excited State   1:      Singlet-A      2.3797 eV  521.02 nm  f=2.9199  <S**2>=0.000
     163 ->166        -0.15206
     164 ->165         0.68544
 This state for optimization and/or second-order correction.
 Total Energy, E(TD-HF/TD-DFT) =  -1857.16429717
 Copying the excited state density for this state as the 1-particle RhoCI density.

 The electronic state is 1-A.
 Alpha  occ. eigenvalues --  -19.22287 -19.21562 -19.21506 -19.21340 -10.32983
 Alpha  occ. eigenvalues --  -10.32942 -10.31741 -10.31604 -10.29914 -10.29005
 Alpha  occ. eigenvalues --  -10.28510 -10.28380 -10.28254 -10.27890 -10.27768
 Alpha  occ. eigenvalues --  -10.27716 -10.27524 -10.27445 -10.27366 -10.27309
 Alpha  occ. eigenvalues --  -10.27125 -10.27017 -10.26989 -10.26910 -10.26746
 Alpha  occ. eigenvalues --  -10.26588 -10.26422 -10.26343 -10.26273 -10.26207
 Alpha  occ. eigenvalues --  -10.26080 -10.25946 -10.25627 -10.25406 -10.25339
 Alpha  occ. eigenvalues --  -10.25196 -10.25149 -10.25024 -10.24942 -10.24940
 Alpha  occ. eigenvalues --  -10.24804 -10.24249 -10.23884 -10.23460  -1.15807
 Alpha  occ. eigenvalues --   -1.14754  -1.11544  -1.09752  -0.92617  -0.92358
 Alpha  occ. eigenvalues --   -0.92007  -0.91187  -0.90352  -0.89105  -0.87335
 Alpha  occ. eigenvalues --   -0.86594  -0.86322  -0.85868  -0.83887  -0.82924
 Alpha  occ. eigenvalues --   -0.82101  -0.81043  -0.79931  -0.78516  -0.76705
 Alpha  occ. eigenvalues --   -0.76291  -0.75990  -0.75804  -0.75435  -0.75116
 Alpha  occ. eigenvalues --   -0.74760  -0.74634  -0.73664  -0.71158  -0.70113
 Alpha  occ. eigenvalues --   -0.68900  -0.66667  -0.65644  -0.65459  -0.64672
 Alpha  occ. eigenvalues --   -0.63924  -0.62265  -0.60619  -0.60384  -0.59867
 Alpha  occ. eigenvalues --   -0.59529  -0.58775  -0.58150  -0.57120  -0.56397
 Alpha  occ. eigenvalues --   -0.55675  -0.55222  -0.54922  -0.54651  -0.54027
 Alpha  occ. eigenvalues --   -0.53549  -0.53366  -0.52788  -0.52420  -0.51680
 Alpha  occ. eigenvalues --   -0.51187  -0.50717  -0.50390  -0.50068  -0.49640
 Alpha  occ. eigenvalues --   -0.49369  -0.49311  -0.49067  -0.48961  -0.48535
 Alpha  occ. eigenvalues --   -0.48287  -0.48163  -0.47368  -0.47318  -0.47159
 Alpha  occ. eigenvalues --   -0.46864  -0.46248  -0.45617  -0.45550  -0.45199
 Alpha  occ. eigenvalues --   -0.44835  -0.44754  -0.44126  -0.44079  -0.43734
 Alpha  occ. eigenvalues --   -0.43540  -0.43387  -0.43272  -0.43078  -0.42443
 Alpha  occ. eigenvalues --   -0.42214  -0.41739  -0.41446  -0.41256  -0.41162
 Alpha  occ. eigenvalues --   -0.40828  -0.40487  -0.40388  -0.40078  -0.39562
 Alpha  occ. eigenvalues --   -0.39311  -0.39193  -0.38932  -0.38543  -0.38340
 Alpha  occ. eigenvalues --   -0.38189  -0.37783  -0.37673  -0.37640  -0.37449
 Alpha  occ. eigenvalues --   -0.36451  -0.35955  -0.35044  -0.34585  -0.33985
 Alpha  occ. eigenvalues --   -0.33401  -0.32567  -0.32157  -0.31789  -0.29526
 Alpha  occ. eigenvalues --   -0.28968  -0.27619  -0.23873  -0.20159
 Alpha virt. eigenvalues --   -0.05277  -0.01008   0.03429   0.04357   0.07476
 Alpha virt. eigenvalues --    0.08733   0.09327   0.11025   0.11529   0.12105
 Alpha virt. eigenvalues --    0.12356   0.12531   0.13539   0.13595   0.13874

 Mulliken charges:
               1
     1  O   -0.511891
     2  O   -0.537888
     3  O   -0.555209
     4  O   -0.490960
     5  C    0.193779
     6  C    0.205272
     7  C    0.017138
     8  C   -0.233225
     9  C   -0.184338
    10  C    0.165426
    11  C   -0.286636
    12  C   -0.111680
    13  C   -0.319386
    14  C   -0.323809
    15  C   -0.062570
    16  C    0.072036
    17  C   -0.367505
    18  C   -0.108864
    19  C   -0.065680
    20  C    0.006087
    21  C    0.269803
    22  C   -0.198341
    23  C    0.141463
    24  C   -0.181050
    25  C   -0.079995
    26  C   -0.296377
    27  C   -0.292511
    28  C   -0.341818
    29  C   -0.147115
    30  C    0.147470
    31  C    0.091971
    32  C   -0.266881
    33  C   -0.355026
    34  C   -0.109357
    35  C    0.117038
    36  C   -0.336704
    37  C   -0.132875
    38  C   -0.099153
    39  C   -0.071270
    40  C   -0.083784
    41  C   -0.093156
    42  C   -0.113477
    43  C    0.122603
    44  C   -0.353590
    45  H    0.104683
    46  H    0.119976
    47  H    0.095719
    48  H    0.113315
    49  H    0.086788
    50  H    0.078144
    51  H    0.116536
    52  H    0.123191
    53  H    0.116104
    54  H    0.095155
    55  H    0.106013
    56  H    0.083120
    57  H    0.124918
    58  H    0.118722
    59  H    0.095968
    60  H    0.298718
    61  H    0.080779
    62  H    0.111916
    63  H    0.122620
    64  H    0.123128
    65  H    0.093603
    66  H    0.084039
    67  H    0.073535
    68  H    0.110991
    69  H    0.058781
    70  H    0.117860
    71  H    0.130391
    72  H    0.090686
    73  H    0.120750
    74  H    0.084172
    75  H    0.127259
    76  H    0.114131
    77  H    0.081796
    78  H    0.110618
    79  H    0.078466
    80  H    0.138490
    81  H    0.084076
    82  H    0.307291
    83  H    0.272270
    84  H    0.076895
    85  H    0.116979
    86  H    0.128138
    87  H    0.109370
    88  H    0.078264
    89  H    0.100334
    90  H    0.151077
    91  H    0.085446
    92  H    0.072622
    93  H    0.072936
    94  H    0.070269
    95  H    0.050053
    96  H    0.079952
    97  H    0.068643
    98  H    0.120148
    99  H    0.080818
   100  H    0.105376
 Sum of Mulliken charges =  -0.00000

 Dipole moment (field-independent basis, Debye):
    X=              3.1217    Y=             -1.1127    Z=              0.1687  Tot=              3.3184
 Quadrupole moment (field-independent basis, Debye-Ang):
   XX=           -260.6983   YY=           -259.4816   ZZ=           -275.1110
   XY=             10.0909   XZ=             24.9152   YZ=             -3.4572

 Normal termination of Gaussian 16 at Tue Jul 30 00:07:01 2019.
