 Gaussian 16, Revision A.03,
 Gaussian 16:  ES64L-G16RevA.03 25-Dec-2016

 -------------------------------------
 # td=(NStates=1) CAM-B3LYP/6-31G(d,p)
 -------------------------------------

 --
 TD
 --
 Symbolic Z-matrix:
 Charge =  0 Multiplicity = 1

                         Standard orientation:
 ---------------------------------------------------------------------
 Center     Atomic      Atomic             Coordinates (Angstroms)
 Number     Number       Type             X           Y           Z
 ---------------------------------------------------------------------
      1          8           0      -11.604500    0.397970   -1.455543
      2          8           0      -12.814850   -2.709557    0.992192
      3          8           0       10.449461   -1.065092   -2.005367
      4          8           0       14.500436   -1.149536   -0.379541
      5          6           0      -11.002922   -0.148954   -0.258066
      6          6           0      -11.505392   -1.104420   -1.373462
      7          6           0      -11.928225    0.206835    1.036630
      8          6           0      -12.821738   -1.742830   -1.133497
      9          6           0      -13.375782   -0.385889    0.880495
     10          6           0      -13.488127   -1.779823    0.263636
     11          6           0      -10.585369   -1.710836   -2.329055
     12          6           0       -9.562470    0.168122   -0.286460
     13          6           0      -11.253193   -0.383687    2.222014
     14          6           0      -11.945928    1.762866    1.067262
     15          6           0       -8.656098   -0.651357    0.245711
     16          6           0       -7.234632   -0.471833    0.274361
     17          6           0       -6.481376   -1.778089    0.666083
     18          6           0       -6.625989    0.692809   -0.020463
     19          6           0       -5.177032    1.029419   -0.138720
     20          6           0       11.872091   -0.028768    1.277939
     21          6           0       11.576351   -0.623508   -1.284551
     22          6           0       12.749502   -1.407443    1.419552
     23          6           0       13.406678   -1.870570    0.163195
     24          6           0       12.293104   -1.895473   -0.970781
     25          6           0       11.058615    0.042031    0.005321
     26          6           0       10.938786    0.124642    2.537857
     27          6           0       12.865415    1.159785    1.293767
     28          6           0       12.477651    0.261265   -2.153437
     29          6           0       -4.731488    2.283858   -0.484278
     30          6           0        9.877503    0.501401    0.025570
     31          6           0       -3.386344    2.601882   -0.478492
     32          6           0        8.723863    0.977708   -0.085695
     33          6           0       -2.963932    4.109312   -0.829286
     34          6           0       -2.370142    1.723804   -0.193506
     35          6           0        7.512893    0.213449    0.124895
     36          6           0        7.680794   -1.309032    0.120012
     37          6           0        6.234828    0.841749    0.134871
     38          6           0       -1.005883    2.067521   -0.230903
     39          6           0        4.994819    0.264438    0.169711
     40          6           0        0.011203    1.120133    0.012463
     41          6           0        3.799903    0.921510    0.062471
     42          6           0        1.417231    1.347469    0.058322
     43          6           0        2.494837    0.464762    0.177505
     44          6           0        2.275659   -1.090684    0.373395
     45          1           0      -12.465609   -2.825012   -1.352725
     46          1           0      -13.728952   -1.551917   -2.030145
     47          1           0      -13.811403   -0.260024    1.690287
     48          1           0      -13.865490    0.314934    0.223921
     49          1           0      -14.517602   -1.993584    0.241525
     50          1           0       -9.910434   -2.758013   -2.189422
     51          1           0      -11.113811   -2.074691   -3.186964
     52          1           0       -9.630119   -1.228870   -2.526268
     53          1           0       -9.026606    1.120712   -0.502798
     54          1           0      -10.318763   -0.022946    2.395097
     55          1           0      -11.830717   -0.019601    3.285219
     56          1           0      -11.158205   -1.293549    2.110017
     57          1           0      -12.465254    2.168608    0.192458
     58          1           0      -12.555721    2.150461    1.965144
     59          1           0      -10.934909    2.281934    0.925314
     60          1           0      -11.778826   -2.506012    0.872816
     61          1           0       -8.893014   -1.659225    0.542228
     62          1           0       -6.076516   -2.477501   -0.147219
     63          1           0       -5.820902   -1.424314    1.383107
     64          1           0       -7.041511   -2.726218    1.256499
     65          1           0       -7.234469    1.562839   -0.104134
     66          1           0       -4.566248    0.173756    0.051913
     67          1           0       13.398716   -1.463794    2.276268
     68          1           0       12.156869   -2.312666    1.660159
     69          1           0       13.781489   -2.732405    0.454325
     70          1           0       12.762089   -2.389931   -1.970136
     71          1           0       11.552802   -2.534098   -0.620184
     72          1           0       11.492301   -0.331641    3.440561
     73          1           0       10.460714    1.143659    2.645446
     74          1           0        9.860944   -0.350431    2.299946
     75          1           0       13.620546    1.085064    0.408109
     76          1           0       12.452345    2.125028    0.895271
     77          1           0       13.507426    1.316018    2.204488
     78          1           0       12.826353   -0.291958   -2.845633
     79          1           0       11.920577    1.251782   -2.321024
     80          1           0       13.448920    0.600077   -1.596020
     81          1           0       -5.462665    3.103468   -0.582496
     82          1           0        9.926914   -0.299105   -2.128940
     83          1           0       15.195288   -1.072600    0.386478
     84          1           0        8.751696    2.078103   -0.251757
     85          1           0       -2.393586    4.654573   -0.125148
     86          1           0       -2.448028    4.004005   -1.938449
     87          1           0       -3.807894    4.562089   -1.002202
     88          1           0       -2.611917    0.650727    0.031092
     89          1           0        6.863010   -1.899820   -0.451291
     90          1           0        8.472004   -1.562259   -0.406561
     91          1           0        7.586925   -1.702674    1.355737
     92          1           0        6.240063    1.735633    0.254873
     93          1           0       -0.704400    3.220024   -0.267383
     94          1           0        4.815569   -0.835525    0.220216
     95          1           0       -0.168481    0.019988    0.203962
     96          1           0        3.818386    2.244141   -0.034088
     97          1           0        1.576021    2.441134   -0.171222
     98          1           0        1.056550   -1.315574    0.816459
     99          1           0        2.479117   -1.567494   -0.492508
    100          1           0        3.116059   -1.337011    1.167552
 ---------------------------------------------------------------------

 SCF Done:  E(RCAM-B3LYP) =  -1857.17887525     A.U. after   15 cycles

 Excitation energies and oscillator strengths:

 Excited State   1:      Singlet-A      2.1780 eV  569.27 nm  f=3.2039  <S**2>=0.000
     163 ->166        -0.14097
     164 ->165         0.69293
 This state for optimization and/or second-order correction.
 Total Energy, E(TD-HF/TD-DFT) =  -1857.09883702
 Copying the excited state density for this state as the 1-particle RhoCI density.

 The electronic state is 1-A.
 Alpha  occ. eigenvalues --  -19.22052 -19.21993 -19.21425 -19.20946 -10.33203
 Alpha  occ. eigenvalues --  -10.32477 -10.31523 -10.30622 -10.29899 -10.29148
 Alpha  occ. eigenvalues --  -10.28475 -10.28308 -10.28134 -10.28109 -10.28032
 Alpha  occ. eigenvalues --  -10.27927 -10.27826 -10.27701 -10.27581 -10.27440
 Alpha  occ. eigenvalues --  -10.27367 -10.27242 -10.27078 -10.26814 -10.26796
 Alpha  occ. eigenvalues --  -10.26774 -10.26587 -10.26440 -10.26388 -10.26310
 Alpha  occ. eigenvalues --  -10.26251 -10.26222 -10.26176 -10.26078 -10.25856
 Alpha  occ. eigenvalues --  -10.25781 -10.25540 -10.25531 -10.25352 -10.25297
 Alpha  occ. eigenvalues --  -10.24276 -10.23578 -10.23176 -10.22826  -1.12365
 Alpha  occ. eigenvalues --   -1.11477  -1.10731  -1.09022  -0.93276  -0.92556
 Alpha  occ. eigenvalues --   -0.91785  -0.91345  -0.90298  -0.90044  -0.87725
 Alpha  occ. eigenvalues --   -0.86787  -0.86271  -0.85410  -0.84742  -0.83790
 Alpha  occ. eigenvalues --   -0.82369  -0.81386  -0.80599  -0.78529  -0.77460
 Alpha  occ. eigenvalues --   -0.77336  -0.76983  -0.76450  -0.75953  -0.75766
 Alpha  occ. eigenvalues --   -0.74733  -0.74071  -0.73067  -0.70847  -0.69978
 Alpha  occ. eigenvalues --   -0.69216  -0.67437  -0.65761  -0.65125  -0.64259
 Alpha  occ. eigenvalues --   -0.64105  -0.61907  -0.61225  -0.60323  -0.59943
 Alpha  occ. eigenvalues --   -0.59447  -0.59268  -0.57905  -0.57708  -0.57367
 Alpha  occ. eigenvalues --   -0.55751  -0.55414  -0.54981  -0.54671  -0.54309
 Alpha  occ. eigenvalues --   -0.53735  -0.53491  -0.52859  -0.52330  -0.52063
 Alpha  occ. eigenvalues --   -0.51549  -0.51116  -0.50841  -0.50597  -0.50236
 Alpha  occ. eigenvalues --   -0.49901  -0.49433  -0.49161  -0.48802  -0.48592
 Alpha  occ. eigenvalues --   -0.48369  -0.48164  -0.47626  -0.47311  -0.46789
 Alpha  occ. eigenvalues --   -0.46686  -0.46324  -0.46149  -0.45975  -0.45450
 Alpha  occ. eigenvalues --   -0.45154  -0.44918  -0.44578  -0.44261  -0.43158
 Alpha  occ. eigenvalues --   -0.42905  -0.42805  -0.42758  -0.42392  -0.42331
 Alpha  occ. eigenvalues --   -0.41604  -0.41488  -0.41142  -0.41034  -0.40863
 Alpha  occ. eigenvalues --   -0.40783  -0.40064  -0.39869  -0.39597  -0.39423
 Alpha  occ. eigenvalues --   -0.39189  -0.39055  -0.38746  -0.38646  -0.38460
 Alpha  occ. eigenvalues --   -0.38208  -0.37992  -0.37770  -0.37556  -0.37228
 Alpha  occ. eigenvalues --   -0.36718  -0.36553  -0.35988  -0.35375  -0.34129
 Alpha  occ. eigenvalues --   -0.33125  -0.32272  -0.31952  -0.31469  -0.30717
 Alpha  occ. eigenvalues --   -0.30231  -0.28407  -0.24663  -0.19793
 Alpha virt. eigenvalues --   -0.06239  -0.01227   0.03051   0.06729   0.07581
 Alpha virt. eigenvalues --    0.08923   0.09234   0.10124   0.10416   0.11101
 Alpha virt. eigenvalues --    0.11986   0.12305   0.12469   0.12835   0.13114

 Mulliken charges:
               1
     1  O   -0.514282
     2  O   -0.531005
     3  O   -0.545624
     4  O   -0.547823
     5  C    0.154052
     6  C    0.276148
     7  C    0.006132
     8  C   -0.223252
     9  C   -0.156900
    10  C    0.166218
    11  C   -0.352597
    12  C   -0.090054
    13  C   -0.249128
    14  C   -0.320494
    15  C   -0.064663
    16  C    0.081204
    17  C   -0.378018
    18  C   -0.142044
    19  C   -0.062543
    20  C    0.046949
    21  C    0.245199
    22  C   -0.227325
    23  C    0.179488
    24  C   -0.192818
    25  C   -0.095803
    26  C   -0.309739
    27  C   -0.312108
    28  C   -0.277756
    29  C   -0.120744
    30  C    0.227345
    31  C    0.063128
    32  C   -0.326079
    33  C   -0.351999
    34  C   -0.090945
    35  C    0.070280
    36  C   -0.346340
    37  C   -0.041684
    38  C   -0.098259
    39  C   -0.100611
    40  C   -0.080510
    41  C   -0.083692
    42  C   -0.123788
    43  C    0.094190
    44  C   -0.349287
    45  H    0.100143
    46  H    0.079068
    47  H    0.096144
    48  H    0.102768
    49  H    0.105470
    50  H    0.076847
    51  H    0.129999
    52  H    0.142921
    53  H    0.096223
    54  H    0.115676
    55  H    0.064227
    56  H    0.076697
    57  H    0.127945
    58  H    0.091384
    59  H    0.098400
    60  H    0.313064
    61  H    0.065229
    62  H    0.124355
    63  H    0.136972
    64  H    0.084974
    65  H    0.081080
    66  H    0.091877
    67  H    0.087031
    68  H    0.105675
    69  H    0.082580
    70  H    0.093034
    71  H    0.114961
    72  H    0.094824
    73  H    0.109388
    74  H    0.090828
    75  H    0.101014
    76  H    0.099564
    77  H    0.095923
    78  H    0.118332
    79  H    0.076414
    80  H    0.118345
    81  H    0.093499
    82  H    0.299100
    83  H    0.301437
    84  H    0.115481
    85  H    0.130152
    86  H    0.104241
    87  H    0.111146
    88  H    0.083548
    89  H    0.104163
    90  H    0.139684
    91  H    0.087144
    92  H    0.043255
    93  H    0.092126
    94  H    0.078872
    95  H    0.064642
    96  H    0.044805
    97  H    0.071863
    98  H    0.081868
    99  H    0.149364
   100  H    0.111812
 Sum of Mulliken charges =  -0.00000

 Dipole moment (field-independent basis, Debye):
    X=              2.9496    Y=             -0.0955    Z=              1.9321  Tot=              3.5274
 Quadrupole moment (field-independent basis, Debye-Ang):
   XX=           -263.7644   YY=           -260.7284   ZZ=           -279.2053
   XY=             -2.6747   XZ=             27.3257   YZ=             -0.7513

 Normal termination of Gaussian 16 at Fri Aug  2 06:04:51 2019.
