 Gaussian 16, Revision A.03,
 Gaussian 16:  ES64L-G16RevA.03 25-Dec-2016

 -------------------------------------
 # td=(NStates=1) CAM-B3LYP/6-31G(d,p)
 -------------------------------------

 --
 TD
 --
 Symbolic Z-matrix:
 Charge =  0 Multiplicity = 1

                         Standard orientation:
 ---------------------------------------------------------------------
 Center     Atomic      Atomic             Coordinates (Angstroms)
 Number     Number       Type             X           Y           Z
 ---------------------------------------------------------------------
      1          8           0      -11.735618    0.459027   -1.428208
      2          8           0      -13.076465   -2.534145    1.204510
      3          8           0       10.641134   -1.048643   -2.044195
      4          8           0       14.563792   -1.117398   -0.125643
      5          6           0      -11.064208   -0.117437   -0.261889
      6          6           0      -11.762789   -0.953532   -1.265494
      7          6           0      -11.727529    0.227754    1.094259
      8          6           0      -13.165999   -1.486115   -1.057347
      9          6           0      -13.205455   -0.111854    1.078994
     10          6           0      -13.554408   -1.393202    0.463356
     11          6           0      -10.958875   -1.705272   -2.339993
     12          6           0       -9.592871    0.133404   -0.200241
     13          6           0      -11.089291   -0.457791    2.270579
     14          6           0      -11.664118    1.747523    1.298893
     15          6           0       -8.651527   -0.787653    0.083836
     16          6           0       -7.203537   -0.563877    0.107304
     17          6           0       -6.338526   -1.850210    0.375892
     18          6           0       -6.678888    0.587352   -0.127848
     19          6           0       -5.291340    0.852687   -0.165670
     20          6           0       11.930877    0.122247    1.363616
     21          6           0       11.664636   -0.584796   -1.207519
     22          6           0       12.624263   -1.319009    1.588144
     23          6           0       13.395035   -1.913156    0.281215
     24          6           0       12.463150   -1.871558   -0.786316
     25          6           0       11.041555   -0.072307    0.093836
     26          6           0       11.039178    0.354306    2.627495
     27          6           0       12.990211    1.222269    1.332914
     28          6           0       12.512476    0.344976   -2.045679
     29          6           0       -4.758479    2.164043   -0.348297
     30          6           0        9.898220    0.649825   -0.041236
     31          6           0       -3.389327    2.546712   -0.421323
     32          6           0        8.658597    1.081748   -0.216644
     33          6           0       -3.046475    3.926936   -0.617970
     34          6           0       -2.303882    1.580118   -0.290222
     35          6           0        7.467644    0.174153   -0.006282
     36          6           0        7.721404   -1.236215    0.308490
     37          6           0        6.261603    0.811307   -0.134732
     38          6           0       -0.939567    1.919121   -0.386210
     39          6           0        5.047686    0.101015   -0.138151
     40          6           0        0.070341    0.971903   -0.091832
     41          6           0        3.818035    0.770237   -0.125897
     42          6           0        1.382630    1.225894   -0.193923
     43          6           0        2.509349    0.241278   -0.188729
     44          6           0        2.272895   -1.196669    0.048954
     45          1           0      -13.116130   -2.525056   -1.697985
     46          1           0      -13.644430   -0.773431   -1.770307
     47          1           0      -13.529719   -0.040866    2.072035
     48          1           0      -13.882104    0.723285    0.664525
     49          1           0      -14.488648   -1.545153    0.445861
     50          1           0      -11.028186   -2.775182   -1.916454
     51          1           0      -11.711072   -1.753680   -3.149357
     52          1           0      -10.043417   -1.250681   -2.534287
     53          1           0       -9.302542    1.184641   -0.738064
     54          1           0      -10.027341   -0.441311    2.339987
     55          1           0      -11.407951    0.049834    3.121488
     56          1           0      -11.554472   -1.602321    2.342655
     57          1           0      -12.107039    2.156505    0.411102
     58          1           0      -12.201458    1.981000    2.065233
     59          1           0      -10.719286    2.124919    1.640032
     60          1           0      -12.158952   -2.869032    0.792912
     61          1           0       -8.985583   -1.733119    0.452214
     62          1           0       -5.885321   -2.279665   -0.552543
     63          1           0       -5.775503   -2.024038    1.133922
     64          1           0       -6.820133   -2.762389    0.874154
     65          1           0       -7.253917    1.454141   -0.325979
     66          1           0       -4.676709   -0.018555   -0.197517
     67          1           0       13.536390   -0.926422    2.343252
     68          1           0       11.875723   -1.981886    2.128935
     69          1           0       13.770366   -2.846584    0.372412
     70          1           0       12.894412   -2.264333   -1.773786
     71          1           0       11.391846   -2.790895   -0.694779
     72          1           0       11.580905    0.418229    3.665233
     73          1           0       10.632433    1.290195    2.405950
     74          1           0       10.184828   -0.313811    2.802094
     75          1           0       13.658942    0.996153    0.474406
     76          1           0       12.533731    2.314314    0.941993
     77          1           0       13.596298    1.291804    2.319819
     78          1           0       12.443527   -0.297049   -2.922012
     79          1           0       11.927367    1.400692   -2.231130
     80          1           0       13.375106    0.667280   -1.588730
     81          1           0       -5.512043    2.836619   -0.735550
     82          1           0        9.984544   -0.383318   -2.213965
     83          1           0       15.192931   -1.068988    0.622400
     84          1           0        8.567884    1.996112   -0.375870
     85          1           0       -2.476662    4.255946    0.186876
     86          1           0       -2.382467    4.080476   -1.692711
     87          1           0       -3.903917    4.587653   -0.444736
     88          1           0       -2.642806    0.692678   -0.102077
     89          1           0        6.979259   -1.969765    0.337549
     90          1           0        8.548358   -1.630373   -0.370539
     91          1           0        8.208955   -1.391000    1.177071
     92          1           0        6.363483    1.853072   -0.362189
     93          1           0       -0.759127    2.966369   -0.637689
     94          1           0        4.894291   -1.056088   -0.212082
     95          1           0       -0.264464   -0.263174    0.059284
     96          1           0        3.970583    1.917173   -0.137051
     97          1           0        1.868747    2.215933   -0.400377
     98          1           0        1.207886   -1.212626    0.193593
     99          1           0        2.659002   -1.884195   -0.864754
    100          1           0        2.974703   -1.667688    0.853830
 ---------------------------------------------------------------------

 SCF Done:  E(RCAM-B3LYP) =  -1857.21621622     A.U. after   16 cycles

 Excitation energies and oscillator strengths:

 Excited State   1:      Singlet-A      1.8812 eV  659.06 nm  f=2.8838  <S**2>=0.000
     163 ->166        -0.11272
     164 ->165         0.70723
     164 <-165        -0.13555
 This state for optimization and/or second-order correction.
 Total Energy, E(TD-HF/TD-DFT) =  -1857.14708247
 Copying the excited state density for this state as the 1-particle RhoCI density.

 The electronic state is 1-A.
 Alpha  occ. eigenvalues --  -19.22320 -19.22179 -19.21523 -19.20934 -10.32094
 Alpha  occ. eigenvalues --  -10.31399 -10.31281 -10.31171 -10.29777 -10.29166
 Alpha  occ. eigenvalues --  -10.28394 -10.28378 -10.28094 -10.28011 -10.27716
 Alpha  occ. eigenvalues --  -10.27473 -10.27450 -10.27402 -10.27384 -10.27221
 Alpha  occ. eigenvalues --  -10.27208 -10.27127 -10.27086 -10.26982 -10.26948
 Alpha  occ. eigenvalues --  -10.26921 -10.26723 -10.26454 -10.26371 -10.26355
 Alpha  occ. eigenvalues --  -10.26318 -10.26164 -10.25969 -10.25967 -10.25669
 Alpha  occ. eigenvalues --  -10.25458 -10.24956 -10.24831 -10.24820 -10.24525
 Alpha  occ. eigenvalues --  -10.24511 -10.24038 -10.23546 -10.22010  -1.14378
 Alpha  occ. eigenvalues --   -1.11044  -1.08920  -1.08134  -0.92501  -0.92443
 Alpha  occ. eigenvalues --   -0.91665  -0.91454  -0.90957  -0.90010  -0.87141
 Alpha  occ. eigenvalues --   -0.86762  -0.86251  -0.85434  -0.84666  -0.82877
 Alpha  occ. eigenvalues --   -0.82403  -0.81448  -0.81121  -0.79100  -0.78112
 Alpha  occ. eigenvalues --   -0.78084  -0.76651  -0.76281  -0.76248  -0.75507
 Alpha  occ. eigenvalues --   -0.74808  -0.73979  -0.72585  -0.71150  -0.70421
 Alpha  occ. eigenvalues --   -0.69311  -0.67347  -0.65345  -0.64267  -0.64025
 Alpha  occ. eigenvalues --   -0.62970  -0.61473  -0.61125  -0.60641  -0.59960
 Alpha  occ. eigenvalues --   -0.59545  -0.58134  -0.57827  -0.57631  -0.56746
 Alpha  occ. eigenvalues --   -0.56194  -0.55558  -0.54976  -0.54346  -0.53957
 Alpha  occ. eigenvalues --   -0.53923  -0.53296  -0.53157  -0.52461  -0.51907
 Alpha  occ. eigenvalues --   -0.51634  -0.51434  -0.51181  -0.50356  -0.50275
 Alpha  occ. eigenvalues --   -0.49789  -0.49038  -0.48891  -0.48642  -0.48425
 Alpha  occ. eigenvalues --   -0.48227  -0.47763  -0.47614  -0.47411  -0.46927
 Alpha  occ. eigenvalues --   -0.46392  -0.45985  -0.45898  -0.45682  -0.45313
 Alpha  occ. eigenvalues --   -0.44765  -0.44677  -0.44465  -0.44205  -0.43696
 Alpha  occ. eigenvalues --   -0.43375  -0.43240  -0.42756  -0.42435  -0.41932
 Alpha  occ. eigenvalues --   -0.41870  -0.41642  -0.41260  -0.40862  -0.40642
 Alpha  occ. eigenvalues --   -0.40320  -0.40159  -0.40141  -0.39997  -0.39624
 Alpha  occ. eigenvalues --   -0.39470  -0.39298  -0.39247  -0.39144  -0.38782
 Alpha  occ. eigenvalues --   -0.38471  -0.38227  -0.37908  -0.37269  -0.36998
 Alpha  occ. eigenvalues --   -0.35857  -0.35795  -0.35311  -0.34652  -0.33986
 Alpha  occ. eigenvalues --   -0.33257  -0.32396  -0.31908  -0.31431  -0.30845
 Alpha  occ. eigenvalues --   -0.29493  -0.28086  -0.24714  -0.18446
 Alpha virt. eigenvalues --   -0.06923  -0.00307   0.03352   0.04946   0.06516
 Alpha virt. eigenvalues --    0.08491   0.08564   0.10261   0.10666   0.11671
 Alpha virt. eigenvalues --    0.11961   0.12610   0.12684   0.13739   0.13894

 Mulliken charges:
               1
     1  O   -0.514625
     2  O   -0.560941
     3  O   -0.558664
     4  O   -0.563337
     5  C    0.202634
     6  C    0.214547
     7  C    0.020602
     8  C   -0.239747
     9  C   -0.192304
    10  C    0.200602
    11  C   -0.305046
    12  C   -0.116899
    13  C   -0.325273
    14  C   -0.310300
    15  C   -0.078238
    16  C    0.090247
    17  C   -0.383588
    18  C   -0.093789
    19  C   -0.073898
    20  C    0.015925
    21  C    0.242560
    22  C   -0.189814
    23  C    0.180056
    24  C   -0.163674
    25  C   -0.024399
    26  C   -0.307999
    27  C   -0.304033
    28  C   -0.282045
    29  C   -0.151365
    30  C    0.041566
    31  C    0.089637
    32  C   -0.211242
    33  C   -0.385640
    34  C   -0.059357
    35  C    0.134153
    36  C   -0.394112
    37  C   -0.118072
    38  C   -0.091765
    39  C   -0.096618
    40  C   -0.098050
    41  C   -0.115872
    42  C   -0.095963
    43  C    0.094125
    44  C   -0.358347
    45  H    0.080447
    46  H    0.135171
    47  H    0.113501
    48  H    0.092712
    49  H    0.100259
    50  H    0.086206
    51  H    0.111448
    52  H    0.128821
    53  H    0.102503
    54  H    0.108777
    55  H    0.102261
    56  H    0.094594
    57  H    0.123629
    58  H    0.104698
    59  H    0.096363
    60  H    0.308482
    61  H    0.082066
    62  H    0.123471
    63  H    0.132698
    64  H    0.081699
    65  H    0.079467
    66  H    0.093748
    67  H    0.043521
    68  H    0.109457
    69  H    0.105301
    70  H    0.101744
    71  H    0.060129
    72  H    0.085357
    73  H    0.118101
    74  H    0.104026
    75  H    0.128108
    76  H    0.077933
    77  H    0.101152
    78  H    0.131907
    79  H    0.060999
    80  H    0.132503
    81  H    0.090234
    82  H    0.307036
    83  H    0.309826
    84  H    0.083733
    85  H    0.139775
    86  H    0.098297
    87  H    0.106945
    88  H    0.053989
    89  H    0.116427
    90  H    0.124443
    91  H    0.135836
    92  H    0.091589
    93  H    0.094883
    94  H    0.084654
    95  H    0.077965
    96  H    0.066883
    97  H    0.087575
    98  H    0.105381
    99  H    0.102233
   100  H    0.117400
 Sum of Mulliken charges =  -0.00000

 Dipole moment (field-independent basis, Debye):
    X=              2.2978    Y=             -0.5395    Z=              1.5885  Tot=              2.8451
 Quadrupole moment (field-independent basis, Debye-Ang):
   XX=           -265.5086   YY=           -258.4535   ZZ=           -278.0664
   XY=              2.4441   XZ=             29.1766   YZ=             -1.3367

 Normal termination of Gaussian 16 at Mon Jul 29 18:47:54 2019.
