 Gaussian 16, Revision A.03,
 Gaussian 16:  ES64L-G16RevA.03 25-Dec-2016

 -------------------------------------
 # td=(NStates=1) CAM-B3LYP/6-31G(d,p)
 -------------------------------------

 --
 TD
 --
 Symbolic Z-matrix:
 Charge =  0 Multiplicity = 1

                         Standard orientation:
 ---------------------------------------------------------------------
 Center     Atomic      Atomic             Coordinates (Angstroms)
 Number     Number       Type             X           Y           Z
 ---------------------------------------------------------------------
      1          8           0      -11.673761   -0.148101   -1.756359
      2          8           0      -12.887556   -2.205215    1.780369
      3          8           0       10.706625   -1.144812   -2.131741
      4          8           0       14.507916   -1.115660   -0.022435
      5          6           0      -11.002913   -0.228140   -0.519059
      6          6           0      -11.556849   -1.354417   -1.141424
      7          6           0      -11.811373    0.498981    0.701468
      8          6           0      -12.820626   -2.060425   -0.670804
      9          6           0      -13.367413    0.072423    0.649729
     10          6           0      -13.486823   -1.533601    0.617910
     11          6           0      -10.677324   -2.302766   -2.060811
     12          6           0       -9.538325    0.065778   -0.500431
     13          6           0      -11.153439    0.335508    2.054739
     14          6           0      -11.749766    2.072239    0.431415
     15          6           0       -8.682632   -0.714578    0.153652
     16          6           0       -7.230200   -0.552724    0.211813
     17          6           0       -6.390880   -1.718580    0.806507
     18          6           0       -6.628725    0.641602   -0.040668
     19          6           0       -5.272592    0.955311   -0.047999
     20          6           0       11.906399    0.137224    1.293481
     21          6           0       11.704177   -0.678641   -1.232979
     22          6           0       12.522341   -1.187694    1.559716
     23          6           0       13.350798   -1.761643    0.385281
     24          6           0       12.407569   -1.897238   -0.838886
     25          6           0       11.073583    0.161465   -0.064221
     26          6           0       10.854183    0.391081    2.364288
     27          6           0       12.859295    1.369397    1.250300
     28          6           0       12.626039    0.269651   -2.025453
     29          6           0       -4.754991    2.275783   -0.250190
     30          6           0        9.842697    0.468171   -0.108061
     31          6           0       -3.366922    2.532830   -0.402402
     32          6           0        8.564165    0.856885   -0.193782
     33          6           0       -3.093687    3.975240   -0.832104
     34          6           0       -2.328034    1.639051   -0.237722
     35          6           0        7.454725    0.118999    0.028118
     36          6           0        7.655421   -1.403383    0.260422
     37          6           0        6.220476    0.682003   -0.093318
     38          6           0       -0.933548    1.900327   -0.351489
     39          6           0        4.872607    0.142502    0.090736
     40          6           0        0.081518    0.963282   -0.114953
     41          6           0        3.811282    0.832143   -0.034412
     42          6           0        1.367308    1.247149   -0.175417
     43          6           0        2.502235    0.351008    0.028041
     44          6           0        2.365814   -1.130786    0.337019
     45          1           0      -12.831767   -3.285805   -0.521415
     46          1           0      -13.683155   -1.732694   -1.395404
     47          1           0      -13.837397    0.494358    1.462585
     48          1           0      -13.824652    0.560849   -0.005938
     49          1           0      -14.585283   -1.856878    0.794924
     50          1           0      -10.557647   -3.302068   -1.590411
     51          1           0      -10.944530   -2.481220   -3.138415
     52          1           0       -9.720845   -1.696866   -2.150308
     53          1           0       -9.221762    1.009425   -1.041088
     54          1           0      -10.179822    0.655380    2.343204
     55          1           0      -11.933781    0.667291    2.644017
     56          1           0      -11.196761   -0.782512    2.284812
     57          1           0      -12.257822    2.307195   -0.587207
     58          1           0      -12.415405    2.563841    1.082028
     59          1           0      -10.676733    2.312387    0.497002
     60          1           0      -12.011019   -2.605261    1.495980
     61          1           0       -8.804001   -1.551182    0.812806
     62          1           0       -5.715759   -2.149581   -0.017717
     63          1           0       -5.778730   -1.543551    1.809836
     64          1           0       -7.115160   -2.740969    1.049183
     65          1           0       -7.288020    1.588456    0.124687
     66          1           0       -4.503545    0.111170   -0.016914
     67          1           0       13.064055   -1.086981    2.542871
     68          1           0       11.713062   -1.827897    1.725261
     69          1           0       13.574253   -2.840724    0.590068
     70          1           0       12.955885   -2.375501   -1.676113
     71          1           0       11.619595   -2.647251   -0.652049
     72          1           0       11.333760    0.486771    3.437335
     73          1           0       10.279510    1.291284    2.341904
     74          1           0       10.179377   -0.406276    2.542035
     75          1           0       13.523760    1.353741    0.430818
     76          1           0       12.206156    2.386434    1.206174
     77          1           0       13.394541    1.325550    2.102307
     78          1           0       12.829952   -0.219147   -2.929070
     79          1           0       12.197486    1.266898   -2.472262
     80          1           0       13.491204    0.331143   -1.503743
     81          1           0       -5.535176    2.904201   -0.485751
     82          1           0        9.976339   -0.567741   -2.559465
     83          1           0       15.088079   -0.846363    0.674218
     84          1           0        8.499096    1.959198   -0.458632
     85          1           0       -2.563869    4.517337   -0.174295
     86          1           0       -2.498294    3.785993   -1.750947
     87          1           0       -3.870623    4.469496   -1.034485
     88          1           0       -2.528598    0.555473   -0.118641
     89          1           0        6.811811   -2.041256   -0.083428
     90          1           0        8.540422   -1.875006   -0.242858
     91          1           0        7.581080   -1.478751    1.588901
     92          1           0        6.346083    1.792487   -0.304106
     93          1           0       -0.609803    2.963688   -0.479028
     94          1           0        4.774231   -1.074220    0.181865
     95          1           0       -0.096431   -0.110664    0.114007
     96          1           0        4.019202    1.866412    0.055714
     97          1           0        1.623128    2.197858   -0.464718
     98          1           0        1.350617   -1.483343    0.069793
     99          1           0        2.901295   -1.643028   -0.323395
    100          1           0        2.513179   -1.149774    1.486495
 ---------------------------------------------------------------------

 SCF Done:  E(RCAM-B3LYP) =  -1857.31002381     A.U. after   15 cycles

 Excitation energies and oscillator strengths:

 Excited State   1:      Singlet-A      2.0113 eV  616.45 nm  f=3.0692  <S**2>=0.000
     163 ->166         0.12975
     164 ->165         0.69852
     164 <-165        -0.10557
 This state for optimization and/or second-order correction.
 Total Energy, E(TD-HF/TD-DFT) =  -1857.23611141
 Copying the excited state density for this state as the 1-particle RhoCI density.

 The electronic state is 1-A.
 Alpha  occ. eigenvalues --  -19.22678 -19.22512 -19.21072 -19.20089 -10.32086
 Alpha  occ. eigenvalues --  -10.32037 -10.31865 -10.31635 -10.31585 -10.29290
 Alpha  occ. eigenvalues --  -10.28134 -10.28010 -10.28010 -10.27766 -10.27745
 Alpha  occ. eigenvalues --  -10.27717 -10.27398 -10.27088 -10.26955 -10.26935
 Alpha  occ. eigenvalues --  -10.26900 -10.26621 -10.26584 -10.26532 -10.26432
 Alpha  occ. eigenvalues --  -10.26362 -10.26191 -10.26190 -10.26139 -10.25997
 Alpha  occ. eigenvalues --  -10.25979 -10.25942 -10.25558 -10.25353 -10.25047
 Alpha  occ. eigenvalues --  -10.24972 -10.24615 -10.24585 -10.24304 -10.24296
 Alpha  occ. eigenvalues --  -10.23833 -10.22966 -10.22942 -10.22405  -1.19176
 Alpha  occ. eigenvalues --   -1.12004  -1.07643  -1.07244  -0.93419  -0.92741
 Alpha  occ. eigenvalues --   -0.91941  -0.91247  -0.90601  -0.89252  -0.88251
 Alpha  occ. eigenvalues --   -0.86615  -0.85846  -0.85026  -0.84682  -0.83033
 Alpha  occ. eigenvalues --   -0.81755  -0.80600  -0.79707  -0.79594  -0.76908
 Alpha  occ. eigenvalues --   -0.76349  -0.76230  -0.76203  -0.76078  -0.75460
 Alpha  occ. eigenvalues --   -0.75186  -0.74219  -0.73099  -0.71283  -0.70114
 Alpha  occ. eigenvalues --   -0.69119  -0.66990  -0.65637  -0.64728  -0.64239
 Alpha  occ. eigenvalues --   -0.64047  -0.62551  -0.61318  -0.59862  -0.59666
 Alpha  occ. eigenvalues --   -0.59605  -0.58863  -0.58312  -0.57710  -0.56052
 Alpha  occ. eigenvalues --   -0.55714  -0.55352  -0.55054  -0.54440  -0.53896
 Alpha  occ. eigenvalues --   -0.53253  -0.52987  -0.52737  -0.52386  -0.51883
 Alpha  occ. eigenvalues --   -0.51561  -0.51174  -0.50739  -0.50042  -0.49654
 Alpha  occ. eigenvalues --   -0.49518  -0.49227  -0.49191  -0.48829  -0.48295
 Alpha  occ. eigenvalues --   -0.47867  -0.47582  -0.47398  -0.47109  -0.46960
 Alpha  occ. eigenvalues --   -0.46468  -0.46255  -0.46077  -0.45580  -0.44831
 Alpha  occ. eigenvalues --   -0.44658  -0.44443  -0.44298  -0.43845  -0.43695
 Alpha  occ. eigenvalues --   -0.43627  -0.43188  -0.42843  -0.42571  -0.42192
 Alpha  occ. eigenvalues --   -0.42070  -0.41825  -0.41791  -0.41457  -0.41270
 Alpha  occ. eigenvalues --   -0.40854  -0.40744  -0.40308  -0.40263  -0.40006
 Alpha  occ. eigenvalues --   -0.39915  -0.39062  -0.38973  -0.38595  -0.38472
 Alpha  occ. eigenvalues --   -0.38161  -0.37991  -0.37581  -0.37307  -0.36932
 Alpha  occ. eigenvalues --   -0.36578  -0.36317  -0.35420  -0.34955  -0.34113
 Alpha  occ. eigenvalues --   -0.33126  -0.31896  -0.31597  -0.31313  -0.30399
 Alpha  occ. eigenvalues --   -0.30224  -0.27304  -0.24267  -0.18988
 Alpha virt. eigenvalues --   -0.06435  -0.00994   0.03100   0.06799   0.08232
 Alpha virt. eigenvalues --    0.09952   0.10432   0.11068   0.11760   0.12348
 Alpha virt. eigenvalues --    0.12678   0.13036   0.13328   0.13695   0.13949

 Mulliken charges:
               1
     1  O   -0.475725
     2  O   -0.560055
     3  O   -0.614237
     4  O   -0.534154
     5  C    0.234179
     6  C    0.244593
     7  C   -0.011269
     8  C   -0.237938
     9  C   -0.183184
    10  C    0.160862
    11  C   -0.324585
    12  C   -0.163799
    13  C   -0.293919
    14  C   -0.312388
    15  C   -0.021285
    16  C    0.057340
    17  C   -0.362549
    18  C   -0.120591
    19  C   -0.063969
    20  C    0.019381
    21  C    0.300922
    22  C   -0.200113
    23  C    0.160561
    24  C   -0.203241
    25  C   -0.172447
    26  C   -0.312421
    27  C   -0.292840
    28  C   -0.314878
    29  C   -0.123531
    30  C    0.227356
    31  C    0.064324
    32  C   -0.288023
    33  C   -0.350131
    34  C   -0.108291
    35  C    0.165111
    36  C   -0.355014
    37  C   -0.147582
    38  C   -0.113536
    39  C   -0.089238
    40  C   -0.058845
    41  C   -0.061121
    42  C   -0.093334
    43  C    0.034641
    44  C   -0.359010
    45  H    0.091555
    46  H    0.115649
    47  H    0.099212
    48  H    0.109240
    49  H    0.091254
    50  H    0.087343
    51  H    0.116746
    52  H    0.111360
    53  H    0.116474
    54  H    0.111917
    55  H    0.111678
    56  H    0.084458
    57  H    0.098389
    58  H    0.107797
    59  H    0.101113
    60  H    0.305156
    61  H    0.081441
    62  H    0.126070
    63  H    0.125094
    64  H    0.071131
    65  H    0.081592
    66  H    0.080381
    67  H    0.088070
    68  H    0.118352
    69  H    0.075694
    70  H    0.120027
    71  H    0.116364
    72  H    0.061171
    73  H    0.117410
    74  H    0.112473
    75  H    0.117605
    76  H    0.088933
    77  H    0.099116
    78  H    0.108917
    79  H    0.076938
    80  H    0.132406
    81  H    0.087032
    82  H    0.315178
    83  H    0.309944
    84  H    0.106101
    85  H    0.128842
    86  H    0.118786
    87  H    0.109318
    88  H    0.078695
    89  H    0.113191
    90  H    0.133532
    91  H    0.075167
    92  H    0.067986
    93  H    0.084907
    94  H    0.072855
    95  H    0.074536
    96  H    0.083988
    97  H    0.069009
    98  H    0.098899
    99  H    0.136191
   100  H    0.131293
 Sum of Mulliken charges =  -0.00000

 Dipole moment (field-independent basis, Debye):
    X=              3.3867    Y=             -0.2056    Z=              1.5640  Tot=              3.7361
 Quadrupole moment (field-independent basis, Debye-Ang):
   XX=           -265.0459   YY=           -257.5419   ZZ=           -279.3271
   XY=              1.1947   XZ=             27.6121   YZ=             -2.3660

 Normal termination of Gaussian 16 at Wed Jul 31 10:44:59 2019.
