 Gaussian 16, Revision A.03,
 Gaussian 16:  ES64L-G16RevA.03 25-Dec-2016

 -------------------------------------
 # td=(NStates=1) CAM-B3LYP/6-31G(d,p)
 -------------------------------------

 --
 TD
 --
 Symbolic Z-matrix:
 Charge =  0 Multiplicity = 1

                         Standard orientation:
 ---------------------------------------------------------------------
 Center     Atomic      Atomic             Coordinates (Angstroms)
 Number     Number       Type             X           Y           Z
 ---------------------------------------------------------------------
      1          8           0      -11.635573    0.047996   -1.589641
      2          8           0      -13.253082   -2.108454    1.613546
      3          8           0       10.653250   -1.250554   -2.079461
      4          8           0       14.552950   -1.128963    0.016282
      5          6           0      -11.016646   -0.199167   -0.370259
      6          6           0      -11.593091   -1.274061   -1.140031
      7          6           0      -11.701387    0.543821    0.806189
      8          6           0      -12.997146   -1.847192   -0.805320
      9          6           0      -13.228102    0.179482    0.741742
     10          6           0      -13.576692   -1.232430    0.549404
     11          6           0      -10.797769   -2.271471   -1.981415
     12          6           0       -9.586292    0.057413   -0.351673
     13          6           0      -11.144330    0.111034    2.122223
     14          6           0      -11.584397    2.032146    0.603550
     15          6           0       -8.685357   -0.753655    0.160382
     16          6           0       -7.313818   -0.697110    0.138463
     17          6           0       -6.370457   -1.837479    0.557498
     18          6           0       -6.661775    0.578989   -0.201602
     19          6           0       -5.229877    0.816148   -0.134344
     20          6           0       11.939768    0.280286    1.249001
     21          6           0       11.681903   -0.705475   -1.348683
     22          6           0       12.716942   -1.043620    1.637789
     23          6           0       13.337293   -1.769204    0.431838
     24          6           0       12.437909   -1.980868   -0.717821
     25          6           0       11.151934    0.062028    0.015466
     26          6           0       10.900825    0.706816    2.394966
     27          6           0       12.999589    1.344453    1.007296
     28          6           0       12.542530    0.139844   -2.197589
     29          6           0       -4.813753    2.040562   -0.563490
     30          6           0        9.913971    0.461740   -0.200273
     31          6           0       -3.372075    2.437224   -0.541069
     32          6           0        8.606339    0.922571   -0.331254
     33          6           0       -3.023206    3.890387   -0.914370
     34          6           0       -2.397314    1.439402   -0.236013
     35          6           0        7.466102    0.075047   -0.001208
     36          6           0        7.712426   -1.310833    0.553035
     37          6           0        6.243690    0.799214   -0.102154
     38          6           0       -1.037823    1.731032   -0.264590
     39          6           0        4.950989    0.168842    0.158423
     40          6           0        0.034649    0.790320    0.032563
     41          6           0        3.807197    0.873751    0.032076
     42          6           0        1.375356    1.084561   -0.099170
     43          6           0        2.479782    0.319668    0.047486
     44          6           0        2.299456   -1.092242    0.511947
     45          1           0      -13.186542   -3.075524   -0.473289
     46          1           0      -13.657843   -1.351841   -1.540628
     47          1           0      -13.716559    0.552690    1.666257
     48          1           0      -13.541144    0.742808   -0.225949
     49          1           0      -14.614538   -1.379492    0.638230
     50          1           0      -10.554495   -3.298396   -1.619431
     51          1           0      -11.517153   -2.512689   -2.918160
     52          1           0       -9.802957   -1.850272   -2.316859
     53          1           0       -9.308605    0.896391   -1.045030
     54          1           0      -10.119091    0.471024    2.382834
     55          1           0      -11.907034    0.279707    2.989299
     56          1           0      -10.901520   -1.010728    2.370256
     57          1           0      -11.888392    2.369273   -0.433394
     58          1           0      -12.316547    2.351117    1.334000
     59          1           0      -10.584293    2.611150    0.814553
     60          1           0      -12.304290   -2.488245    1.430351
     61          1           0       -9.142347   -1.463905    0.844608
     62          1           0       -5.927349   -2.221205   -0.280811
     63          1           0       -5.765427   -1.296706    1.476863
     64          1           0       -6.890493   -2.724751    0.768458
     65          1           0       -7.266650    1.420295   -0.573136
     66          1           0       -4.589665    0.022242    0.361116
     67          1           0       13.327936   -0.837063    2.512896
     68          1           0       11.920004   -1.659970    2.034167
     69          1           0       13.667673   -2.756442    0.775004
     70          1           0       13.053296   -2.365022   -1.774262
     71          1           0       11.652566   -2.703784   -0.460905
     72          1           0       11.585638    1.025187    3.227684
     73          1           0       10.457409    1.753327    2.097188
     74          1           0       10.252591   -0.322118    2.597667
     75          1           0       13.747060    1.035299    0.206497
     76          1           0       12.388302    2.145699    0.808550
     77          1           0       13.727652    1.482332    2.031613
     78          1           0       12.533781   -0.497706   -3.188880
     79          1           0       12.024613    1.162085   -2.594296
     80          1           0       13.484237    0.504144   -1.811519
     81          1           0       -5.480409    2.754523   -0.840272
     82          1           0       10.085096   -0.484303   -2.159367
     83          1           0       15.013397   -0.957850    0.789483
     84          1           0        8.364658    1.964187   -0.686913
     85          1           0       -2.505900    4.535664   -0.177536
     86          1           0       -2.337096    4.020771   -1.819931
     87          1           0       -3.862534    4.565790   -1.078455
     88          1           0       -2.719926    0.482375    0.067233
     89          1           0        6.836783   -1.822223    0.283925
     90          1           0        8.390509   -1.757704   -0.137507
     91          1           0        8.122037   -1.239065    1.525041
     92          1           0        6.390369    1.855009   -0.463748
     93          1           0       -0.686753    2.739484   -0.495493
     94          1           0        4.913988   -0.725680    0.523547
     95          1           0       -0.261660   -0.119699    0.197872
     96          1           0        3.732091    1.887838   -0.271820
     97          1           0        1.732166    2.056002   -0.279568
     98          1           0        1.246441   -1.348385    0.582434
     99          1           0        2.519385   -1.845664   -0.362372
    100          1           0        2.843123   -1.282022    1.512019
 ---------------------------------------------------------------------

 SCF Done:  E(RCAM-B3LYP) =  -1857.33829771     A.U. after   15 cycles

 Excitation energies and oscillator strengths:

 Excited State   1:      Singlet-A      2.0993 eV  590.59 nm  f=3.0077  <S**2>=0.000
     163 ->166         0.14094
     164 ->165         0.69282
 This state for optimization and/or second-order correction.
 Total Energy, E(TD-HF/TD-DFT) =  -1857.26114907
 Copying the excited state density for this state as the 1-particle RhoCI density.

 The electronic state is 1-A.
 Alpha  occ. eigenvalues --  -19.23055 -19.21640 -19.21252 -19.21034 -10.32848
 Alpha  occ. eigenvalues --  -10.32342 -10.31361 -10.31006 -10.29380 -10.28872
 Alpha  occ. eigenvalues --  -10.28342 -10.28120 -10.27906 -10.27796 -10.27737
 Alpha  occ. eigenvalues --  -10.27730 -10.27370 -10.27259 -10.27231 -10.27127
 Alpha  occ. eigenvalues --  -10.27025 -10.26971 -10.26905 -10.26809 -10.26772
 Alpha  occ. eigenvalues --  -10.26639 -10.26478 -10.26477 -10.26207 -10.26183
 Alpha  occ. eigenvalues --  -10.26127 -10.25948 -10.25900 -10.25863 -10.25582
 Alpha  occ. eigenvalues --  -10.25535 -10.25529 -10.25405 -10.25371 -10.25344
 Alpha  occ. eigenvalues --  -10.25251 -10.25176 -10.24701 -10.24659  -1.18849
 Alpha  occ. eigenvalues --   -1.12454  -1.11012  -1.08390  -0.92875  -0.92256
 Alpha  occ. eigenvalues --   -0.92104  -0.91055  -0.90329  -0.89821  -0.87183
 Alpha  occ. eigenvalues --   -0.85847  -0.85581  -0.85088  -0.84068  -0.83333
 Alpha  occ. eigenvalues --   -0.81804  -0.80685  -0.80537  -0.78462  -0.77595
 Alpha  occ. eigenvalues --   -0.76510  -0.75996  -0.75839  -0.75710  -0.75129
 Alpha  occ. eigenvalues --   -0.75018  -0.74734  -0.73043  -0.70291  -0.69583
 Alpha  occ. eigenvalues --   -0.68383  -0.66762  -0.65837  -0.64979  -0.64591
 Alpha  occ. eigenvalues --   -0.63983  -0.61803  -0.61205  -0.60557  -0.59978
 Alpha  occ. eigenvalues --   -0.58942  -0.58657  -0.58357  -0.57628  -0.56392
 Alpha  occ. eigenvalues --   -0.56207  -0.55598  -0.55360  -0.54558  -0.54140
 Alpha  occ. eigenvalues --   -0.53268  -0.53167  -0.52755  -0.52527  -0.51990
 Alpha  occ. eigenvalues --   -0.51649  -0.51321  -0.50775  -0.50734  -0.50424
 Alpha  occ. eigenvalues --   -0.49854  -0.49633  -0.49528  -0.48889  -0.48178
 Alpha  occ. eigenvalues --   -0.47612  -0.47056  -0.46935  -0.46797  -0.46555
 Alpha  occ. eigenvalues --   -0.46435  -0.46251  -0.45884  -0.45577  -0.45407
 Alpha  occ. eigenvalues --   -0.45204  -0.44555  -0.44275  -0.44049  -0.43720
 Alpha  occ. eigenvalues --   -0.43450  -0.43088  -0.42995  -0.42693  -0.42681
 Alpha  occ. eigenvalues --   -0.42534  -0.42434  -0.41907  -0.41463  -0.41224
 Alpha  occ. eigenvalues --   -0.40838  -0.40651  -0.40402  -0.40296  -0.39919
 Alpha  occ. eigenvalues --   -0.39713  -0.39575  -0.39112  -0.39094  -0.38830
 Alpha  occ. eigenvalues --   -0.38493  -0.38168  -0.37759  -0.37548  -0.37441
 Alpha  occ. eigenvalues --   -0.36126  -0.35767  -0.35192  -0.34816  -0.33955
 Alpha  occ. eigenvalues --   -0.33265  -0.32405  -0.32110  -0.31502  -0.30946
 Alpha  occ. eigenvalues --   -0.29654  -0.26621  -0.23631  -0.19234
 Alpha virt. eigenvalues --   -0.05941  -0.00804   0.02557   0.06541   0.07155
 Alpha virt. eigenvalues --    0.09301   0.09476   0.10244   0.12228   0.12751
 Alpha virt. eigenvalues --    0.12884   0.13083   0.13566   0.13710   0.14295

 Mulliken charges:
               1
     1  O   -0.492381
     2  O   -0.560423
     3  O   -0.537232
     4  O   -0.538340
     5  C    0.196085
     6  C    0.254672
     7  C    0.039092
     8  C   -0.243996
     9  C   -0.193460
    10  C    0.172303
    11  C   -0.332372
    12  C   -0.105522
    13  C   -0.311077
    14  C   -0.309487
    15  C   -0.069854
    16  C    0.030310
    17  C   -0.353884
    18  C   -0.119053
    19  C   -0.050268
    20  C   -0.011519
    21  C    0.247446
    22  C   -0.211862
    23  C    0.165462
    24  C   -0.179851
    25  C   -0.053555
    26  C   -0.295216
    27  C   -0.283286
    28  C   -0.300856
    29  C   -0.115418
    30  C    0.069943
    31  C    0.076353
    32  C   -0.257343
    33  C   -0.391876
    34  C   -0.094148
    35  C    0.086967
    36  C   -0.362832
    37  C   -0.107947
    38  C   -0.089163
    39  C   -0.071533
    40  C   -0.074818
    41  C   -0.107252
    42  C   -0.104964
    43  C    0.112323
    44  C   -0.380307
    45  H    0.093260
    46  H    0.124514
    47  H    0.095680
    48  H    0.105569
    49  H    0.101949
    50  H    0.109760
    51  H    0.097301
    52  H    0.117075
    53  H    0.097241
    54  H    0.108938
    55  H    0.100750
    56  H    0.077533
    57  H    0.117280
    58  H    0.109552
    59  H    0.094513
    60  H    0.297358
    61  H    0.072209
    62  H    0.141030
    63  H    0.119887
    64  H    0.106531
    65  H    0.085471
    66  H    0.097790
    67  H    0.095490
    68  H    0.093699
    69  H    0.089728
    70  H    0.084509
    71  H    0.119669
    72  H    0.096126
    73  H    0.113650
    74  H    0.098607
    75  H    0.130107
    76  H    0.108325
    77  H    0.053704
    78  H    0.109649
    79  H    0.070517
    80  H    0.135822
    81  H    0.085470
    82  H    0.299505
    83  H    0.299286
    84  H    0.107547
    85  H    0.124432
    86  H    0.120805
    87  H    0.112640
    88  H    0.081041
    89  H    0.120264
    90  H    0.136895
    91  H    0.136747
    92  H    0.081776
    93  H    0.083255
    94  H    0.078349
    95  H    0.063823
    96  H    0.071831
    97  H    0.061470
    98  H    0.107128
    99  H    0.101967
   100  H    0.115113
 Sum of Mulliken charges =  -0.00000

 Dipole moment (field-independent basis, Debye):
    X=              1.9049    Y=              0.1787    Z=              2.1862  Tot=              2.9052
 Quadrupole moment (field-independent basis, Debye-Ang):
   XX=           -292.5300   YY=           -256.7788   ZZ=           -279.3170
   XY=              8.0201   XZ=             35.6894   YZ=             -6.0339

 Normal termination of Gaussian 16 at Mon Jul 29 16:56:53 2019.
