 Gaussian 16, Revision A.03,
 Gaussian 16:  ES64L-G16RevA.03 25-Dec-2016

 -------------------------------------
 # td=(NStates=1) CAM-B3LYP/6-31G(d,p)
 -------------------------------------

 --
 TD
 --
 Symbolic Z-matrix:
 Charge =  0 Multiplicity = 1

                         Standard orientation:
 ---------------------------------------------------------------------
 Center     Atomic      Atomic             Coordinates (Angstroms)
 Number     Number       Type             X           Y           Z
 ---------------------------------------------------------------------
      1          8           0      -11.642559    0.219872   -1.565159
      2          8           0      -12.990356   -2.534825    1.306738
      3          8           0       10.546286   -0.948153   -2.137456
      4          8           0       14.413125   -1.295233   -0.260560
      5          6           0      -11.015947   -0.124986   -0.373589
      6          6           0      -11.565594   -1.146478   -1.301408
      7          6           0      -11.804024    0.286153    0.903424
      8          6           0      -12.951939   -1.823646   -0.990014
      9          6           0      -13.294573   -0.166874    0.858447
     10          6           0      -13.478826   -1.636277    0.347739
     11          6           0      -10.705242   -1.951885   -2.283518
     12          6           0       -9.544572    0.057350   -0.377069
     13          6           0      -11.159149   -0.113420    2.258827
     14          6           0      -11.731106    1.886388    0.846559
     15          6           0       -8.659031   -0.814135    0.165078
     16          6           0       -7.238245   -0.572095    0.321985
     17          6           0       -6.312545   -1.623111    0.792876
     18          6           0       -6.651354    0.720968    0.075664
     19          6           0       -5.319709    0.919702   -0.034288
     20          6           0       11.890883    0.067124    1.269799
     21          6           0       11.663288   -0.574022   -1.206813
     22          6           0       12.520510   -1.272857    1.500189
     23          6           0       13.236514   -1.990849    0.159222
     24          6           0       12.234014   -1.872271   -0.967926
     25          6           0       11.088521    0.008932    0.018016
     26          6           0       10.992808    0.280643    2.618585
     27          6           0       12.994750    1.110027    1.330636
     28          6           0       12.598343    0.365406   -2.067896
     29          6           0       -4.661238    2.153246   -0.331677
     30          6           0        9.884924    0.639076   -0.016968
     31          6           0       -3.378067    2.574843   -0.457551
     32          6           0        8.637479    0.965603   -0.119457
     33          6           0       -3.022362    3.997887   -0.830062
     34          6           0       -2.397254    1.605573   -0.261063
     35          6           0        7.481661    0.149670   -0.036903
     36          6           0        7.734784   -1.329128    0.073096
     37          6           0        6.277612    0.752100   -0.029267
     38          6           0       -1.003336    1.867776   -0.218914
     39          6           0        4.937860    0.201078    0.113281
     40          6           0        0.052324    1.055606   -0.096345
     41          6           0        3.829642    0.918255    0.007129
     42          6           0        1.400634    1.377420   -0.058703
     43          6           0        2.437760    0.396158    0.031841
     44          6           0        2.295175   -1.044213    0.405770
     45          1           0      -12.895914   -2.957463   -1.162135
     46          1           0      -13.817977   -1.370190   -1.722851
     47          1           0      -13.739146    0.017113    1.803707
     48          1           0      -13.716747    0.495606    0.063287
     49          1           0      -14.544863   -1.872999    0.432975
     50          1           0      -10.314473   -2.842853   -1.792346
     51          1           0      -11.451342   -2.328050   -3.190957
     52          1           0       -9.897295   -1.157148   -2.822819
     53          1           0       -9.125347    1.107155   -0.793064
     54          1           0      -10.275660    0.379908    2.332350
     55          1           0      -11.693815    0.028185    3.062699
     56          1           0      -10.698316   -1.023384    2.301054
     57          1           0      -11.717595    2.098272   -0.430059
     58          1           0      -12.648857    2.385516    1.278466
     59          1           0      -10.664138    2.233757    1.067326
     60          1           0      -11.861893   -2.762253    1.105544
     61          1           0       -9.065349   -1.809292    0.470678
     62          1           0       -5.661154   -1.795015   -0.072045
     63          1           0       -5.738572   -1.329972    1.540223
     64          1           0       -6.932055   -2.433211    1.111007
     65          1           0       -7.192349    1.534874   -0.150595
     66          1           0       -4.723347    0.121261    0.261698
     67          1           0       13.329762   -1.243748    2.157103
     68          1           0       11.756217   -1.855939    2.011118
     69          1           0       13.510735   -3.067823    0.396292
     70          1           0       12.656105   -2.445380   -1.801168
     71          1           0       11.341839   -2.584819   -0.562075
     72          1           0       11.517051   -0.107089    3.495761
     73          1           0       10.656388    1.237355    2.742825
     74          1           0       10.176610   -0.283776    2.478410
     75          1           0       13.632664    0.729864    0.588704
     76          1           0       12.670939    2.154222    0.694869
     77          1           0       13.452774    1.405869    2.295653
     78          1           0       12.880237    0.053803   -2.975487
     79          1           0       12.087678    1.249501   -2.398899
     80          1           0       13.466261    0.484466   -1.472987
     81          1           0       -5.399824    2.946724   -0.520859
     82          1           0        9.931986   -0.185423   -2.068777
     83          1           0       15.101774   -1.558272    0.449444
     84          1           0        8.504807    2.165967   -0.225874
     85          1           0       -2.762931    4.705447    0.115439
     86          1           0       -2.274359    4.193665   -1.653533
     87          1           0       -4.104805    4.496254   -1.053497
     88          1           0       -2.678418    0.585969    0.001882
     89          1           0        7.090821   -1.942967   -0.194974
     90          1           0        8.698823   -1.545476   -0.487596
     91          1           0        8.066984   -1.501022    1.137651
     92          1           0        6.461427    1.704821   -0.081464
     93          1           0       -0.745582    2.804490   -0.512644
     94          1           0        4.789264   -0.880928    0.252722
     95          1           0       -0.097404   -0.048558   -0.021187
     96          1           0        3.839423    1.914602   -0.058583
     97          1           0        1.788003    2.361978   -0.173277
     98          1           0        1.159278   -1.250605    0.602157
     99          1           0        2.756866   -1.684080   -0.307520
    100          1           0        2.730599   -1.066603    1.475321
 ---------------------------------------------------------------------

 SCF Done:  E(RCAM-B3LYP) =  -1857.30024563     A.U. after   15 cycles

 Excitation energies and oscillator strengths:

 Excited State   1:      Singlet-A      2.0575 eV  602.60 nm  f=2.7120  <S**2>=0.000
     163 ->166        -0.12169
     164 ->165         0.70298
     164 <-165        -0.11829
 This state for optimization and/or second-order correction.
 Total Energy, E(TD-HF/TD-DFT) =  -1857.22463456
 Copying the excited state density for this state as the 1-particle RhoCI density.

 The electronic state is 1-A.
 Alpha  occ. eigenvalues --  -19.23362 -19.22860 -19.22011 -19.19801 -10.32551
 Alpha  occ. eigenvalues --  -10.32235 -10.32103 -10.31571 -10.29816 -10.28570
 Alpha  occ. eigenvalues --  -10.28398 -10.28264 -10.28155 -10.27920 -10.27907
 Alpha  occ. eigenvalues --  -10.27712 -10.27674 -10.27530 -10.27495 -10.27464
 Alpha  occ. eigenvalues --  -10.27448 -10.27381 -10.27277 -10.27118 -10.26608
 Alpha  occ. eigenvalues --  -10.26590 -10.26514 -10.26406 -10.26366 -10.26272
 Alpha  occ. eigenvalues --  -10.25636 -10.25406 -10.25350 -10.25042 -10.25031
 Alpha  occ. eigenvalues --  -10.25024 -10.24980 -10.24950 -10.24437 -10.24388
 Alpha  occ. eigenvalues --  -10.23737 -10.23080 -10.22535 -10.21363  -1.18330
 Alpha  occ. eigenvalues --   -1.10031  -1.07387  -1.07127  -0.93797  -0.92861
 Alpha  occ. eigenvalues --   -0.92524  -0.91670  -0.90855  -0.89467  -0.88017
 Alpha  occ. eigenvalues --   -0.86602  -0.86185  -0.85534  -0.84946  -0.83204
 Alpha  occ. eigenvalues --   -0.82438  -0.80410  -0.80341  -0.79021  -0.78180
 Alpha  occ. eigenvalues --   -0.77327  -0.76999  -0.76952  -0.76342  -0.75366
 Alpha  occ. eigenvalues --   -0.75213  -0.74121  -0.73520  -0.70499  -0.69932
 Alpha  occ. eigenvalues --   -0.68871  -0.67240  -0.64983  -0.64607  -0.64135
 Alpha  occ. eigenvalues --   -0.64050  -0.62477  -0.61286  -0.61278  -0.60435
 Alpha  occ. eigenvalues --   -0.59137  -0.58403  -0.57962  -0.57141  -0.56588
 Alpha  occ. eigenvalues --   -0.56345  -0.56081  -0.55280  -0.54865  -0.54145
 Alpha  occ. eigenvalues --   -0.53723  -0.53423  -0.52837  -0.52130  -0.51821
 Alpha  occ. eigenvalues --   -0.51739  -0.51258  -0.50712  -0.50256  -0.49728
 Alpha  occ. eigenvalues --   -0.49660  -0.49414  -0.49212  -0.48671  -0.48244
 Alpha  occ. eigenvalues --   -0.47998  -0.47914  -0.47783  -0.47663  -0.47365
 Alpha  occ. eigenvalues --   -0.47095  -0.46631  -0.46558  -0.46001  -0.45692
 Alpha  occ. eigenvalues --   -0.45430  -0.44755  -0.44677  -0.44534  -0.44385
 Alpha  occ. eigenvalues --   -0.44280  -0.43959  -0.43157  -0.42978  -0.42704
 Alpha  occ. eigenvalues --   -0.42582  -0.42294  -0.41861  -0.41709  -0.41487
 Alpha  occ. eigenvalues --   -0.41256  -0.40760  -0.40662  -0.40113  -0.39871
 Alpha  occ. eigenvalues --   -0.39690  -0.39463  -0.38719  -0.38511  -0.38404
 Alpha  occ. eigenvalues --   -0.38266  -0.38204  -0.37829  -0.37389  -0.36838
 Alpha  occ. eigenvalues --   -0.36713  -0.36072  -0.35847  -0.35179  -0.33822
 Alpha  occ. eigenvalues --   -0.32916  -0.32193  -0.31973  -0.31423  -0.30168
 Alpha  occ. eigenvalues --   -0.29520  -0.28257  -0.24628  -0.19350
 Alpha virt. eigenvalues --   -0.06514  -0.00929   0.02939   0.04507   0.06267
 Alpha virt. eigenvalues --    0.06849   0.09330   0.11015   0.11831   0.12501
 Alpha virt. eigenvalues --    0.13038   0.13373   0.13613   0.14187   0.14400

 Mulliken charges:
               1
     1  O   -0.481213
     2  O   -0.548510
     3  O   -0.572120
     4  O   -0.532607
     5  C    0.191756
     6  C    0.237940
     7  C    0.041573
     8  C   -0.216107
     9  C   -0.194355
    10  C    0.181570
    11  C   -0.320113
    12  C   -0.105769
    13  C   -0.288318
    14  C   -0.322371
    15  C   -0.075608
    16  C    0.038642
    17  C   -0.366232
    18  C   -0.073078
    19  C   -0.053140
    20  C    0.010799
    21  C    0.230873
    22  C   -0.189465
    23  C    0.112292
    24  C   -0.158450
    25  C   -0.011465
    26  C   -0.321490
    27  C   -0.297943
    28  C   -0.294737
    29  C   -0.150980
    30  C    0.072289
    31  C    0.145469
    32  C   -0.294948
    33  C   -0.376293
    34  C   -0.115071
    35  C    0.147706
    36  C   -0.368472
    37  C   -0.094854
    38  C   -0.081424
    39  C   -0.103523
    40  C   -0.077961
    41  C   -0.064060
    42  C   -0.109542
    43  C    0.075379
    44  C   -0.371901
    45  H    0.098781
    46  H    0.103589
    47  H    0.102644
    48  H    0.098563
    49  H    0.097583
    50  H    0.112257
    51  H    0.091635
    52  H    0.112745
    53  H    0.097059
    54  H    0.103786
    55  H    0.112717
    56  H    0.081240
    57  H    0.085273
    58  H    0.107935
    59  H    0.105734
    60  H    0.283273
    61  H    0.069224
    62  H    0.131719
    63  H    0.142344
    64  H    0.102133
    65  H    0.063714
    66  H    0.066058
    67  H    0.081101
    68  H    0.098041
    69  H    0.081359
    70  H    0.118083
    71  H    0.094117
    72  H    0.097312
    73  H    0.112114
    74  H    0.111921
    75  H    0.130900
    76  H    0.058415
    77  H    0.107706
    78  H    0.121647
    79  H    0.091007
    80  H    0.126973
    81  H    0.060972
    82  H    0.299101
    83  H    0.314181
    84  H    0.100461
    85  H    0.112114
    86  H    0.134201
    87  H    0.094815
    88  H    0.079383
    89  H    0.112534
    90  H    0.126072
    91  H    0.113234
    92  H    0.058603
    93  H    0.067548
    94  H    0.083915
    95  H    0.069865
    96  H    0.068798
    97  H    0.082016
    98  H    0.101206
    99  H    0.136547
   100  H    0.129569
 Sum of Mulliken charges =  -0.00000

 Dipole moment (field-independent basis, Debye):
    X=              3.4093    Y=             -1.0006    Z=              2.3733  Tot=              4.2729
 Quadrupole moment (field-independent basis, Debye-Ang):
   XX=           -276.5702   YY=           -258.5827   ZZ=           -278.8423
   XY=             -4.9286   XZ=             33.2455   YZ=             -3.5688

 Normal termination of Gaussian 16 at Tue Jul 30 02:48:01 2019.
