 Gaussian 16, Revision A.03,
 Gaussian 16:  ES64L-G16RevA.03 25-Dec-2016

 -------------------------------------
 # td=(NStates=1) CAM-B3LYP/6-31G(d,p)
 -------------------------------------

 --
 TD
 --
 Symbolic Z-matrix:
 Charge =  0 Multiplicity = 1

                         Standard orientation:
 ---------------------------------------------------------------------
 Center     Atomic      Atomic             Coordinates (Angstroms)
 Number     Number       Type             X           Y           Z
 ---------------------------------------------------------------------
      1          8           0      -11.721326    0.533568   -1.457242
      2          8           0      -13.020145   -2.521347    1.280442
      3          8           0       10.663201   -1.108560   -2.018444
      4          8           0       14.602159   -0.826180   -0.018964
      5          6           0      -11.051198   -0.067284   -0.268223
      6          6           0      -11.825042   -0.885800   -1.258262
      7          6           0      -11.706494    0.311412    1.135808
      8          6           0      -13.152637   -1.453761   -0.899063
      9          6           0      -13.254466   -0.032947    1.100227
     10          6           0      -13.541811   -1.408643    0.516174
     11          6           0      -11.223735   -1.663791   -2.358103
     12          6           0       -9.590256   -0.004369   -0.332947
     13          6           0      -11.002484   -0.320532    2.295318
     14          6           0      -11.554091    1.923084    1.242686
     15          6           0       -8.685739   -0.873192    0.077962
     16          6           0       -7.310337   -0.674725    0.107349
     17          6           0       -6.448854   -1.976574    0.146220
     18          6           0       -6.720858    0.590927   -0.112551
     19          6           0       -5.349351    0.789527   -0.163145
     20          6           0       11.991804   -0.004284    1.397333
     21          6           0       11.717739   -0.614501   -1.207107
     22          6           0       12.787994   -1.294122    1.565245
     23          6           0       13.607640   -1.806960    0.209482
     24          6           0       12.605616   -1.812925   -0.939453
     25          6           0       11.163294   -0.028244    0.139094
     26          6           0       11.018185    0.080294    2.522393
     27          6           0       12.846407    1.291415    1.449111
     28          6           0       12.452603    0.575280   -2.016750
     29          6           0       -4.732915    2.069422   -0.214123
     30          6           0        9.888190    0.401061   -0.004074
     31          6           0       -3.384733    2.442498   -0.405255
     32          6           0        8.687853    0.912996   -0.160334
     33          6           0       -3.100989    3.812956   -0.643548
     34          6           0       -2.338253    1.449775   -0.318211
     35          6           0        7.458385    0.178144   -0.056671
     36          6           0        7.550902   -1.282089    0.008826
     37          6           0        6.266105    0.826245   -0.137639
     38          6           0       -0.971502    1.737303   -0.410130
     39          6           0        4.918128    0.205505   -0.019003
     40          6           0        0.073272    0.915850   -0.030998
     41          6           0        3.742127    0.933374   -0.125952
     42          6           0        1.367525    1.203279   -0.116596
     43          6           0        2.527755    0.325511    0.001840
     44          6           0        2.309102   -1.187773    0.017653
     45          1           0      -13.222340   -2.551180   -1.329742
     46          1           0      -13.855425   -0.864766   -1.610973
     47          1           0      -13.717213    0.088802    2.012072
     48          1           0      -13.660864    0.596838    0.380804
     49          1           0      -14.616985   -1.587884    0.626997
     50          1           0      -10.824540   -2.500309   -2.097141
     51          1           0      -11.620353   -1.791670   -3.348099
     52          1           0      -10.270357   -1.289577   -2.706003
     53          1           0       -9.354560    0.897628   -0.946815
     54          1           0       -9.896621   -0.148017    2.235453
     55          1           0      -11.423413   -0.059584    3.311272
     56          1           0      -11.070078   -1.222953    2.381667
     57          1           0      -11.969516    2.393391    0.403240
     58          1           0      -12.018175    2.366846    2.166968
     59          1           0      -10.317348    1.983394    1.255280
     60          1           0      -12.170511   -2.491652    1.189835
     61          1           0       -9.143000   -1.794720    0.605897
     62          1           0       -6.438846   -2.551681   -0.898507
     63          1           0       -5.144152   -1.963624    0.688075
     64          1           0       -6.912871   -2.867270    0.914454
     65          1           0       -7.448713    1.478014   -0.194164
     66          1           0       -4.585018   -0.108993   -0.354865
     67          1           0       13.559847   -1.447362    2.348315
     68          1           0       12.053932   -2.130118    1.662029
     69          1           0       13.992535   -2.681542    0.553637
     70          1           0       13.261297   -1.943281   -1.903941
     71          1           0       12.045644   -2.502084   -0.767090
     72          1           0       11.566464    0.217444    3.437115
     73          1           0       10.489214    1.014332    2.442031
     74          1           0       10.366970   -0.877164    2.627894
     75          1           0       13.844361    1.423838    0.836882
     76          1           0       12.193525    2.249350    1.210945
     77          1           0       13.082329    1.560840    2.531863
     78          1           0       12.501954    0.216849   -3.120388
     79          1           0       11.809655    1.437487   -2.213884
     80          1           0       13.535347    0.983312   -1.675000
     81          1           0       -5.586358    2.708171   -0.282691
     82          1           0       10.032474   -0.423857   -2.085849
     83          1           0       15.070251   -0.600365    0.979367
     84          1           0        8.541205    1.936899   -0.450357
     85          1           0       -2.202792    4.210362   -0.112332
     86          1           0       -2.727084    4.062089   -1.776162
     87          1           0       -4.040908    4.523713   -0.604587
     88          1           0       -2.582426    0.417202    0.020218
     89          1           0        6.757397   -2.085878    0.063176
     90          1           0        8.459366   -1.512522   -0.671141
     91          1           0        8.027277   -1.791762    1.083205
     92          1           0        6.465319    1.893940   -0.150428
     93          1           0       -0.558897    2.731853   -0.772951
     94          1           0        5.022313   -0.829383    0.193572
     95          1           0       -0.134977   -0.306553    0.211610
     96          1           0        3.795240    1.919079   -0.461061
     97          1           0        1.516848    2.177334   -0.566032
     98          1           0        1.430942   -1.544929   -0.514233
     99          1           0        3.346338   -1.726476   -0.604276
    100          1           0        2.345925   -1.411743    1.151023
 ---------------------------------------------------------------------

 SCF Done:  E(RCAM-B3LYP) =  -1857.20722690     A.U. after   16 cycles

 Excitation energies and oscillator strengths:

 Excited State   1:      Singlet-A      1.8047 eV  686.99 nm  f=2.9806  <S**2>=0.000
     163 ->166         0.11755
     164 ->165         0.70623
     164 <-165        -0.13333
 This state for optimization and/or second-order correction.
 Total Energy, E(TD-HF/TD-DFT) =  -1857.14090369
 Copying the excited state density for this state as the 1-particle RhoCI density.

 The electronic state is 1-A.
 Alpha  occ. eigenvalues --  -19.22709 -19.22269 -19.21432 -19.20133 -10.32897
 Alpha  occ. eigenvalues --  -10.32436 -10.32029 -10.31091 -10.30751 -10.30099
 Alpha  occ. eigenvalues --  -10.28773 -10.28707 -10.28645 -10.28499 -10.28221
 Alpha  occ. eigenvalues --  -10.28119 -10.27967 -10.27646 -10.27529 -10.27475
 Alpha  occ. eigenvalues --  -10.27354 -10.27318 -10.27294 -10.27288 -10.27231
 Alpha  occ. eigenvalues --  -10.27230 -10.27178 -10.27153 -10.27062 -10.27053
 Alpha  occ. eigenvalues --  -10.26546 -10.26519 -10.26411 -10.26335 -10.26210
 Alpha  occ. eigenvalues --  -10.26006 -10.25943 -10.25904 -10.25763 -10.24629
 Alpha  occ. eigenvalues --  -10.24203 -10.23978 -10.23336 -10.23039  -1.13724
 Alpha  occ. eigenvalues --   -1.11396  -1.11164  -1.08004  -0.93486  -0.92658
 Alpha  occ. eigenvalues --   -0.92356  -0.91706  -0.91037  -0.90351  -0.88149
 Alpha  occ. eigenvalues --   -0.87645  -0.86611  -0.85830  -0.84697  -0.83380
 Alpha  occ. eigenvalues --   -0.82108  -0.81077  -0.79866  -0.78431  -0.77784
 Alpha  occ. eigenvalues --   -0.76714  -0.76375  -0.76199  -0.75744  -0.75245
 Alpha  occ. eigenvalues --   -0.75031  -0.73889  -0.72819  -0.71060  -0.70395
 Alpha  occ. eigenvalues --   -0.69128  -0.67002  -0.65645  -0.65075  -0.64736
 Alpha  occ. eigenvalues --   -0.63163  -0.61738  -0.60622  -0.60585  -0.60205
 Alpha  occ. eigenvalues --   -0.59129  -0.59027  -0.58937  -0.57980  -0.56704
 Alpha  occ. eigenvalues --   -0.56074  -0.55369  -0.54519  -0.54452  -0.54157
 Alpha  occ. eigenvalues --   -0.53815  -0.53597  -0.53306  -0.52926  -0.51832
 Alpha  occ. eigenvalues --   -0.51664  -0.51627  -0.50730  -0.50501  -0.49761
 Alpha  occ. eigenvalues --   -0.49312  -0.49207  -0.49049  -0.48502  -0.48363
 Alpha  occ. eigenvalues --   -0.47896  -0.47091  -0.46966  -0.46890  -0.46551
 Alpha  occ. eigenvalues --   -0.46294  -0.45981  -0.45903  -0.45331  -0.45046
 Alpha  occ. eigenvalues --   -0.44423  -0.44323  -0.44110  -0.43952  -0.43550
 Alpha  occ. eigenvalues --   -0.43349  -0.42932  -0.42903  -0.42677  -0.42145
 Alpha  occ. eigenvalues --   -0.42009  -0.41905  -0.41752  -0.41436  -0.41388
 Alpha  occ. eigenvalues --   -0.40960  -0.40856  -0.40649  -0.40385  -0.40156
 Alpha  occ. eigenvalues --   -0.39784  -0.39623  -0.39303  -0.39242  -0.38975
 Alpha  occ. eigenvalues --   -0.38154  -0.38134  -0.37951  -0.37160  -0.36865
 Alpha  occ. eigenvalues --   -0.36637  -0.36532  -0.35439  -0.34926  -0.34319
 Alpha  occ. eigenvalues --   -0.32922  -0.32772  -0.31998  -0.31116  -0.30585
 Alpha  occ. eigenvalues --   -0.29587  -0.28180  -0.24647  -0.18703
 Alpha virt. eigenvalues --   -0.07528  -0.01243   0.02853   0.05173   0.06194
 Alpha virt. eigenvalues --    0.07948   0.09740   0.09901   0.10592   0.10938
 Alpha virt. eigenvalues --    0.11359   0.11572   0.11965   0.12702   0.13248

 Mulliken charges:
               1
     1  O   -0.518438
     2  O   -0.530338
     3  O   -0.547754
     4  O   -0.545089
     5  C    0.159605
     6  C    0.280319
     7  C    0.002435
     8  C   -0.226190
     9  C   -0.186963
    10  C    0.139245
    11  C   -0.360999
    12  C   -0.100274
    13  C   -0.296945
    14  C   -0.295764
    15  C   -0.085041
    16  C    0.091194
    17  C   -0.329419
    18  C   -0.117797
    19  C   -0.065223
    20  C    0.055737
    21  C    0.247608
    22  C   -0.243206
    23  C    0.165648
    24  C   -0.144829
    25  C   -0.045294
    26  C   -0.297247
    27  C   -0.317694
    28  C   -0.321596
    29  C   -0.135393
    30  C    0.133373
    31  C    0.150160
    32  C   -0.310494
    33  C   -0.396399
    34  C   -0.121744
    35  C    0.178624
    36  C   -0.390860
    37  C   -0.135309
    38  C   -0.103005
    39  C   -0.102377
    40  C   -0.052402
    41  C   -0.078472
    42  C   -0.128593
    43  C    0.093127
    44  C   -0.343668
    45  H    0.106178
    46  H    0.116528
    47  H    0.103849
    48  H    0.116480
    49  H    0.100217
    50  H    0.120545
    51  H    0.123170
    52  H    0.108272
    53  H    0.115142
    54  H    0.107418
    55  H    0.099233
    56  H    0.094096
    57  H    0.130936
    58  H    0.100955
    59  H    0.073592
    60  H    0.283191
    61  H    0.078015
    62  H    0.122199
    63  H    0.063065
    64  H    0.082887
    65  H    0.096406
    66  H    0.085200
    67  H    0.084006
    68  H    0.091538
    69  H    0.091042
    70  H    0.103656
    71  H    0.107583
    72  H    0.094610
    73  H    0.112547
    74  H    0.100850
    75  H    0.114672
    76  H    0.094213
    77  H    0.091374
    78  H    0.098459
    79  H    0.095194
    80  H    0.119610
    81  H    0.078097
    82  H    0.302398
    83  H    0.302424
    84  H    0.115164
    85  H    0.127540
    86  H    0.101643
    87  H    0.112087
    88  H    0.091152
    89  H    0.121758
    90  H    0.123639
    91  H    0.069781
    92  H    0.069444
    93  H    0.082151
    94  H    0.089730
    95  H    0.052186
    96  H    0.093976
    97  H    0.075485
    98  H    0.133639
    99  H    0.080826
   100  H    0.127686
 Sum of Mulliken charges =  -0.00000

 Dipole moment (field-independent basis, Debye):
    X=              2.9678    Y=              0.1604    Z=              1.5501  Tot=              3.3521
 Quadrupole moment (field-independent basis, Debye-Ang):
   XX=           -275.6874   YY=           -262.4436   ZZ=           -276.3079
   XY=              1.1920   XZ=             35.9975   YZ=             -2.7786

 Normal termination of Gaussian 16 at Wed Jul 31 10:40:00 2019.
