 Gaussian 16, Revision A.03,
 Gaussian 16:  ES64L-G16RevA.03 25-Dec-2016

 -------------------------------------
 # td=(NStates=1) CAM-B3LYP/6-31G(d,p)
 -------------------------------------

 --
 TD
 --
 Symbolic Z-matrix:
 Charge =  0 Multiplicity = 1

                         Standard orientation:
 ---------------------------------------------------------------------
 Center     Atomic      Atomic             Coordinates (Angstroms)
 Number     Number       Type             X           Y           Z
 ---------------------------------------------------------------------
      1          8           0      -11.619538    0.226966   -1.592301
      2          8           0      -13.246599   -2.432922    1.396552
      3          8           0       10.579433   -1.241645   -1.978670
      4          8           0       14.609121   -1.038931   -0.290177
      5          6           0      -11.056568   -0.094194   -0.335604
      6          6           0      -11.626901   -1.215389   -1.204822
      7          6           0      -11.782896    0.417902    0.901882
      8          6           0      -13.070216   -1.666271   -0.906576
      9          6           0      -13.290440    0.072324    0.884914
     10          6           0      -13.599893   -1.380173    0.488694
     11          6           0      -10.810136   -2.083933   -2.119669
     12          6           0       -9.539931    0.036225   -0.333661
     13          6           0      -11.188939   -0.123609    2.200820
     14          6           0      -11.706024    1.996460    0.936831
     15          6           0       -8.700624   -0.864584    0.191422
     16          6           0       -7.251796   -0.684350    0.147619
     17          6           0       -6.350663   -1.892888    0.394241
     18          6           0       -6.565139    0.609181    0.036167
     19          6           0       -5.304815    0.863787   -0.176574
     20          6           0       12.044956    0.072257    1.310197
     21          6           0       11.654117   -0.714237   -1.240131
     22          6           0       12.910978   -1.246503    1.526543
     23          6           0       13.431041   -1.711978    0.254255
     24          6           0       12.431976   -1.987825   -0.816565
     25          6           0       11.136580   -0.035971    0.035994
     26          6           0       11.168207    0.271478    2.513817
     27          6           0       12.896710    1.279444    1.194042
     28          6           0       12.387223    0.253187   -2.067035
     29          6           0       -4.726068    2.103629   -0.535370
     30          6           0       10.000568    0.509200   -0.120714
     31          6           0       -3.402773    2.450376   -0.464326
     32          6           0        8.703713    1.030924   -0.227368
     33          6           0       -3.075512    3.872810   -0.851251
     34          6           0       -2.379079    1.557696   -0.354718
     35          6           0        7.474568    0.245488    0.037587
     36          6           0        7.638878   -1.188795    0.347156
     37          6           0        6.312991    0.875176   -0.037362
     38          6           0       -1.042024    1.885229   -0.234439
     39          6           0        5.015755    0.279714    0.084941
     40          6           0       -0.073315    0.926408   -0.009674
     41          6           0        3.814513    0.949145   -0.124992
     42          6           0        1.346418    1.202626   -0.166354
     43          6           0        2.497452    0.392435    0.119107
     44          6           0        2.313667   -1.116026    0.478449
     45          1           0      -13.245305   -2.771543   -1.166254
     46          1           0      -13.779605   -1.118247   -1.494441
     47          1           0      -13.781093    0.522313    2.033875
     48          1           0      -13.879483    0.672559   -0.078648
     49          1           0      -14.724661   -1.388110    0.339161
     50          1           0      -10.265275   -2.861067   -1.544824
     51          1           0      -11.394497   -2.616312   -2.990885
     52          1           0      -10.001193   -1.607499   -2.427651
     53          1           0       -9.232580    0.868027   -0.771693
     54          1           0      -10.091324   -0.145036    2.187048
     55          1           0      -11.755293    0.477972    2.893130
     56          1           0      -11.503110   -1.187539    2.453826
     57          1           0      -11.924672    2.414012   -0.114448
     58          1           0      -12.597754    2.304596    1.569563
     59          1           0      -10.798378    2.369577    1.066090
     60          1           0      -12.350735   -2.706533    1.190020
     61          1           0       -8.973210   -1.811071    0.497966
     62          1           0       -5.856015   -2.152047   -0.391960
     63          1           0       -5.620718   -1.811902    1.231562
     64          1           0       -6.979031   -2.710065    0.750141
     65          1           0       -7.282966    1.577276    0.121740
     66          1           0       -4.338203    0.099358   -0.319475
     67          1           0       13.973413   -0.909071    2.232852
     68          1           0       12.194840   -1.978294    1.915128
     69          1           0       13.742490   -2.712358    0.523374
     70          1           0       13.027952   -2.068308   -1.808749
     71          1           0       11.747902   -2.640865   -0.414862
     72          1           0       11.695956    0.572581    3.540387
     73          1           0       10.243067    0.937023    2.556179
     74          1           0       10.450578   -0.675272    2.799444
     75          1           0       13.803524    0.944175    0.578953
     76          1           0       12.190789    2.189414    0.744369
     77          1           0       13.275052    1.749204    2.133843
     78          1           0       12.589125   -0.444064   -3.049166
     79          1           0       11.745126    1.182561   -2.245321
     80          1           0       13.525994    0.744357   -1.668760
     81          1           0       -5.536740    2.957706   -0.518339
     82          1           0        9.993874   -0.733215   -2.122028
     83          1           0       15.304182   -0.925029    0.405071
     84          1           0        8.588291    1.917783   -0.626213
     85          1           0       -2.517895    4.318548    0.001002
     86          1           0       -2.454469    3.790558   -1.805674
     87          1           0       -4.051520    4.509047   -1.142410
     88          1           0       -2.670769    0.536556   -0.183313
     89          1           0        6.701439   -1.711664    0.377483
     90          1           0        8.263777   -1.685746   -0.264959
     91          1           0        8.002387   -1.235766    1.414744
     92          1           0        6.269874    2.037124   -0.214320
     93          1           0       -0.786022    2.974791   -0.292063
     94          1           0        4.941091   -0.794404    0.272064
     95          1           0       -0.386329   -0.257238    0.106170
     96          1           0        3.825223    2.049501   -0.582815
     97          1           0        1.658940    2.195340   -0.576548
     98          1           0        1.110308   -1.368325    0.355636
     99          1           0        3.064899   -1.711628    0.045551
    100          1           0        2.450056   -1.159752    1.651372
 ---------------------------------------------------------------------

 SCF Done:  E(RCAM-B3LYP) =  -1857.22721869     A.U. after   16 cycles

 Excitation energies and oscillator strengths:

 Excited State   1:      Singlet-A      1.9525 eV  635.01 nm  f=2.8068  <S**2>=0.000
     163 ->166         0.12555
     164 ->165         0.70249
     164 <-165        -0.11878
 This state for optimization and/or second-order correction.
 Total Energy, E(TD-HF/TD-DFT) =  -1857.15546624
 Copying the excited state density for this state as the 1-particle RhoCI density.

 The electronic state is 1-A.
 Alpha  occ. eigenvalues --  -19.22532 -19.21961 -19.21447 -19.19579 -10.32678
 Alpha  occ. eigenvalues --  -10.32361 -10.31693 -10.31343 -10.30553 -10.28997
 Alpha  occ. eigenvalues --  -10.28957 -10.28839 -10.28720 -10.28473 -10.28415
 Alpha  occ. eigenvalues --  -10.27798 -10.27657 -10.27617 -10.27511 -10.27267
 Alpha  occ. eigenvalues --  -10.27231 -10.27174 -10.27141 -10.27137 -10.27091
 Alpha  occ. eigenvalues --  -10.27005 -10.26928 -10.26826 -10.26764 -10.26754
 Alpha  occ. eigenvalues --  -10.26744 -10.26733 -10.26601 -10.26339 -10.26324
 Alpha  occ. eigenvalues --  -10.26129 -10.26094 -10.25833 -10.25454 -10.25263
 Alpha  occ. eigenvalues --  -10.24820 -10.24531 -10.24463 -10.24413  -1.14495
 Alpha  occ. eigenvalues --   -1.13970  -1.09488  -1.09108  -0.94150  -0.92912
 Alpha  occ. eigenvalues --   -0.91809  -0.91478  -0.90366  -0.89426  -0.87781
 Alpha  occ. eigenvalues --   -0.87563  -0.86852  -0.86589  -0.85359  -0.83349
 Alpha  occ. eigenvalues --   -0.82622  -0.81760  -0.80962  -0.78049  -0.77579
 Alpha  occ. eigenvalues --   -0.76371  -0.76264  -0.76154  -0.75642  -0.75460
 Alpha  occ. eigenvalues --   -0.74821  -0.74799  -0.72830  -0.70712  -0.70238
 Alpha  occ. eigenvalues --   -0.68438  -0.66580  -0.65820  -0.65536  -0.64761
 Alpha  occ. eigenvalues --   -0.62834  -0.61889  -0.60553  -0.60204  -0.59623
 Alpha  occ. eigenvalues --   -0.59268  -0.59088  -0.58525  -0.57230  -0.56752
 Alpha  occ. eigenvalues --   -0.55701  -0.55585  -0.55297  -0.54765  -0.54252
 Alpha  occ. eigenvalues --   -0.53739  -0.53298  -0.52831  -0.52704  -0.52380
 Alpha  occ. eigenvalues --   -0.52082  -0.50695  -0.50214  -0.49948  -0.49718
 Alpha  occ. eigenvalues --   -0.49402  -0.49066  -0.49049  -0.48877  -0.48545
 Alpha  occ. eigenvalues --   -0.48146  -0.47674  -0.47409  -0.47389  -0.47124
 Alpha  occ. eigenvalues --   -0.47084  -0.46383  -0.46263  -0.45950  -0.45316
 Alpha  occ. eigenvalues --   -0.44923  -0.44590  -0.44528  -0.43971  -0.43691
 Alpha  occ. eigenvalues --   -0.43463  -0.43099  -0.43027  -0.42920  -0.42601
 Alpha  occ. eigenvalues --   -0.42428  -0.42088  -0.41754  -0.41627  -0.41209
 Alpha  occ. eigenvalues --   -0.40361  -0.40158  -0.40051  -0.40028  -0.39968
 Alpha  occ. eigenvalues --   -0.39854  -0.39414  -0.39302  -0.39109  -0.38490
 Alpha  occ. eigenvalues --   -0.38429  -0.38066  -0.37552  -0.37087  -0.36183
 Alpha  occ. eigenvalues --   -0.36155  -0.36086  -0.35757  -0.34739  -0.34271
 Alpha  occ. eigenvalues --   -0.33667  -0.32277  -0.32140  -0.31572  -0.30999
 Alpha  occ. eigenvalues --   -0.30763  -0.28143  -0.23929  -0.19064
 Alpha virt. eigenvalues --   -0.06823  -0.01382   0.03093   0.06283   0.06739
 Alpha virt. eigenvalues --    0.09120   0.09492   0.09936   0.10569   0.11208
 Alpha virt. eigenvalues --    0.11756   0.12202   0.12236   0.12511   0.13299

 Mulliken charges:
               1
     1  O   -0.515137
     2  O   -0.540754
     3  O   -0.495577
     4  O   -0.563908
     5  C    0.221458
     6  C    0.213826
     7  C    0.025476
     8  C   -0.231417
     9  C   -0.166738
    10  C    0.154901
    11  C   -0.333253
    12  C   -0.086756
    13  C   -0.303474
    14  C   -0.309278
    15  C   -0.068330
    16  C    0.042232
    17  C   -0.367765
    18  C   -0.131149
    19  C   -0.028366
    20  C    0.058196
    21  C    0.221182
    22  C   -0.176634
    23  C    0.162402
    24  C   -0.160526
    25  C   -0.114610
    26  C   -0.315022
    27  C   -0.294353
    28  C   -0.275871
    29  C   -0.147010
    30  C    0.133811
    31  C    0.113383
    32  C   -0.237775
    33  C   -0.370020
    34  C   -0.100835
    35  C    0.122638
    36  C   -0.365668
    37  C   -0.110571
    38  C   -0.075655
    39  C   -0.101360
    40  C   -0.100757
    41  C   -0.118672
    42  C   -0.136378
    43  C    0.101297
    44  C   -0.352277
    45  H    0.103067
    46  H    0.130930
    47  H    0.064164
    48  H    0.078117
    49  H    0.097543
    50  H    0.098047
    51  H    0.111003
    52  H    0.137712
    53  H    0.103039
    54  H    0.112179
    55  H    0.105641
    56  H    0.093403
    57  H    0.106516
    58  H    0.101743
    59  H    0.112266
    60  H    0.303294
    61  H    0.081461
    62  H    0.141203
    63  H    0.121762
    64  H    0.098123
    65  H    0.075749
    66  H    0.068987
    67  H    0.057529
    68  H    0.115670
    69  H    0.090753
    70  H    0.119283
    71  H    0.118758
    72  H    0.085700
    73  H    0.116807
    74  H    0.063709
    75  H    0.104966
    76  H    0.084969
    77  H    0.100429
    78  H    0.092910
    79  H    0.096992
    80  H    0.109612
    81  H    0.065290
    82  H    0.246885
    83  H    0.307766
    84  H    0.097818
    85  H    0.123571
    86  H    0.126803
    87  H    0.097747
    88  H    0.074344
    89  H    0.105499
    90  H    0.134571
    91  H    0.118738
    92  H    0.076623
    93  H    0.094888
    94  H    0.079514
    95  H    0.075114
    96  H    0.079282
    97  H    0.079328
    98  H    0.094526
    99  H    0.129492
   100  H    0.113256
 Sum of Mulliken charges =  -0.00000

 Dipole moment (field-independent basis, Debye):
    X=              3.1124    Y=             -0.9510    Z=              1.4961  Tot=              3.5819
 Quadrupole moment (field-independent basis, Debye-Ang):
   XX=           -272.9778   YY=           -261.0690   ZZ=           -281.9149
   XY=              4.5072   XZ=             34.7135   YZ=             -1.7875

 Normal termination of Gaussian 16 at Thu Aug  1 13:42:23 2019.
