 Gaussian 16, Revision A.03,
 Gaussian 16:  ES64L-G16RevA.03 25-Dec-2016

 -------------------------------------
 # td=(NStates=1) CAM-B3LYP/6-31G(d,p)
 -------------------------------------

 --
 TD
 --
 Symbolic Z-matrix:
 Charge =  0 Multiplicity = 1

                         Standard orientation:
 ---------------------------------------------------------------------
 Center     Atomic      Atomic             Coordinates (Angstroms)
 Number     Number       Type             X           Y           Z
 ---------------------------------------------------------------------
      1          8           0      -11.756382    0.467418   -1.388344
      2          8           0      -12.946911   -2.614733    1.183919
      3          8           0       10.711777   -0.822056   -2.166469
      4          8           0       14.474192   -0.949452   -0.031405
      5          6           0      -11.102976   -0.151528   -0.290078
      6          6           0      -11.609989   -0.996105   -1.367868
      7          6           0      -11.844379    0.295773    0.990417
      8          6           0      -13.009777   -1.743487   -1.121661
      9          6           0      -13.313926   -0.167339    0.853047
     10          6           0      -13.578387   -1.603907    0.333921
     11          6           0      -10.791743   -1.680164   -2.383425
     12          6           0       -9.606394    0.267458   -0.237799
     13          6           0      -11.205451   -0.257627    2.299578
     14          6           0      -11.835418    1.814163    1.115106
     15          6           0       -8.707905   -0.683860    0.210462
     16          6           0       -7.254148   -0.506631    0.208092
     17          6           0       -6.365405   -1.801583    0.551246
     18          6           0       -6.610105    0.665700   -0.000628
     19          6           0       -5.316181    0.867793    0.035313
     20          6           0       11.813219   -0.074610    1.407981
     21          6           0       11.726000   -0.436343   -1.246041
     22          6           0       12.593754   -1.374820    1.515023
     23          6           0       13.371434   -1.850839    0.262915
     24          6           0       12.435401   -1.804461   -0.942996
     25          6           0       11.152851    0.036284    0.013363
     26          6           0       10.908484    0.064647    2.639880
     27          6           0       12.823928    1.148154    1.532714
     28          6           0       12.736248    0.550228   -1.953901
     29          6           0       -4.718357    2.147052   -0.291704
     30          6           0        9.980226    0.568585   -0.045556
     31          6           0       -3.347669    2.451190   -0.367182
     32          6           0        8.690582    1.025128   -0.227132
     33          6           0       -3.037076    4.001784   -0.431878
     34          6           0       -2.297674    1.530005   -0.174587
     35          6           0        7.521168    0.098423    0.003466
     36          6           0        7.819630   -1.388433    0.161993
     37          6           0        6.308421    0.665096   -0.079862
     38          6           0       -0.954052    1.831599   -0.354343
     39          6           0        4.943538    0.078717   -0.106132
     40          6           0        0.092479    0.826835   -0.199110
     41          6           0        3.785224    0.835302   -0.232288
     42          6           0        1.449015    1.132679   -0.359487
     43          6           0        2.504158    0.294105   -0.133538
     44          6           0        2.229943   -1.188033    0.098332
     45          1           0      -12.957008   -2.706503   -1.669064
     46          1           0      -13.633513   -1.020788   -1.675150
     47          1           0      -13.730598    0.029158    1.823457
     48          1           0      -13.785516    0.603342    0.252242
     49          1           0      -14.581423   -1.784532    0.414505
     50          1           0      -10.443598   -2.749587   -2.215394
     51          1           0      -11.309173   -1.859459   -3.314695
     52          1           0       -9.939463   -1.198479   -2.725960
     53          1           0       -9.575269    1.095771   -0.878990
     54          1           0      -10.206857    0.314478    2.476391
     55          1           0      -12.016087   -0.162085    3.037859
     56          1           0      -11.115472   -1.513088    2.208045
     57          1           0      -12.723630    2.434225    0.531718
     58          1           0      -12.369886    2.147294    2.238158
     59          1           0      -10.859702    2.159786    1.284866
     60          1           0      -12.046227   -2.625377    1.062438
     61          1           0       -8.800163   -1.678789    0.944171
     62          1           0       -5.821946   -2.041016   -0.364958
     63          1           0       -5.856412   -1.483208    1.193383
     64          1           0       -6.922548   -2.543512    0.995332
     65          1           0       -7.216922    1.556681   -0.155199
     66          1           0       -4.547302    0.022496   -0.219771
     67          1           0       13.234450   -1.465303    2.453851
     68          1           0       11.831648   -2.018577    1.667291
     69          1           0       13.638339   -2.913455    0.461036
     70          1           0       13.211251   -1.981118   -1.739747
     71          1           0       11.699362   -2.699934   -0.955441
     72          1           0       11.377251    0.067813    3.609573
     73          1           0       10.458470    1.106824    2.442548
     74          1           0       10.097698   -0.755465    2.752704
     75          1           0       13.462450    1.152893    0.604602
     76          1           0       12.347739    2.137060    1.694433
     77          1           0       13.514664    1.216430    2.280221
     78          1           0       12.574617    0.077422   -3.123616
     79          1           0       12.405439    1.683155   -1.870505
     80          1           0       13.768058    0.601167   -1.307646
     81          1           0       -5.476013    2.940734   -0.579235
     82          1           0       10.228452    0.141299   -2.430411
     83          1           0       15.091985   -0.922636    0.801828
     84          1           0        8.456726    2.117040   -0.570014
     85          1           0       -2.671239    4.302181    0.382109
     86          1           0       -2.423031    4.383009   -1.257636
     87          1           0       -3.881860    4.669535   -0.480648
     88          1           0       -2.536439    0.440722    0.039918
     89          1           0        6.993868   -1.875630   -0.301835
     90          1           0        8.770994   -1.621136   -0.427096
     91          1           0        8.211656   -1.825693    1.072986
     92          1           0        6.378178    1.739702   -0.288413
     93          1           0       -0.640371    2.729806   -0.457453
     94          1           0        4.710484   -0.977724    0.165026
     95          1           0       -0.163663   -0.308594    0.162472
     96          1           0        3.828749    1.914579   -0.516204
     97          1           0        1.640707    2.178828   -0.680166
     98          1           0        1.181178   -1.447668    0.169530
     99          1           0        2.545320   -1.748113   -0.888040
    100          1           0        2.458053   -1.606955    0.975064
 ---------------------------------------------------------------------

 SCF Done:  E(RCAM-B3LYP) =  -1857.23963544     A.U. after   15 cycles

 Excitation energies and oscillator strengths:

 Excited State   1:      Singlet-A      1.9451 eV  637.40 nm  f=2.9478  <S**2>=0.000
     163 ->166         0.11798
     164 ->165         0.70516
     164 <-165        -0.12611
 This state for optimization and/or second-order correction.
 Total Energy, E(TD-HF/TD-DFT) =  -1857.16815281
 Copying the excited state density for this state as the 1-particle RhoCI density.

 The electronic state is 1-A.
 Alpha  occ. eigenvalues --  -19.23395 -19.22394 -19.21765 -19.19835 -10.32814
 Alpha  occ. eigenvalues --  -10.32170 -10.31851 -10.30955 -10.30913 -10.28809
 Alpha  occ. eigenvalues --  -10.28672 -10.28498 -10.28012 -10.27921 -10.27653
 Alpha  occ. eigenvalues --  -10.27557 -10.27248 -10.27089 -10.27077 -10.27062
 Alpha  occ. eigenvalues --  -10.27059 -10.26911 -10.26853 -10.26806 -10.26804
 Alpha  occ. eigenvalues --  -10.26539 -10.26473 -10.26387 -10.26288 -10.26178
 Alpha  occ. eigenvalues --  -10.26097 -10.26018 -10.25915 -10.25807 -10.25777
 Alpha  occ. eigenvalues --  -10.25624 -10.25318 -10.25096 -10.24748 -10.24534
 Alpha  occ. eigenvalues --  -10.24227 -10.24013 -10.23933 -10.23091  -1.14671
 Alpha  occ. eigenvalues --   -1.09087  -1.08754  -1.08403  -0.93127  -0.92186
 Alpha  occ. eigenvalues --   -0.91825  -0.90246  -0.89906  -0.89484  -0.86515
 Alpha  occ. eigenvalues --   -0.86172  -0.85456  -0.85224  -0.84521  -0.82861
 Alpha  occ. eigenvalues --   -0.82009  -0.81236  -0.79648  -0.78955  -0.77572
 Alpha  occ. eigenvalues --   -0.76864  -0.76438  -0.75757  -0.75623  -0.75005
 Alpha  occ. eigenvalues --   -0.74499  -0.73955  -0.72809  -0.71019  -0.69437
 Alpha  occ. eigenvalues --   -0.68530  -0.66958  -0.65857  -0.65292  -0.64790
 Alpha  occ. eigenvalues --   -0.63104  -0.61709  -0.60620  -0.59912  -0.59218
 Alpha  occ. eigenvalues --   -0.58166  -0.57835  -0.57573  -0.57236  -0.56147
 Alpha  occ. eigenvalues --   -0.55061  -0.54666  -0.54362  -0.54065  -0.53845
 Alpha  occ. eigenvalues --   -0.52906  -0.52677  -0.52249  -0.52041  -0.51468
 Alpha  occ. eigenvalues --   -0.51162  -0.50836  -0.50556  -0.50312  -0.50216
 Alpha  occ. eigenvalues --   -0.49534  -0.49327  -0.49215  -0.48988  -0.48792
 Alpha  occ. eigenvalues --   -0.48659  -0.47545  -0.47384  -0.47017  -0.46592
 Alpha  occ. eigenvalues --   -0.46332  -0.46054  -0.45724  -0.45579  -0.45274
 Alpha  occ. eigenvalues --   -0.45057  -0.44258  -0.43967  -0.43518  -0.43250
 Alpha  occ. eigenvalues --   -0.42996  -0.42823  -0.42584  -0.42480  -0.42101
 Alpha  occ. eigenvalues --   -0.41846  -0.41522  -0.41328  -0.41057  -0.40961
 Alpha  occ. eigenvalues --   -0.40878  -0.40741  -0.40421  -0.40029  -0.39814
 Alpha  occ. eigenvalues --   -0.39496  -0.39262  -0.39226  -0.38767  -0.37860
 Alpha  occ. eigenvalues --   -0.37738  -0.37651  -0.37418  -0.36942  -0.36579
 Alpha  occ. eigenvalues --   -0.36406  -0.35812  -0.35306  -0.34171  -0.33603
 Alpha  occ. eigenvalues --   -0.33400  -0.32804  -0.31829  -0.31354  -0.30979
 Alpha  occ. eigenvalues --   -0.30083  -0.27845  -0.24215  -0.18679
 Alpha virt. eigenvalues --   -0.06648  -0.00400   0.03554   0.05965   0.06908
 Alpha virt. eigenvalues --    0.09236   0.09894   0.10111   0.10983   0.12124
 Alpha virt. eigenvalues --    0.12544   0.12954   0.13191   0.13425   0.13558

 Mulliken charges:
               1
     1  O   -0.514070
     2  O   -0.553989
     3  O   -0.562540
     4  O   -0.551776
     5  C    0.183284
     6  C    0.275290
     7  C    0.025147
     8  C   -0.230606
     9  C   -0.204289
    10  C    0.165765
    11  C   -0.370536
    12  C   -0.141896
    13  C   -0.272022
    14  C   -0.292580
    15  C   -0.063953
    16  C   -0.005175
    17  C   -0.336623
    18  C   -0.059396
    19  C   -0.086226
    20  C    0.013804
    21  C    0.257530
    22  C   -0.185969
    23  C    0.151930
    24  C   -0.204266
    25  C   -0.028006
    26  C   -0.301613
    27  C   -0.309872
    28  C   -0.322014
    29  C   -0.146424
    30  C    0.119090
    31  C    0.075810
    32  C   -0.281092
    33  C   -0.379031
    34  C   -0.111657
    35  C    0.137175
    36  C   -0.388667
    37  C   -0.120095
    38  C   -0.061703
    39  C   -0.120024
    40  C   -0.094576
    41  C   -0.099885
    42  C   -0.125290
    43  C    0.122059
    44  C   -0.373367
    45  H    0.105371
    46  H    0.125670
    47  H    0.095716
    48  H    0.108070
    49  H    0.111498
    50  H    0.112277
    51  H    0.118997
    52  H    0.130498
    53  H    0.130635
    54  H    0.104718
    55  H    0.113806
    56  H    0.048072
    57  H    0.109899
    58  H    0.054358
    59  H    0.119131
    60  H    0.296735
    61  H    0.084077
    62  H    0.124079
    63  H    0.137760
    64  H    0.096226
    65  H    0.079673
    66  H    0.084361
    67  H    0.074123
    68  H    0.104396
    69  H    0.088572
    70  H    0.114258
    71  H    0.112610
    72  H    0.110943
    73  H    0.107960
    74  H    0.088593
    75  H    0.099480
    76  H    0.091613
    77  H    0.097909
    78  H    0.104807
    79  H    0.082034
    80  H    0.146539
    81  H    0.084994
    82  H    0.305712
    83  H    0.314549
    84  H    0.105415
    85  H    0.143037
    86  H    0.111170
    87  H    0.106229
    88  H    0.083718
    89  H    0.119201
    90  H    0.129952
    91  H    0.121001
    92  H    0.074274
    93  H    0.072376
    94  H    0.092677
    95  H    0.073973
    96  H    0.082364
    97  H    0.081419
    98  H    0.102497
    99  H    0.118756
   100  H    0.133570
 Sum of Mulliken charges =  -0.00000

 Dipole moment (field-independent basis, Debye):
    X=              3.9388    Y=             -0.3104    Z=              1.4066  Tot=              4.1939
 Quadrupole moment (field-independent basis, Debye-Ang):
   XX=           -264.1219   YY=           -258.0837   ZZ=           -275.4509
   XY=             -6.1152   XZ=             39.3258   YZ=             -1.4642

 Normal termination of Gaussian 16 at Wed Jul 31 17:29:14 2019.
