 Gaussian 16, Revision A.03,
 Gaussian 16:  ES64L-G16RevA.03 25-Dec-2016

 -------------------------------------
 # td=(NStates=1) CAM-B3LYP/6-31G(d,p)
 -------------------------------------

 --
 TD
 --
 Symbolic Z-matrix:
 Charge =  0 Multiplicity = 1

                         Standard orientation:
 ---------------------------------------------------------------------
 Center     Atomic      Atomic             Coordinates (Angstroms)
 Number     Number       Type             X           Y           Z
 ---------------------------------------------------------------------
      1          8           0      -11.843223    0.211708   -1.566896
      2          8           0      -13.104582   -2.547977    1.440009
      3          8           0       10.653170   -0.909005   -2.157053
      4          8           0       14.546900   -1.111703   -0.168943
      5          6           0      -11.106438   -0.113828   -0.383532
      6          6           0      -11.683823   -1.193357   -1.213569
      7          6           0      -11.891375    0.334221    0.851851
      8          6           0      -12.974042   -1.852129   -1.047289
      9          6           0      -13.414080   -0.160377    0.867818
     10          6           0      -13.617030   -1.582555    0.379759
     11          6           0      -10.696301   -1.846215   -2.178924
     12          6           0       -9.688947    0.229095   -0.338547
     13          6           0      -11.223503   -0.110646    2.166897
     14          6           0      -11.829396    1.900078    0.874287
     15          6           0       -8.702704   -0.641334    0.076688
     16          6           0       -7.243037   -0.400716    0.218064
     17          6           0       -6.282065   -1.641088    0.599483
     18          6           0       -6.534370    0.732646   -0.102334
     19          6           0       -5.163586    0.966375   -0.097683
     20          6           0       11.935666    0.190514    1.351242
     21          6           0       11.678199   -0.586736   -1.212413
     22          6           0       12.694410   -1.241350    1.529478
     23          6           0       13.291844   -1.768163    0.324245
     24          6           0       12.315447   -1.945741   -0.826261
     25          6           0       11.130229    0.100643    0.031396
     26          6           0       11.090017    0.337632    2.617643
     27          6           0       12.956705    1.298827    1.267355
     28          6           0       12.657690    0.289638   -1.976485
     29          6           0       -4.685217    2.204179   -0.331351
     30          6           0        9.885774    0.638840   -0.054581
     31          6           0       -3.333805    2.585003   -0.403139
     32          6           0        8.604035    1.016628   -0.228228
     33          6           0       -2.908216    3.969049   -0.770876
     34          6           0       -2.313032    1.617113   -0.089469
     35          6           0        7.442496    0.104064   -0.048762
     36          6           0        7.727082   -1.458882    0.086598
     37          6           0        6.192993    0.652971   -0.198101
     38          6           0       -1.021886    1.878312   -0.180663
     39          6           0        4.983814   -0.026525   -0.128319
     40          6           0        0.004499    0.861658   -0.046916
     41          6           0        3.779244    0.734875   -0.113828
     42          6           0        1.420147    1.095377   -0.080011
     43          6           0        2.492695    0.171831   -0.004248
     44          6           0        2.370500   -1.217057    0.439617
     45          1           0      -12.807794   -2.796104   -1.233154
     46          1           0      -13.695810   -1.556069   -1.646942
     47          1           0      -13.737543   -0.082227    1.906287
     48          1           0      -14.019382    0.790594    0.333091
     49          1           0      -14.617387   -1.784748    0.529331
     50          1           0      -10.583538   -2.822378   -1.797000
     51          1           0      -11.253164   -1.933655   -3.229226
     52          1           0       -9.838012   -1.297913   -2.253476
     53          1           0       -9.510768    1.312920   -0.563992
     54          1           0      -10.361872    0.445789    2.273139
     55          1           0      -11.915193    0.193866    2.903642
     56          1           0      -11.091582   -1.213999    2.204967
     57          1           0      -12.261766    2.304037   -0.248272
     58          1           0      -12.261660    2.345091    1.767635
     59          1           0      -10.697906    2.051575    0.794613
     60          1           0      -12.147742   -2.574393    1.445404
     61          1           0       -9.081818   -1.792538    0.224242
     62          1           0       -5.803321   -2.000636   -0.320612
     63          1           0       -5.609227   -1.407055    1.297403
     64          1           0       -7.031529   -2.362164    0.984018
     65          1           0       -6.891936    1.701836   -0.230266
     66          1           0       -4.431730    0.226512    0.337743
     67          1           0       13.409696   -1.328882    2.515278
     68          1           0       11.710904   -1.925507    1.629488
     69          1           0       13.733544   -2.826182    0.407507
     70          1           0       12.889262   -2.231173   -1.768382
     71          1           0       11.655719   -2.632165   -0.486662
     72          1           0       11.514541    0.170719    3.625072
     73          1           0       10.583953    1.332118    2.462678
     74          1           0       10.371547   -0.353620    2.498742
     75          1           0       13.675621    1.055399    0.425515
     76          1           0       12.542684    2.328588    1.092878
     77          1           0       13.498888    1.241908    2.252531
     78          1           0       13.023102   -0.150359   -2.951279
     79          1           0       12.186852    1.181330   -2.274623
     80          1           0       13.565621    0.591885   -1.450569
     81          1           0       -5.411670    3.012747   -0.628845
     82          1           0       10.009170   -0.180769   -2.115930
     83          1           0       15.124959   -0.921763    0.413307
     84          1           0        8.410160    2.035763   -0.276990
     85          1           0       -2.647504    4.451842    0.168443
     86          1           0       -2.228059    3.990627   -1.652470
     87          1           0       -3.852108    4.408748   -1.043971
     88          1           0       -2.367231    0.631003    0.556496
     89          1           0        6.931342   -2.143566    0.029029
     90          1           0        8.349761   -1.870839   -0.769997
     91          1           0        8.283122   -1.597563    1.064224
     92          1           0        6.365359    1.730099   -0.450051
     93          1           0       -0.685492    2.768339   -0.515472
     94          1           0        5.063188   -1.068340    0.076350
     95          1           0       -0.317051   -0.210619    0.434904
     96          1           0        3.917946    1.751292   -0.318847
     97          1           0        1.726016    2.191849   -0.200661
     98          1           0        1.267306   -1.377485    0.566377
     99          1           0        2.490692   -2.132042   -0.344616
    100          1           0        2.796917   -1.553123    1.413699
 ---------------------------------------------------------------------

 SCF Done:  E(RCAM-B3LYP) =  -1857.34818471     A.U. after   16 cycles

 Excitation energies and oscillator strengths:

 Excited State   1:      Singlet-A      1.8787 eV  659.94 nm  f=3.0770  <S**2>=0.000
     163 ->166         0.11711
     164 ->165         0.70504
     164 <-165        -0.12665
 This state for optimization and/or second-order correction.
 Total Energy, E(TD-HF/TD-DFT) =  -1857.27914309
 Copying the excited state density for this state as the 1-particle RhoCI density.

 The electronic state is 1-A.
 Alpha  occ. eigenvalues --  -19.21060 -19.20309 -19.20206 -19.19366 -10.31647
 Alpha  occ. eigenvalues --  -10.31460 -10.31329 -10.31322 -10.30941 -10.29635
 Alpha  occ. eigenvalues --  -10.28986 -10.28770 -10.28733 -10.28504 -10.28391
 Alpha  occ. eigenvalues --  -10.28359 -10.28355 -10.28086 -10.28047 -10.27953
 Alpha  occ. eigenvalues --  -10.27915 -10.27471 -10.27092 -10.27011 -10.26980
 Alpha  occ. eigenvalues --  -10.26791 -10.26518 -10.26470 -10.26460 -10.26308
 Alpha  occ. eigenvalues --  -10.26229 -10.26225 -10.26192 -10.26168 -10.25991
 Alpha  occ. eigenvalues --  -10.25756 -10.25519 -10.25125 -10.24876 -10.24810
 Alpha  occ. eigenvalues --  -10.24339 -10.24184 -10.23521 -10.22732  -1.14364
 Alpha  occ. eigenvalues --   -1.09817  -1.08930  -1.06402  -0.93300  -0.93273
 Alpha  occ. eigenvalues --   -0.92019  -0.91005  -0.90311  -0.89846  -0.88176
 Alpha  occ. eigenvalues --   -0.87484  -0.87058  -0.85863  -0.85097  -0.83354
 Alpha  occ. eigenvalues --   -0.82768  -0.80943  -0.80426  -0.78939  -0.77325
 Alpha  occ. eigenvalues --   -0.77038  -0.76968  -0.76966  -0.76300  -0.75567
 Alpha  occ. eigenvalues --   -0.75561  -0.74342  -0.72791  -0.70805  -0.69633
 Alpha  occ. eigenvalues --   -0.68717  -0.67107  -0.65596  -0.64250  -0.64114
 Alpha  occ. eigenvalues --   -0.63638  -0.62634  -0.61720  -0.61151  -0.60417
 Alpha  occ. eigenvalues --   -0.59151  -0.58482  -0.58133  -0.57090  -0.56790
 Alpha  occ. eigenvalues --   -0.56350  -0.55344  -0.54777  -0.54471  -0.54154
 Alpha  occ. eigenvalues --   -0.54046  -0.52447  -0.52058  -0.51950  -0.51702
 Alpha  occ. eigenvalues --   -0.51288  -0.51173  -0.50768  -0.49689  -0.49581
 Alpha  occ. eigenvalues --   -0.49443  -0.49030  -0.48978  -0.48734  -0.48652
 Alpha  occ. eigenvalues --   -0.48289  -0.48038  -0.47655  -0.47252  -0.46966
 Alpha  occ. eigenvalues --   -0.46722  -0.46620  -0.46490  -0.45954  -0.45303
 Alpha  occ. eigenvalues --   -0.45262  -0.45250  -0.45082  -0.44432  -0.44184
 Alpha  occ. eigenvalues --   -0.43837  -0.43540  -0.43306  -0.43147  -0.42670
 Alpha  occ. eigenvalues --   -0.42595  -0.42340  -0.42086  -0.41415  -0.41192
 Alpha  occ. eigenvalues --   -0.41002  -0.40767  -0.40634  -0.40244  -0.40199
 Alpha  occ. eigenvalues --   -0.39681  -0.39672  -0.39562  -0.39153  -0.38907
 Alpha  occ. eigenvalues --   -0.38712  -0.38393  -0.37600  -0.37123  -0.36562
 Alpha  occ. eigenvalues --   -0.36519  -0.35810  -0.35448  -0.34822  -0.34495
 Alpha  occ. eigenvalues --   -0.32402  -0.32178  -0.31717  -0.31613  -0.31387
 Alpha  occ. eigenvalues --   -0.29478  -0.28326  -0.24693  -0.19134
 Alpha virt. eigenvalues --   -0.07523  -0.01110   0.02436   0.05257   0.06660
 Alpha virt. eigenvalues --    0.09463   0.09696   0.09856   0.11106   0.11831
 Alpha virt. eigenvalues --    0.12130   0.13421   0.13687   0.14116   0.14176

 Mulliken charges:
               1
     1  O   -0.513106
     2  O   -0.579012
     3  O   -0.574553
     4  O   -0.553450
     5  C    0.252377
     6  C    0.176129
     7  C    0.002281
     8  C   -0.167791
     9  C   -0.179448
    10  C    0.130625
    11  C   -0.309383
    12  C   -0.135546
    13  C   -0.277083
    14  C   -0.308109
    15  C   -0.079242
    16  C    0.018267
    17  C   -0.357147
    18  C   -0.083900
    19  C   -0.034073
    20  C    0.005202
    21  C    0.253169
    22  C   -0.189079
    23  C    0.155057
    24  C   -0.170673
    25  C   -0.054493
    26  C   -0.296738
    27  C   -0.286614
    28  C   -0.293595
    29  C   -0.133277
    30  C    0.068258
    31  C    0.046343
    32  C   -0.268841
    33  C   -0.369596
    34  C   -0.085905
    35  C    0.097576
    36  C   -0.378395
    37  C   -0.090684
    38  C   -0.070467
    39  C   -0.093772
    40  C   -0.114778
    41  C   -0.114473
    42  C   -0.127517
    43  C    0.138825
    44  C   -0.384836
    45  H    0.108437
    46  H    0.135108
    47  H    0.108410
    48  H    0.081053
    49  H    0.113601
    50  H    0.100839
    51  H    0.095894
    52  H    0.131626
    53  H    0.120161
    54  H    0.111737
    55  H    0.107249
    56  H    0.067577
    57  H    0.098759
    58  H    0.107553
    59  H    0.085477
    60  H    0.297971
    61  H    0.074808
    62  H    0.130424
    63  H    0.132285
    64  H    0.099527
    65  H    0.072515
    66  H    0.083709
    67  H    0.081980
    68  H    0.090699
    69  H    0.085144
    70  H    0.120842
    71  H    0.115671
    72  H    0.105529
    73  H    0.100292
    74  H    0.115706
    75  H    0.110250
    76  H    0.100150
    77  H    0.086789
    78  H    0.102211
    79  H    0.090407
    80  H    0.126891
    81  H    0.079551
    82  H    0.301775
    83  H    0.276808
    84  H    0.112720
    85  H    0.141761
    86  H    0.135086
    87  H    0.110794
    88  H    0.084421
    89  H    0.115795
    90  H    0.132902
    91  H    0.113199
    92  H    0.077933
    93  H    0.078966
    94  H    0.094775
    95  H    0.070942
    96  H    0.083300
    97  H    0.084655
    98  H    0.101429
    99  H    0.103689
   100  H    0.133684
 Sum of Mulliken charges =  -0.00000

 Dipole moment (field-independent basis, Debye):
    X=              2.1450    Y=              0.8732    Z=              2.7744  Tot=              3.6139
 Quadrupole moment (field-independent basis, Debye-Ang):
   XX=           -309.9158   YY=           -258.2133   ZZ=           -279.5469
   XY=             -2.0271   XZ=             35.8830   YZ=             -2.2920

 Normal termination of Gaussian 16 at Tue Jul 30 23:26:00 2019.
