 Gaussian 16, Revision A.03,
 Gaussian 16:  ES64L-G16RevA.03 25-Dec-2016

 -------------------------------------
 # td=(NStates=1) CAM-B3LYP/6-31G(d,p)
 -------------------------------------

 --
 TD
 --
 Symbolic Z-matrix:
 Charge =  0 Multiplicity = 1

                         Standard orientation:
 ---------------------------------------------------------------------
 Center     Atomic      Atomic             Coordinates (Angstroms)
 Number     Number       Type             X           Y           Z
 ---------------------------------------------------------------------
      1          8           0      -11.786213    0.182882   -1.505092
      2          8           0      -13.008591   -2.521702    1.500960
      3          8           0       10.645044   -1.015364   -2.132603
      4          8           0       14.512588   -1.076769   -0.017920
      5          6           0      -10.983284   -0.165021   -0.322595
      6          6           0      -11.586053   -1.155777   -1.175760
      7          6           0      -11.695569    0.333487    0.996090
      8          6           0      -12.894647   -1.805589   -0.813827
      9          6           0      -13.184626   -0.187034    0.884687
     10          6           0      -13.477614   -1.603343    0.556017
     11          6           0      -10.901732   -1.994418   -2.177953
     12          6           0       -9.517196    0.268870   -0.428282
     13          6           0      -10.992538   -0.132995    2.343326
     14          6           0      -11.757060    1.926353    0.996621
     15          6           0       -8.652442   -0.738023   -0.005072
     16          6           0       -7.211455   -0.610594   -0.055601
     17          6           0       -6.442780   -1.892060    0.200522
     18          6           0       -6.652471    0.695654   -0.093161
     19          6           0       -5.260573    0.901766   -0.244621
     20          6           0       11.904829   -0.105075    1.386277
     21          6           0       11.620475   -0.516836   -1.203690
     22          6           0       12.639181   -1.422328    1.593918
     23          6           0       13.342333   -1.820710    0.284772
     24          6           0       12.493452   -1.812469   -0.872438
     25          6           0       11.001056   -0.032747    0.117869
     26          6           0       10.952693    0.056846    2.599707
     27          6           0       12.857919    1.131720    1.466793
     28          6           0       12.551149    0.542927   -2.015193
     29          6           0       -4.726144    2.197577   -0.211225
     30          6           0        9.880956    0.389108    0.022057
     31          6           0       -3.392644    2.579810   -0.302934
     32          6           0        8.664813    0.967767   -0.219634
     33          6           0       -3.123144    4.064825   -0.611566
     34          6           0       -2.299138    1.715018   -0.259883
     35          6           0        7.409953    0.096058   -0.049608
     36          6           0        7.516451   -1.351301   -0.046899
     37          6           0        6.205707    0.759836   -0.109280
     38          6           0       -0.970545    1.992970   -0.231531
     39          6           0        4.937861    0.207320    0.007703
     40          6           0        0.061008    1.005564   -0.097792
     41          6           0        3.779218    1.075631   -0.207378
     42          6           0        1.416985    1.327196   -0.286386
     43          6           0        2.505957    0.509078   -0.111469
     44          6           0        2.375777   -1.073039    0.065906
     45          1           0      -12.881182   -2.944467   -0.947161
     46          1           0      -13.640913   -1.512153   -1.556593
     47          1           0      -13.535529    0.231768    1.945205
     48          1           0      -13.786948    0.461609    0.202113
     49          1           0      -14.656219   -1.840172    0.421148
     50          1           0      -10.558140   -2.920026   -1.836859
     51          1           0      -11.434989   -2.096247   -3.202772
     52          1           0       -9.984648   -1.397547   -2.317067
     53          1           0       -9.240595    1.080482   -0.759144
     54          1           0      -10.000902    0.563950    2.706910
     55          1           0      -11.728967   -0.163622    3.130618
     56          1           0      -10.750543   -1.322927    2.391033
     57          1           0      -12.136372    2.299537    0.069276
     58          1           0      -12.498708    2.142780    1.880595
     59          1           0      -10.862235    2.228706    0.885764
     60          1           0      -11.907321   -2.413378    1.457419
     61          1           0       -9.069831   -1.708339    0.154032
     62          1           0       -5.959396   -2.355576   -0.687416
     63          1           0       -5.495063   -1.673832    0.886272
     64          1           0       -7.136223   -2.746282    0.469895
     65          1           0       -7.369447    1.328284   -0.282809
     66          1           0       -4.627835   -0.026141   -0.242883
     67          1           0       13.318172   -1.353427    2.367671
     68          1           0       11.795043   -2.166748    1.543675
     69          1           0       13.546206   -2.841029    0.473967
     70          1           0       13.096852   -2.273302   -1.777170
     71          1           0       11.791262   -2.497675   -0.643812
     72          1           0       11.538572    0.020125    3.516758
     73          1           0       10.416176    1.142234    2.596856
     74          1           0       10.190259   -0.637533    2.672915
     75          1           0       13.740926    0.988548    0.726886
     76          1           0       12.395037    2.059420    1.395110
     77          1           0       13.138796    1.171576    2.518665
     78          1           0       12.787327   -0.075421   -2.937748
     79          1           0       11.914402    1.254658   -2.363929
     80          1           0       13.601159    0.695003   -1.584861
     81          1           0       -5.358302    2.984684   -0.569285
     82          1           0       10.058635   -0.373510   -1.959428
     83          1           0       15.033716   -1.051760    0.728519
     84          1           0        8.628448    2.145872   -0.414427
     85          1           0       -2.668105    4.773396    0.329836
     86          1           0       -2.287485    4.283958   -1.444391
     87          1           0       -3.977568    4.531880   -0.968279
     88          1           0       -2.498330    0.645660   -0.039079
     89          1           0        6.548890   -1.826887   -0.072687
     90          1           0        8.092160   -1.842672   -0.811625
     91          1           0        7.913631   -1.677602    0.880202
     92          1           0        6.198203    1.840400   -0.256488
     93          1           0       -0.490713    3.010392   -0.391574
     94          1           0        4.907239   -0.823751    0.540919
     95          1           0       -0.099822    0.025023    0.305069
     96          1           0        4.047988    2.148535   -0.063001
     97          1           0        1.627896    2.279923   -0.332842
     98          1           0        1.385421   -1.237807   -0.005476
     99          1           0        2.829754   -1.586579   -0.717537
    100          1           0        2.820838   -1.460504    1.015329
 ---------------------------------------------------------------------

 SCF Done:  E(RCAM-B3LYP) =  -1857.27649937     A.U. after   16 cycles

 Excitation energies and oscillator strengths:

 Excited State   1:      Singlet-A      1.8419 eV  673.12 nm  f=3.0980  <S**2>=0.000
     163 ->166         0.13001
     164 ->165         0.70240
     164 <-165        -0.12356
 This state for optimization and/or second-order correction.
 Total Energy, E(TD-HF/TD-DFT) =  -1857.20880955
 Copying the excited state density for this state as the 1-particle RhoCI density.

 The electronic state is 1-A.
 Alpha  occ. eigenvalues --  -19.21974 -19.21687 -19.21681 -19.20485 -10.32483
 Alpha  occ. eigenvalues --  -10.32209 -10.31432 -10.30765 -10.29838 -10.29518
 Alpha  occ. eigenvalues --  -10.29014 -10.28671 -10.28443 -10.28297 -10.27908
 Alpha  occ. eigenvalues --  -10.27667 -10.27516 -10.27504 -10.27475 -10.27325
 Alpha  occ. eigenvalues --  -10.27276 -10.27179 -10.27156 -10.26985 -10.26767
 Alpha  occ. eigenvalues --  -10.26539 -10.26288 -10.26240 -10.26213 -10.26008
 Alpha  occ. eigenvalues --  -10.25853 -10.25626 -10.25529 -10.25478 -10.25147
 Alpha  occ. eigenvalues --  -10.25133 -10.24817 -10.24805 -10.24773 -10.24724
 Alpha  occ. eigenvalues --  -10.24630 -10.24289 -10.24279 -10.24186  -1.15832
 Alpha  occ. eigenvalues --   -1.12006  -1.11625  -1.08289  -0.94100  -0.92344
 Alpha  occ. eigenvalues --   -0.91991  -0.91132  -0.90385  -0.89374  -0.88075
 Alpha  occ. eigenvalues --   -0.86949  -0.86525  -0.86275  -0.84925  -0.83261
 Alpha  occ. eigenvalues --   -0.81897  -0.80972  -0.80595  -0.79163  -0.77774
 Alpha  occ. eigenvalues --   -0.77056  -0.76669  -0.76631  -0.76185  -0.75923
 Alpha  occ. eigenvalues --   -0.75001  -0.74015  -0.72991  -0.70692  -0.70322
 Alpha  occ. eigenvalues --   -0.68647  -0.66854  -0.66250  -0.65354  -0.64487
 Alpha  occ. eigenvalues --   -0.63756  -0.62986  -0.61571  -0.60619  -0.60123
 Alpha  occ. eigenvalues --   -0.59723  -0.58733  -0.58312  -0.58266  -0.57309
 Alpha  occ. eigenvalues --   -0.56205  -0.55775  -0.55345  -0.54689  -0.53812
 Alpha  occ. eigenvalues --   -0.53537  -0.53268  -0.53064  -0.52762  -0.52103
 Alpha  occ. eigenvalues --   -0.51352  -0.50752  -0.49838  -0.49661  -0.49308
 Alpha  occ. eigenvalues --   -0.49227  -0.49120  -0.48961  -0.48886  -0.48626
 Alpha  occ. eigenvalues --   -0.48479  -0.47830  -0.47356  -0.47188  -0.47133
 Alpha  occ. eigenvalues --   -0.46499  -0.46434  -0.45877  -0.45867  -0.45626
 Alpha  occ. eigenvalues --   -0.45329  -0.45183  -0.44551  -0.44443  -0.44229
 Alpha  occ. eigenvalues --   -0.44089  -0.43967  -0.43157  -0.43052  -0.42576
 Alpha  occ. eigenvalues --   -0.42344  -0.42256  -0.41815  -0.41680  -0.41524
 Alpha  occ. eigenvalues --   -0.41341  -0.41150  -0.40946  -0.40695  -0.40282
 Alpha  occ. eigenvalues --   -0.40281  -0.39519  -0.39415  -0.39397  -0.38734
 Alpha  occ. eigenvalues --   -0.38596  -0.38541  -0.38370  -0.38219  -0.37982
 Alpha  occ. eigenvalues --   -0.37216  -0.36344  -0.35490  -0.34383  -0.33487
 Alpha  occ. eigenvalues --   -0.33013  -0.32697  -0.31726  -0.31514  -0.31225
 Alpha  occ. eigenvalues --   -0.30981  -0.27931  -0.24021  -0.18661
 Alpha virt. eigenvalues --   -0.07203  -0.01655   0.02589   0.06152   0.07493
 Alpha virt. eigenvalues --    0.07667   0.08756   0.10820   0.11600   0.11837
 Alpha virt. eigenvalues --    0.12178   0.12732   0.13340   0.13646   0.14173

 Mulliken charges:
               1
     1  O   -0.505344
     2  O   -0.537656
     3  O   -0.525795
     4  O   -0.532296
     5  C    0.161988
     6  C    0.260196
     7  C    0.008857
     8  C   -0.210901
     9  C   -0.175622
    10  C    0.153529
    11  C   -0.338661
    12  C   -0.068045
    13  C   -0.296331
    14  C   -0.291136
    15  C   -0.091110
    16  C    0.081816
    17  C   -0.387667
    18  C   -0.060190
    19  C   -0.082827
    20  C    0.009565
    21  C    0.179422
    22  C   -0.182924
    23  C    0.145497
    24  C   -0.177727
    25  C   -0.093663
    26  C   -0.304433
    27  C   -0.309930
    28  C   -0.304994
    29  C   -0.125438
    30  C    0.181578
    31  C    0.102608
    32  C   -0.279646
    33  C   -0.358813
    34  C   -0.110284
    35  C    0.093013
    36  C   -0.386939
    37  C   -0.088975
    38  C   -0.087027
    39  C   -0.098768
    40  C   -0.093563
    41  C   -0.145180
    42  C   -0.091952
    43  C    0.079531
    44  C   -0.355560
    45  H    0.091989
    46  H    0.118971
    47  H    0.065356
    48  H    0.114247
    49  H    0.082039
    50  H    0.112355
    51  H    0.114679
    52  H    0.110835
    53  H    0.082573
    54  H    0.097700
    55  H    0.130229
    56  H    0.058327
    57  H    0.123478
    58  H    0.102338
    59  H    0.103173
    60  H    0.293248
    61  H    0.078628
    62  H    0.124196
    63  H    0.113687
    64  H    0.108712
    65  H    0.063698
    66  H    0.091462
    67  H    0.095223
    68  H    0.102543
    69  H    0.084224
    70  H    0.104060
    71  H    0.107827
    72  H    0.093255
    73  H    0.083905
    74  H    0.110640
    75  H    0.117005
    76  H    0.114232
    77  H    0.091360
    78  H    0.112613
    79  H    0.100286
    80  H    0.129297
    81  H    0.085935
    82  H    0.287500
    83  H    0.295183
    84  H    0.116960
    85  H    0.087693
    86  H    0.103521
    87  H    0.115888
    88  H    0.074669
    89  H    0.109909
    90  H    0.142671
    91  H    0.124106
    92  H    0.073677
    93  H    0.084909
    94  H    0.096622
    95  H    0.087379
    96  H    0.101685
    97  H    0.066530
    98  H    0.108342
    99  H    0.134831
   100  H    0.115395
 Sum of Mulliken charges =  -0.00000

 Dipole moment (field-independent basis, Debye):
    X=              4.2633    Y=             -0.2812    Z=              2.6635  Tot=              5.0348
 Quadrupole moment (field-independent basis, Debye-Ang):
   XX=           -290.2232   YY=           -258.9832   ZZ=           -280.7689
   XY=             -7.0340   XZ=             44.4954   YZ=             -1.7931

 Normal termination of Gaussian 16 at Wed Jul 31 04:35:54 2019.
