 Gaussian 16, Revision A.03,
 Gaussian 16:  ES64L-G16RevA.03 25-Dec-2016

 -------------------------------------
 # td=(NStates=1) CAM-B3LYP/6-31G(d,p)
 -------------------------------------

 --
 TD
 --
 Symbolic Z-matrix:
 Charge =  0 Multiplicity = 1

                         Standard orientation:
 ---------------------------------------------------------------------
 Center     Atomic      Atomic             Coordinates (Angstroms)
 Number     Number       Type             X           Y           Z
 ---------------------------------------------------------------------
      1          8           0      -11.778645    0.216756   -1.347162
      2          8           0      -12.938341   -2.736124    1.236576
      3          8           0       10.791948   -0.892315   -2.233810
      4          8           0       14.517091   -1.075302    0.138678
      5          6           0      -11.058534   -0.237465   -0.322785
      6          6           0      -11.664945   -1.184004   -1.248271
      7          6           0      -11.701491    0.143433    1.008532
      8          6           0      -13.024236   -1.827291   -1.009883
      9          6           0      -13.216408   -0.269531    0.976139
     10          6           0      -13.550974   -1.655665    0.438749
     11          6           0      -10.881300   -1.815429   -2.306507
     12          6           0       -9.590690    0.006357   -0.348692
     13          6           0      -11.038279   -0.434767    2.335759
     14          6           0      -11.686671    1.608824    1.236640
     15          6           0       -8.578911   -0.787009    0.047423
     16          6           0       -7.129903   -0.398277    0.057253
     17          6           0       -6.235608   -1.591308    0.231703
     18          6           0       -6.644173    0.887071   -0.104944
     19          6           0       -5.199687    1.138976   -0.120835
     20          6           0       11.787115   -0.125699    1.395828
     21          6           0       11.765587   -0.616695   -1.199203
     22          6           0       12.505793   -1.311498    1.580775
     23          6           0       13.344937   -1.860616    0.436454
     24          6           0       12.468272   -1.955748   -0.868665
     25          6           0       10.999558   -0.142603   -0.000071
     26          6           0       10.710260    0.121861    2.511502
     27          6           0       12.722240    1.058091    1.445184
     28          6           0       12.698885    0.339522   -1.812367
     29          6           0       -4.699529    2.481001   -0.233890
     30          6           0        9.832062    0.370170   -0.092403
     31          6           0       -3.325732    2.810136   -0.309473
     32          6           0        8.653768    0.899936   -0.356866
     33          6           0       -2.929052    4.219279   -0.645414
     34          6           0       -2.286731    1.840996   -0.164439
     35          6           0        7.456003    0.189753   -0.211587
     36          6           0        7.633326   -1.334860    0.051315
     37          6           0        6.229720    0.682486   -0.247463
     38          6           0       -0.997633    2.065962   -0.192467
     39          6           0        4.923033    0.151299   -0.170335
     40          6           0        0.012133    1.153434   -0.052398
     41          6           0        3.767841    0.891188   -0.181903
     42          6           0        1.470761    1.397295   -0.076465
     43          6           0        2.455049    0.422273   -0.059757
     44          6           0        2.142604   -1.006908   -0.092962
     45          1           0      -12.843529   -2.828914   -1.121894
     46          1           0      -13.777815   -1.577921   -1.724234
     47          1           0      -13.650318   -0.073274    1.877521
     48          1           0      -13.635761    0.452492    0.238058
     49          1           0      -14.504877   -2.118132    0.233003
     50          1           0      -10.458877   -2.781831   -2.063799
     51          1           0      -11.377244   -1.858895   -3.271900
     52          1           0      -10.084789   -1.159553   -2.530480
     53          1           0       -9.169443    1.145534   -0.582756
     54          1           0      -10.033517    0.017770    2.305365
     55          1           0      -11.641180   -0.104985    3.217641
     56          1           0      -10.664074   -1.525039    2.422162
     57          1           0      -11.568621    2.374353    0.275437
     58          1           0      -12.790073    1.908926    1.779203
     59          1           0      -10.810403    2.073299    1.865753
     60          1           0      -11.990388   -2.728495    1.182516
     61          1           0       -8.959509   -1.830009    0.331480
     62          1           0       -5.557013   -1.907461   -0.709021
     63          1           0       -5.557281   -1.531335    1.339946
     64          1           0       -6.957931   -2.338797    0.514056
     65          1           0       -7.309155    1.803869   -0.011758
     66          1           0       -4.393371    0.443969   -0.163737
     67          1           0       13.358813   -1.166235    2.599867
     68          1           0       11.958931   -2.187998    1.677713
     69          1           0       13.581302   -2.935508    0.798377
     70          1           0       13.056447   -2.496930   -1.548390
     71          1           0       11.852389   -2.832963   -0.603507
     72          1           0       11.165387    0.026625    3.403905
     73          1           0       10.203370    1.086183    2.353753
     74          1           0       10.016212   -0.575091    2.411777
     75          1           0       13.700421    0.903047    0.914981
     76          1           0       12.127541    1.950230    1.212601
     77          1           0       13.163038    0.884594    2.543269
     78          1           0       13.077189   -0.098352   -2.669118
     79          1           0       12.097535    1.263471   -2.001744
     80          1           0       13.660476    0.545694   -1.244711
     81          1           0       -5.496912    3.290870   -0.202762
     82          1           0       10.063180   -0.276979   -2.123884
     83          1           0       15.100290   -1.167601    0.887235
     84          1           0        8.377412    2.062837   -0.469261
     85          1           0       -2.218786    4.545497    0.165859
     86          1           0       -2.613310    4.411210   -1.758138
     87          1           0       -3.955758    4.782760   -0.395537
     88          1           0       -2.814251    0.818582    0.093903
     89          1           0        6.691468   -1.742240    0.082784
     90          1           0        8.081282   -1.875180   -0.937960
     91          1           0        8.148941   -1.575758    0.955869
     92          1           0        6.143536    1.777197   -0.443195
     93          1           0       -0.620919    3.193385   -0.505835
     94          1           0        4.964331   -0.723284   -0.058592
     95          1           0       -0.566317    0.106740    0.185784
     96          1           0        4.054749    1.993974   -0.325935
     97          1           0        1.673695    2.359691   -0.402667
     98          1           0        1.016377   -1.048573   -0.617657
     99          1           0        2.953992   -1.737014   -0.784198
    100          1           0        2.165935   -1.466392    1.109331
 ---------------------------------------------------------------------

 SCF Done:  E(RCAM-B3LYP) =  -1857.23557936     A.U. after   15 cycles

 Excitation energies and oscillator strengths:

 Excited State   1:      Singlet-A      2.0833 eV  595.12 nm  f=2.7767  <S**2>=0.000
     163 ->166        -0.12731
     164 ->165         0.69754
 This state for optimization and/or second-order correction.
 Total Energy, E(TD-HF/TD-DFT) =  -1857.15901808
 Copying the excited state density for this state as the 1-particle RhoCI density.

 The electronic state is 1-A.
 Alpha  occ. eigenvalues --  -19.22692 -19.22134 -19.19735 -19.19136 -10.32608
 Alpha  occ. eigenvalues --  -10.32040 -10.31766 -10.31648 -10.30557 -10.30268
 Alpha  occ. eigenvalues --  -10.28932 -10.28554 -10.28455 -10.28190 -10.28181
 Alpha  occ. eigenvalues --  -10.28140 -10.28105 -10.28103 -10.28084 -10.27864
 Alpha  occ. eigenvalues --  -10.27856 -10.27854 -10.27796 -10.27633 -10.27313
 Alpha  occ. eigenvalues --  -10.27252 -10.27227 -10.27011 -10.26980 -10.26946
 Alpha  occ. eigenvalues --  -10.26840 -10.26730 -10.26484 -10.26097 -10.25531
 Alpha  occ. eigenvalues --  -10.25252 -10.25149 -10.25115 -10.25033 -10.24497
 Alpha  occ. eigenvalues --  -10.24342 -10.24183 -10.22888 -10.22699  -1.20531
 Alpha  occ. eigenvalues --   -1.10210  -1.08389  -1.07363  -0.94366  -0.93029
 Alpha  occ. eigenvalues --   -0.92467  -0.91655  -0.91227  -0.90524  -0.87900
 Alpha  occ. eigenvalues --   -0.87570  -0.86718  -0.86577  -0.85176  -0.84128
 Alpha  occ. eigenvalues --   -0.82569  -0.81422  -0.81024  -0.78243  -0.77422
 Alpha  occ. eigenvalues --   -0.77255  -0.77100  -0.76060  -0.75728  -0.75549
 Alpha  occ. eigenvalues --   -0.74677  -0.74041  -0.73325  -0.70714  -0.70335
 Alpha  occ. eigenvalues --   -0.68916  -0.67712  -0.66112  -0.64960  -0.64717
 Alpha  occ. eigenvalues --   -0.63711  -0.63224  -0.61924  -0.60525  -0.59710
 Alpha  occ. eigenvalues --   -0.58903  -0.58614  -0.58112  -0.57853  -0.57327
 Alpha  occ. eigenvalues --   -0.55776  -0.55655  -0.55429  -0.55132  -0.54850
 Alpha  occ. eigenvalues --   -0.54597  -0.52768  -0.52605  -0.52176  -0.51520
 Alpha  occ. eigenvalues --   -0.51100  -0.50954  -0.50574  -0.50023  -0.49764
 Alpha  occ. eigenvalues --   -0.49388  -0.49312  -0.49069  -0.48724  -0.48341
 Alpha  occ. eigenvalues --   -0.47920  -0.47702  -0.47581  -0.47322  -0.47127
 Alpha  occ. eigenvalues --   -0.46934  -0.46665  -0.46166  -0.45861  -0.45315
 Alpha  occ. eigenvalues --   -0.45107  -0.45016  -0.44425  -0.44345  -0.43773
 Alpha  occ. eigenvalues --   -0.43415  -0.42974  -0.42863  -0.42708  -0.42425
 Alpha  occ. eigenvalues --   -0.42193  -0.42078  -0.41635  -0.41515  -0.41263
 Alpha  occ. eigenvalues --   -0.41185  -0.40587  -0.40273  -0.40016  -0.39654
 Alpha  occ. eigenvalues --   -0.39546  -0.39123  -0.38940  -0.38633  -0.38584
 Alpha  occ. eigenvalues --   -0.38406  -0.38106  -0.37413  -0.37148  -0.36909
 Alpha  occ. eigenvalues --   -0.36828  -0.36223  -0.35355  -0.34854  -0.34587
 Alpha  occ. eigenvalues --   -0.32696  -0.32527  -0.32151  -0.31784  -0.31406
 Alpha  occ. eigenvalues --   -0.31107  -0.28672  -0.24956  -0.19967
 Alpha virt. eigenvalues --   -0.06779  -0.01242   0.02494   0.05894   0.06166
 Alpha virt. eigenvalues --    0.09131   0.09925   0.10238   0.10675   0.11522
 Alpha virt. eigenvalues --    0.11600   0.12228   0.12627   0.12865   0.13129

 Mulliken charges:
               1
     1  O   -0.472407
     2  O   -0.573861
     3  O   -0.585453
     4  O   -0.534318
     5  C    0.229455
     6  C    0.211254
     7  C    0.040216
     8  C   -0.223164
     9  C   -0.193515
    10  C    0.157004
    11  C   -0.345400
    12  C   -0.120470
    13  C   -0.305119
    14  C   -0.305112
    15  C   -0.085170
    16  C    0.088876
    17  C   -0.351996
    18  C   -0.123456
    19  C   -0.063343
    20  C    0.011249
    21  C    0.266683
    22  C   -0.135485
    23  C    0.107173
    24  C   -0.190259
    25  C   -0.078515
    26  C   -0.287471
    27  C   -0.278622
    28  C   -0.273705
    29  C   -0.134463
    30  C    0.145245
    31  C    0.084319
    32  C   -0.300373
    33  C   -0.364925
    34  C   -0.083446
    35  C    0.134974
    36  C   -0.367940
    37  C   -0.137643
    38  C   -0.071657
    39  C    0.012088
    40  C   -0.116604
    41  C   -0.115922
    42  C   -0.126466
    43  C    0.146841
    44  C   -0.342359
    45  H    0.114542
    46  H    0.113993
    47  H    0.106216
    48  H    0.118214
    49  H    0.108976
    50  H    0.111078
    51  H    0.116748
    52  H    0.127114
    53  H    0.078123
    54  H    0.108596
    55  H    0.113815
    56  H    0.078976
    57  H    0.098683
    58  H    0.082430
    59  H    0.100908
    60  H    0.295143
    61  H    0.078700
    62  H    0.120395
    63  H    0.083569
    64  H    0.118078
    65  H    0.095872
    66  H    0.093896
    67  H    0.023910
    68  H    0.097835
    69  H    0.074689
    70  H    0.121179
    71  H    0.100252
    72  H    0.101562
    73  H    0.106602
    74  H    0.109505
    75  H    0.124752
    76  H    0.104250
    77  H    0.067245
    78  H    0.124939
    79  H    0.083537
    80  H    0.122287
    81  H    0.085073
    82  H    0.299945
    83  H    0.304167
    84  H    0.100984
    85  H    0.128565
    86  H    0.128563
    87  H    0.087164
    88  H    0.067698
    89  H    0.110322
    90  H    0.107023
    91  H    0.125581
    92  H    0.049932
    93  H    0.072666
    94  H    0.009499
    95  H    0.073191
    96  H    0.078353
    97  H    0.094619
    98  H    0.108850
    99  H    0.097231
   100  H    0.097230
 Sum of Mulliken charges =  -0.00000

 Dipole moment (field-independent basis, Debye):
    X=              0.8393    Y=             -0.2438    Z=              1.6982  Tot=              1.9099
 Quadrupole moment (field-independent basis, Debye-Ang):
   XX=           -283.7178   YY=           -262.0612   ZZ=           -280.4559
   XY=            -14.4893   XZ=             39.8227   YZ=             -0.5395

 Normal termination of Gaussian 16 at Wed Jul 31 15:23:08 2019.
