 Gaussian 16, Revision A.03,
 Gaussian 16:  ES64L-G16RevA.03 25-Dec-2016

 -------------------------------------
 # td=(NStates=1) CAM-B3LYP/6-31G(d,p)
 -------------------------------------

 --
 TD
 --
 Symbolic Z-matrix:
 Charge =  0 Multiplicity = 1

                         Standard orientation:
 ---------------------------------------------------------------------
 Center     Atomic      Atomic             Coordinates (Angstroms)
 Number     Number       Type             X           Y           Z
 ---------------------------------------------------------------------
      1          8           0      -11.773180    0.462481   -1.340664
      2          8           0      -13.027580   -2.487440    1.256560
      3          8           0       10.605474   -0.885299   -1.961074
      4          8           0       14.473749   -0.922045    0.003823
      5          6           0      -11.048229   -0.041430   -0.290597
      6          6           0      -11.738022   -0.953810   -1.206509
      7          6           0      -11.703425    0.385211    1.177337
      8          6           0      -13.103526   -1.533863   -0.961614
      9          6           0      -13.317410   -0.034273    1.154447
     10          6           0      -13.628679   -1.420336    0.519814
     11          6           0      -10.981008   -1.686622   -2.241926
     12          6           0       -9.611867    0.153321   -0.402371
     13          6           0      -10.960095   -0.285927    2.204369
     14          6           0      -11.624622    1.950363    1.305183
     15          6           0       -8.745456   -0.801293    0.067888
     16          6           0       -7.308445   -0.611301    0.014206
     17          6           0       -6.385629   -1.865261    0.282010
     18          6           0       -6.660387    0.646615   -0.120664
     19          6           0       -5.258628    0.887288   -0.059153
     20          6           0       11.872608    0.136208    1.414689
     21          6           0       11.709502   -0.539383   -1.174363
     22          6           0       12.616525   -1.211599    1.630239
     23          6           0       13.386796   -1.718699    0.374813
     24          6           0       12.355186   -1.888683   -0.782326
     25          6           0       11.125531    0.125633    0.152882
     26          6           0       11.041601    0.366120    2.638258
     27          6           0       12.914472    1.342424    1.404837
     28          6           0       12.496304    0.451237   -1.945067
     29          6           0       -4.642010    2.107325   -0.376974
     30          6           0        9.868372    0.625865    0.026980
     31          6           0       -3.357307    2.379265   -0.461093
     32          6           0        8.681443    0.989951   -0.202214
     33          6           0       -2.925342    3.961572   -0.629736
     34          6           0       -2.280436    1.471964   -0.385844
     35          6           0        7.524313    0.102753   -0.084694
     36          6           0        7.827200   -1.437547    0.259297
     37          6           0        6.188397    0.550084   -0.303483
     38          6           0       -0.889080    1.709731   -0.489987
     39          6           0        4.938114   -0.110947   -0.200821
     40          6           0        0.102260    0.786281   -0.340352
     41          6           0        3.819140    0.585165   -0.269674
     42          6           0        1.413952    0.984538   -0.337214
     43          6           0        2.483383    0.133407   -0.197659
     44          6           0        2.260179   -1.382835   -0.065919
     45          1           0      -13.107095   -2.588031   -1.186464
     46          1           0      -13.884534   -1.040658   -1.650215
     47          1           0      -13.782336   -0.001990    2.267797
     48          1           0      -13.686025    0.944245    0.533053
     49          1           0      -14.707781   -1.622593    0.642959
     50          1           0      -10.783554   -2.821046   -2.117452
     51          1           0      -11.604108   -1.773715   -3.030413
     52          1           0      -10.123451   -1.251265   -2.488144
     53          1           0       -9.170997    1.113652   -0.735306
     54          1           0      -10.107486    0.117338    2.367761
     55          1           0      -11.577009   -0.252976    3.234776
     56          1           0      -10.831210   -1.314878    1.922814
     57          1           0      -12.401881    2.509723    0.601402
     58          1           0      -11.902760    2.093736    2.445271
     59          1           0      -10.552958    2.253899    1.234442
     60          1           0      -11.981852   -2.275920    1.362000
     61          1           0       -9.270729   -1.927275    0.522740
     62          1           0       -5.696949   -2.029301   -0.454834
     63          1           0       -5.835658   -1.660235    1.266827
     64          1           0       -7.004419   -2.703376    0.305851
     65          1           0       -7.300044    1.645351   -0.237511
     66          1           0       -4.409324    0.137163    0.257353
     67          1           0       13.384573   -1.232019    2.504608
     68          1           0       11.865889   -1.942370    1.793566
     69          1           0       13.759258   -2.861579    0.492396
     70          1           0       12.835268   -2.270236   -1.671069
     71          1           0       11.541470   -2.614250   -0.462343
     72          1           0       11.638801    0.360401    3.388987
     73          1           0       10.592057    1.426095    2.748246
     74          1           0       10.119120   -0.326726    2.864559
     75          1           0       13.451967    1.164704    0.360447
     76          1           0       12.244627    2.234216    1.050721
     77          1           0       13.596948    1.492363    2.264784
     78          1           0       12.687856    0.038308   -2.950886
     79          1           0       11.985675    1.372636   -2.191219
     80          1           0       13.520638    0.722946   -1.616082
     81          1           0       -5.499155    2.898794   -0.436166
     82          1           0       10.033959   -0.214929   -2.131735
     83          1           0       15.126067   -0.929530    0.725642
     84          1           0        8.312624    1.850724   -0.434644
     85          1           0       -2.073917    4.202090    0.193076
     86          1           0       -2.528912    4.232593   -1.630592
     87          1           0       -3.758205    4.650200   -0.473795
     88          1           0       -2.504876    0.436560   -0.401046
     89          1           0        6.803411   -1.951347    0.682387
     90          1           0        8.306212   -1.720993   -0.749366
     91          1           0        8.498129   -1.423009    1.095730
     92          1           0        5.996576    1.780107   -0.504538
     93          1           0       -0.453611    2.819251   -0.313899
     94          1           0        4.934717   -1.112746   -0.320202
     95          1           0       -0.263057   -0.350339   -0.359496
     96          1           0        3.869346    1.653742   -0.460406
     97          1           0        1.779317    1.997582   -0.393333
     98          1           0        1.224333   -1.533054    0.461791
     99          1           0        2.571801   -1.853453   -1.115624
    100          1           0        3.161491   -1.741227    0.673674
 ---------------------------------------------------------------------

 SCF Done:  E(RCAM-B3LYP) =  -1857.29480839     A.U. after   15 cycles

 Excitation energies and oscillator strengths:

 Excited State   1:      Singlet-A      2.0012 eV  619.55 nm  f=3.0653  <S**2>=0.000
     163 ->166        -0.12554
     164 ->165         0.70033
     164 <-165        -0.11055
 This state for optimization and/or second-order correction.
 Total Energy, E(TD-HF/TD-DFT) =  -1857.22126574
 Copying the excited state density for this state as the 1-particle RhoCI density.

 The electronic state is 1-A.
 Alpha  occ. eigenvalues --  -19.22729 -19.22048 -19.21258 -19.20012 -10.32409
 Alpha  occ. eigenvalues --  -10.32311 -10.31726 -10.31607 -10.31074 -10.29633
 Alpha  occ. eigenvalues --  -10.29138 -10.28572 -10.28453 -10.28271 -10.28253
 Alpha  occ. eigenvalues --  -10.28073 -10.28025 -10.27914 -10.27848 -10.27685
 Alpha  occ. eigenvalues --  -10.27547 -10.27338 -10.27300 -10.27094 -10.27013
 Alpha  occ. eigenvalues --  -10.27007 -10.26975 -10.26935 -10.26910 -10.26741
 Alpha  occ. eigenvalues --  -10.26683 -10.26417 -10.26083 -10.25959 -10.25643
 Alpha  occ. eigenvalues --  -10.25611 -10.25604 -10.25507 -10.25404 -10.25396
 Alpha  occ. eigenvalues --  -10.24398 -10.24116 -10.23966 -10.23572  -1.17696
 Alpha  occ. eigenvalues --   -1.11711  -1.11202  -1.07280  -0.93284  -0.92872
 Alpha  occ. eigenvalues --   -0.91932  -0.90981  -0.90470  -0.89492  -0.88496
 Alpha  occ. eigenvalues --   -0.86529  -0.86279  -0.85618  -0.84348  -0.83050
 Alpha  occ. eigenvalues --   -0.81811  -0.81058  -0.80246  -0.78174  -0.77012
 Alpha  occ. eigenvalues --   -0.76982  -0.76349  -0.75997  -0.75019  -0.74914
 Alpha  occ. eigenvalues --   -0.74720  -0.74189  -0.72963  -0.70402  -0.69732
 Alpha  occ. eigenvalues --   -0.68854  -0.67092  -0.65487  -0.65269  -0.64140
 Alpha  occ. eigenvalues --   -0.63666  -0.62128  -0.60925  -0.59996  -0.59472
 Alpha  occ. eigenvalues --   -0.59211  -0.58591  -0.58286  -0.57370  -0.56370
 Alpha  occ. eigenvalues --   -0.55990  -0.55376  -0.55198  -0.54779  -0.54320
 Alpha  occ. eigenvalues --   -0.53677  -0.52787  -0.52514  -0.52223  -0.51914
 Alpha  occ. eigenvalues --   -0.51543  -0.51038  -0.50550  -0.50152  -0.49420
 Alpha  occ. eigenvalues --   -0.49350  -0.48850  -0.48779  -0.48440  -0.48424
 Alpha  occ. eigenvalues --   -0.47964  -0.47933  -0.47716  -0.47170  -0.47113
 Alpha  occ. eigenvalues --   -0.46865  -0.46619  -0.46364  -0.45984  -0.45290
 Alpha  occ. eigenvalues --   -0.44955  -0.44733  -0.44390  -0.43998  -0.43640
 Alpha  occ. eigenvalues --   -0.43477  -0.43290  -0.42936  -0.42857  -0.42607
 Alpha  occ. eigenvalues --   -0.42586  -0.42140  -0.42089  -0.41774  -0.41050
 Alpha  occ. eigenvalues --   -0.40952  -0.40769  -0.40456  -0.40337  -0.39709
 Alpha  occ. eigenvalues --   -0.39467  -0.38978  -0.38803  -0.38639  -0.38399
 Alpha  occ. eigenvalues --   -0.37942  -0.37601  -0.37534  -0.36997  -0.36844
 Alpha  occ. eigenvalues --   -0.36364  -0.36335  -0.35578  -0.34927  -0.34329
 Alpha  occ. eigenvalues --   -0.33053  -0.32454  -0.32038  -0.31447  -0.31024
 Alpha  occ. eigenvalues --   -0.29008  -0.28399  -0.24634  -0.19499
 Alpha virt. eigenvalues --   -0.07005  -0.01075   0.02985   0.05489   0.06415
 Alpha virt. eigenvalues --    0.07609   0.09962   0.10677   0.11442   0.11832
 Alpha virt. eigenvalues --    0.12327   0.12799   0.12958   0.13466   0.13815

 Mulliken charges:
               1
     1  O   -0.498295
     2  O   -0.561974
     3  O   -0.553679
     4  O   -0.531497
     5  C    0.213822
     6  C    0.236912
     7  C    0.002840
     8  C   -0.204880
     9  C   -0.179693
    10  C    0.151939
    11  C   -0.328102
    12  C   -0.115944
    13  C   -0.260536
    14  C   -0.304026
    15  C   -0.077048
    16  C    0.043263
    17  C   -0.356090
    18  C   -0.121675
    19  C   -0.067195
    20  C    0.024588
    21  C    0.283367
    22  C   -0.181879
    23  C    0.145860
    24  C   -0.189776
    25  C   -0.073534
    26  C   -0.284418
    27  C   -0.314534
    28  C   -0.325935
    29  C   -0.126010
    30  C    0.172994
    31  C    0.105010
    32  C   -0.263777
    33  C   -0.361348
    34  C   -0.132487
    35  C    0.046200
    36  C   -0.350467
    37  C   -0.130928
    38  C   -0.081673
    39  C   -0.063056
    40  C   -0.072606
    41  C   -0.098547
    42  C   -0.105938
    43  C    0.106854
    44  C   -0.364490
    45  H    0.113790
    46  H    0.104349
    47  H    0.084075
    48  H    0.089787
    49  H    0.102801
    50  H    0.095833
    51  H    0.124710
    52  H    0.122527
    53  H    0.111363
    54  H    0.122659
    55  H    0.089876
    56  H    0.056457
    57  H    0.114801
    58  H    0.090879
    59  H    0.102870
    60  H    0.310260
    61  H    0.068532
    62  H    0.135157
    63  H    0.120756
    64  H    0.110502
    65  H    0.080124
    66  H    0.083767
    67  H    0.072026
    68  H    0.107956
    69  H    0.054871
    70  H    0.113744
    71  H    0.119009
    72  H    0.107997
    73  H    0.090414
    74  H    0.085930
    75  H    0.114844
    76  H    0.094065
    77  H    0.101908
    78  H    0.107185
    79  H    0.101955
    80  H    0.132900
    81  H    0.078360
    82  H    0.290310
    83  H    0.314379
    84  H    0.088284
    85  H    0.101146
    86  H    0.125388
    87  H    0.109954
    88  H    0.080344
    89  H    0.088926
    90  H    0.141277
    91  H    0.127879
    92  H    0.051180
    93  H    0.072017
    94  H    0.092915
    95  H    0.068469
    96  H    0.076060
    97  H    0.070529
    98  H    0.112935
    99  H    0.122710
   100  H    0.094649
 Sum of Mulliken charges =  -0.00000

 Dipole moment (field-independent basis, Debye):
    X=              3.9882    Y=              0.0034    Z=              1.6438  Tot=              4.3136
 Quadrupole moment (field-independent basis, Debye-Ang):
   XX=           -262.4166   YY=           -266.3791   ZZ=           -275.1070
   XY=             -6.5585   XZ=             23.8309   YZ=             -0.0984

 Normal termination of Gaussian 16 at Mon Jul 29 12:38:34 2019.
