 Gaussian 16, Revision A.03,
 Gaussian 16:  ES64L-G16RevA.03 25-Dec-2016

 -------------------------------------
 # td=(NStates=1) CAM-B3LYP/6-31G(d,p)
 -------------------------------------

 --
 TD
 --
 Symbolic Z-matrix:
 Charge =  0 Multiplicity = 1

                         Standard orientation:
 ---------------------------------------------------------------------
 Center     Atomic      Atomic             Coordinates (Angstroms)
 Number     Number       Type             X           Y           Z
 ---------------------------------------------------------------------
      1          8           0      -11.737693    0.112445   -1.555187
      2          8           0      -13.168038   -2.423653    1.396540
      3          8           0       10.626688   -1.317028   -1.952017
      4          8           0       14.509342   -0.954003   -0.165212
      5          6           0      -11.070881   -0.202203   -0.321993
      6          6           0      -11.694375   -1.287206   -1.123561
      7          6           0      -11.813249    0.430589    0.883134
      8          6           0      -13.028787   -1.863196   -0.950775
      9          6           0      -13.323492    0.011324    0.835266
     10          6           0      -13.579909   -1.480503    0.458760
     11          6           0      -10.822713   -2.133181   -2.010440
     12          6           0       -9.545253    0.121361   -0.358118
     13          6           0      -11.140114   -0.017811    2.249221
     14          6           0      -11.713483    1.896239    0.899951
     15          6           0       -8.601205   -0.716148    0.119524
     16          6           0       -7.202753   -0.461735    0.239459
     17          6           0       -6.289594   -1.601375    0.553814
     18          6           0       -6.635933    0.728424   -0.164784
     19          6           0       -5.273436    0.918888   -0.194861
     20          6           0       11.943858    0.172181    1.345106
     21          6           0       11.697512   -0.720000   -1.175264
     22          6           0       12.729262   -1.090105    1.567045
     23          6           0       13.446017   -1.799055    0.352902
     24          6           0       12.485596   -2.026945   -0.747237
     25          6           0       11.089251    0.000742    0.048383
     26          6           0       10.909885    0.346995    2.551880
     27          6           0       12.898433    1.345988    1.346535
     28          6           0       12.581530    0.264297   -1.974561
     29          6           0       -4.698025    2.126305   -0.500211
     30          6           0        9.899644    0.578392   -0.091465
     31          6           0       -3.331778    2.582285   -0.482321
     32          6           0        8.662406    0.901879   -0.314016
     33          6           0       -2.956080    4.034986   -0.825368
     34          6           0       -2.306911    1.710158   -0.223552
     35          6           0        7.530506    0.050919   -0.078513
     36          6           0        7.538621   -1.338178    0.345605
     37          6           0        6.263000    0.658814   -0.352568
     38          6           0       -0.995433    1.879391   -0.302602
     39          6           0        4.934391    0.179284   -0.072065
     40          6           0        0.012865    0.950488   -0.086811
     41          6           0        3.763025    0.764891   -0.296974
     42          6           0        1.337767    1.179931   -0.153298
     43          6           0        2.415123    0.317611   -0.072922
     44          6           0        2.332144   -1.111951    0.315567
     45          1           0      -12.945197   -2.979967   -0.961884
     46          1           0      -13.570115   -1.689394   -1.755164
     47          1           0      -13.818149    0.111676    1.883239
     48          1           0      -13.811010    0.564816    0.054837
     49          1           0      -14.508684   -1.614406    0.387131
     50          1           0      -10.662487   -2.930316   -1.225102
     51          1           0      -11.288183   -2.430175   -2.918756
     52          1           0       -9.886274   -1.563760   -2.373865
     53          1           0       -9.202308    1.176637   -0.634354
     54          1           0      -10.296500    0.591463    2.566339
     55          1           0      -12.056508   -0.014850    2.962295
     56          1           0      -10.858825   -1.165658    1.990342
     57          1           0      -12.181292    2.498824   -0.007992
     58          1           0      -12.293370    2.266289    1.594451
     59          1           0      -10.559027    2.202281    1.207457
     60          1           0      -12.202826   -2.554390    1.328339
     61          1           0       -9.066679   -1.688423    0.567031
     62          1           0       -5.560865   -2.033011   -0.136384
     63          1           0       -5.780339   -1.367154    1.520605
     64          1           0       -6.919863   -2.478758    0.973666
     65          1           0       -7.245077    1.504071   -0.239849
     66          1           0       -4.763420    0.052144    0.133634
     67          1           0       13.478572   -1.034088    2.384730
     68          1           0       11.996357   -2.005549    1.948586
     69          1           0       13.778407   -2.869895    0.673920
     70          1           0       13.119266   -2.176618   -1.768453
     71          1           0       11.866285   -3.054303   -0.628012
     72          1           0       11.436520    0.188988    3.374791
     73          1           0       10.263695    1.303692    2.626820
     74          1           0       10.171276   -0.447529    2.576539
     75          1           0       13.561846    1.305526    0.504396
     76          1           0       12.244147    2.363318    1.216514
     77          1           0       13.375185    1.394283    2.322769
     78          1           0       12.603710   -0.169826   -3.006500
     79          1           0       12.077081    1.232724   -2.100383
     80          1           0       13.572607    0.439692   -1.588920
     81          1           0       -5.458682    2.998095   -0.776096
     82          1           0        9.896575   -0.743630   -2.041494
     83          1           0       15.343863   -0.622475    0.428911
     84          1           0        8.260793    1.959767   -0.812498
     85          1           0       -2.621510    4.235732    0.230924
     86          1           0       -1.836392    4.335853   -1.538007
     87          1           0       -3.692012    4.603621   -1.365023
     88          1           0       -2.560337    0.717166   -0.107979
     89          1           0        6.662454   -1.835305    0.193268
     90          1           0        8.533986   -1.759279   -0.316257
     91          1           0        8.026888   -1.342466    1.293236
     92          1           0        6.259557    1.762133   -0.593407
     93          1           0       -0.561027    2.923248   -0.335217
     94          1           0        4.737663   -0.744516    0.280614
     95          1           0       -0.161336   -0.006012    0.312747
     96          1           0        3.746105    1.896251   -0.713174
     97          1           0        1.741082    2.166881   -0.197790
     98          1           0        1.307109   -1.558220    0.411406
     99          1           0        2.933505   -1.795014   -0.361053
    100          1           0        2.846788   -1.278909    1.333848
 ---------------------------------------------------------------------

 SCF Done:  E(RCAM-B3LYP) =  -1857.31316771     A.U. after   15 cycles

 Excitation energies and oscillator strengths:

 Excited State   1:      Singlet-A      2.1087 eV  587.97 nm  f=3.1291  <S**2>=0.000
     163 ->166         0.13035
     164 ->165         0.69795
 This state for optimization and/or second-order correction.
 Total Energy, E(TD-HF/TD-DFT) =  -1857.23567450
 Copying the excited state density for this state as the 1-particle RhoCI density.

 The electronic state is 1-A.
 Alpha  occ. eigenvalues --  -19.22678 -19.21478 -19.20896 -19.20323 -10.32605
 Alpha  occ. eigenvalues --  -10.32579 -10.32322 -10.31420 -10.29046 -10.28827
 Alpha  occ. eigenvalues --  -10.28289 -10.28242 -10.28147 -10.28043 -10.27872
 Alpha  occ. eigenvalues --  -10.27794 -10.27413 -10.27360 -10.27358 -10.27334
 Alpha  occ. eigenvalues --  -10.27235 -10.27098 -10.27014 -10.26778 -10.26755
 Alpha  occ. eigenvalues --  -10.26675 -10.26528 -10.26422 -10.26349 -10.25970
 Alpha  occ. eigenvalues --  -10.25925 -10.25759 -10.25734 -10.25720 -10.25633
 Alpha  occ. eigenvalues --  -10.25447 -10.25223 -10.25211 -10.24884 -10.24704
 Alpha  occ. eigenvalues --  -10.24651 -10.24425 -10.24370 -10.23937  -1.13731
 Alpha  occ. eigenvalues --   -1.10396  -1.09040  -1.07349  -0.93110  -0.92879
 Alpha  occ. eigenvalues --   -0.92453  -0.91525  -0.90766  -0.90426  -0.87936
 Alpha  occ. eigenvalues --   -0.87713  -0.86074  -0.85831  -0.84823  -0.83266
 Alpha  occ. eigenvalues --   -0.82231  -0.81178  -0.80836  -0.79144  -0.77328
 Alpha  occ. eigenvalues --   -0.76671  -0.76507  -0.76297  -0.75461  -0.75326
 Alpha  occ. eigenvalues --   -0.74966  -0.73936  -0.73351  -0.71192  -0.69903
 Alpha  occ. eigenvalues --   -0.68979  -0.67282  -0.65695  -0.64923  -0.64358
 Alpha  occ. eigenvalues --   -0.63809  -0.61696  -0.61208  -0.60372  -0.59775
 Alpha  occ. eigenvalues --   -0.58759  -0.58431  -0.58121  -0.56921  -0.56786
 Alpha  occ. eigenvalues --   -0.56349  -0.55840  -0.54727  -0.54649  -0.54343
 Alpha  occ. eigenvalues --   -0.54266  -0.53568  -0.52690  -0.52331  -0.51557
 Alpha  occ. eigenvalues --   -0.51114  -0.51051  -0.50498  -0.49922  -0.49869
 Alpha  occ. eigenvalues --   -0.49626  -0.49373  -0.49071  -0.48969  -0.48612
 Alpha  occ. eigenvalues --   -0.48109  -0.47829  -0.47594  -0.47217  -0.47120
 Alpha  occ. eigenvalues --   -0.46700  -0.46354  -0.45737  -0.45480  -0.45232
 Alpha  occ. eigenvalues --   -0.45107  -0.44806  -0.44224  -0.43813  -0.43518
 Alpha  occ. eigenvalues --   -0.43271  -0.43063  -0.42948  -0.42758  -0.42530
 Alpha  occ. eigenvalues --   -0.42157  -0.42016  -0.41688  -0.41432  -0.41008
 Alpha  occ. eigenvalues --   -0.40907  -0.40781  -0.40327  -0.40106  -0.39696
 Alpha  occ. eigenvalues --   -0.39611  -0.39379  -0.38801  -0.38591  -0.38556
 Alpha  occ. eigenvalues --   -0.38410  -0.38001  -0.37310  -0.36850  -0.36432
 Alpha  occ. eigenvalues --   -0.35998  -0.35896  -0.35397  -0.35117  -0.34524
 Alpha  occ. eigenvalues --   -0.32725  -0.32563  -0.32145  -0.31823  -0.31028
 Alpha  occ. eigenvalues --   -0.29706  -0.27612  -0.24407  -0.19481
 Alpha virt. eigenvalues --   -0.06418  -0.00785   0.02751   0.05140   0.07597
 Alpha virt. eigenvalues --    0.08116   0.08177   0.10686   0.11493   0.12216
 Alpha virt. eigenvalues --    0.12509   0.12997   0.13106   0.13690   0.14095

 Mulliken charges:
               1
     1  O   -0.515653
     2  O   -0.544514
     3  O   -0.567860
     4  O   -0.578491
     5  C    0.207062
     6  C    0.207570
     7  C    0.032114
     8  C   -0.226471
     9  C   -0.210193
    10  C    0.190088
    11  C   -0.308832
    12  C   -0.121338
    13  C   -0.280908
    14  C   -0.286772
    15  C   -0.067063
    16  C    0.068703
    17  C   -0.398851
    18  C   -0.063132
    19  C   -0.046053
    20  C    0.022902
    21  C    0.255932
    22  C   -0.184019
    23  C    0.180229
    24  C   -0.181827
    25  C   -0.058974
    26  C   -0.309374
    27  C   -0.285454
    28  C   -0.322023
    29  C   -0.147338
    30  C    0.133416
    31  C    0.081766
    32  C   -0.300888
    33  C   -0.342557
    34  C   -0.097986
    35  C    0.152228
    36  C   -0.360573
    37  C   -0.136955
    38  C   -0.073817
    39  C   -0.066423
    40  C   -0.075901
    41  C   -0.123901
    42  C   -0.116580
    43  C    0.137396
    44  C   -0.402536
    45  H    0.101869
    46  H    0.127396
    47  H    0.092928
    48  H    0.116220
    49  H    0.091702
    50  H    0.090098
    51  H    0.117060
    52  H    0.119426
    53  H    0.104179
    54  H    0.117952
    55  H    0.106928
    56  H    0.049224
    57  H    0.095176
    58  H    0.118853
    59  H    0.069606
    60  H    0.301167
    61  H    0.066045
    62  H    0.137756
    63  H    0.124217
    64  H    0.092971
    65  H    0.067894
    66  H    0.089572
    67  H    0.086434
    68  H    0.068973
    69  H    0.079281
    70  H    0.104717
    71  H    0.114237
    72  H    0.104974
    73  H    0.105332
    74  H    0.104131
    75  H    0.117389
    76  H    0.082297
    77  H    0.102041
    78  H    0.111815
    79  H    0.096863
    80  H    0.149000
    81  H    0.071240
    82  H    0.299230
    83  H    0.318481
    84  H    0.102104
    85  H    0.141126
    86  H    0.071729
    87  H    0.121612
    88  H    0.073233
    89  H    0.126393
    90  H    0.095605
    91  H    0.135901
    92  H    0.071848
    93  H    0.073935
    94  H    0.059941
    95  H    0.076389
    96  H    0.052986
    97  H    0.072545
    98  H    0.106502
    99  H    0.118160
   100  H    0.119168
 Sum of Mulliken charges =  -0.00000

 Dipole moment (field-independent basis, Debye):
    X=              3.3180    Y=             -0.1738    Z=              2.9511  Tot=              4.4439
 Quadrupole moment (field-independent basis, Debye-Ang):
   XX=           -241.8087   YY=           -263.1157   ZZ=           -278.6684
   XY=              2.7172   XZ=             30.7868   YZ=             -2.0897

 Normal termination of Gaussian 16 at Mon Jul 29 21:40:48 2019.
