 Gaussian 16, Revision A.03,
 Gaussian 16:  ES64L-G16RevA.03 25-Dec-2016

 -------------------------------------
 # td=(NStates=1) CAM-B3LYP/6-31G(d,p)
 -------------------------------------

 --
 TD
 --
 Symbolic Z-matrix:
 Charge =  0 Multiplicity = 1

                         Standard orientation:
 ---------------------------------------------------------------------
 Center     Atomic      Atomic             Coordinates (Angstroms)
 Number     Number       Type             X           Y           Z
 ---------------------------------------------------------------------
      1          8           0      -11.814222    0.535381   -1.386369
      2          8           0      -12.987959   -2.535162    1.261035
      3          8           0       10.775744   -0.836879   -2.216376
      4          8           0       14.431150   -0.969208   -0.050193
      5          6           0      -11.055614   -0.001916   -0.310717
      6          6           0      -11.780033   -0.885956   -1.359226
      7          6           0      -11.686550    0.340694    1.014362
      8          6           0      -13.191673   -1.511421   -0.966369
      9          6           0      -13.114862    0.018332    1.010806
     10          6           0      -13.556719   -1.326301    0.552848
     11          6           0      -11.124605   -1.711154   -2.438580
     12          6           0       -9.655452    0.091271   -0.395011
     13          6           0      -10.974955   -0.308082    2.236658
     14          6           0      -11.538705    1.964349    1.205614
     15          6           0       -8.733778   -0.841500    0.014389
     16          6           0       -7.278211   -0.669917    0.121021
     17          6           0       -6.415008   -1.839112    0.227011
     18          6           0       -6.633342    0.629523   -0.024190
     19          6           0       -5.259211    0.807826   -0.115987
     20          6           0       11.886043    0.139297    1.386540
     21          6           0       11.813327   -0.398248   -1.321536
     22          6           0       12.661350   -1.304843    1.453869
     23          6           0       13.382061   -1.785281    0.237761
     24          6           0       12.473786   -1.720486   -0.938978
     25          6           0       11.018290    0.149032    0.040358
     26          6           0       10.881104    0.262524    2.518629
     27          6           0       12.920119    1.249835    1.334580
     28          6           0       12.757798    0.536126   -1.945486
     29          6           0       -4.674237    2.058964   -0.179445
     30          6           0        9.924799    0.623331   -0.049645
     31          6           0       -3.303080    2.428115   -0.396138
     32          6           0        8.602827    0.962393   -0.132980
     33          6           0       -2.982657    3.904029   -0.765344
     34          6           0       -2.360599    1.381098   -0.231556
     35          6           0        7.428973    0.135026   -0.116393
     36          6           0        7.541320   -1.441947    0.112551
     37          6           0        6.171868    0.689559   -0.076775
     38          6           0       -1.021995    1.645144   -0.343189
     39          6           0        4.957344    0.055143    0.018072
     40          6           0        0.014435    0.613805   -0.138158
     41          6           0        3.769308    0.777375    0.082665
     42          6           0        1.356515    0.962462   -0.215682
     43          6           0        2.389987    0.116132    0.061515
     44          6           0        2.388113   -1.418316    0.484000
     45          1           0      -13.238140   -2.423018   -1.127820
     46          1           0      -14.085375   -0.899166   -1.391022
     47          1           0      -13.464068    0.136182    2.060892
     48          1           0      -13.559585    0.712581    0.343499
     49          1           0      -14.566225   -1.417733    0.677771
     50          1           0      -10.722629   -2.547293   -2.269419
     51          1           0      -11.503119   -1.658890   -3.266843
     52          1           0      -10.260311   -1.035169   -2.753696
     53          1           0       -9.065847    1.042750   -0.828585
     54          1           0      -10.037167    0.082754    2.148686
     55          1           0      -11.392865    0.109773    3.318047
     56          1           0      -10.885032   -1.442549    2.116084
     57          1           0      -11.743756    2.375094    0.099147
     58          1           0      -12.214598    2.351463    1.888956
     59          1           0      -10.520238    2.010490    1.551074
     60          1           0      -12.023333   -2.295443    1.057555
     61          1           0       -9.010231   -1.876509    0.434154
     62          1           0       -6.055881   -2.261153   -0.789966
     63          1           0       -5.558838   -1.688451    0.939612
     64          1           0       -6.917979   -2.684246    0.355592
     65          1           0       -7.270422    1.404605    0.118671
     66          1           0       -4.595559   -0.142052   -0.605745
     67          1           0       13.838912   -1.100557    2.130333
     68          1           0       11.979487   -2.098933    1.873610
     69          1           0       13.679969   -2.816226    0.453566
     70          1           0       13.308818   -2.079558   -1.793693
     71          1           0       11.708612   -2.457140   -0.695900
     72          1           0       11.383012    0.248621    3.383038
     73          1           0       10.461423    1.250314    2.608986
     74          1           0       10.149326   -0.699272    2.559572
     75          1           0       13.562552    1.274673    0.508271
     76          1           0       12.304021    2.139276    1.367089
     77          1           0       13.542289    1.115918    2.313205
     78          1           0       12.939902    0.136599   -3.066609
     79          1           0       12.237455    1.800705   -1.859779
     80          1           0       13.850564    0.444711   -1.525612
     81          1           0       -5.162925    2.727651   -0.155593
     82          1           0       10.050666   -0.202363   -2.232182
     83          1           0       14.997638   -0.946261    0.708866
     84          1           0        8.350564    2.027172   -0.147792
     85          1           0       -1.940711    4.239428   -0.034007
     86          1           0       -2.560655    4.190064   -1.753281
     87          1           0       -3.953848    4.380887   -0.519685
     88          1           0       -2.669341    0.374833   -0.153877
     89          1           0        6.553531   -1.868997    0.115397
     90          1           0        8.239762   -1.966326   -0.636893
     91          1           0        7.811515   -1.516081    1.099653
     92          1           0        6.208272    1.834846   -0.089930
     93          1           0       -0.593677    2.583372   -0.654527
     94          1           0        5.005049   -0.921621    0.265191
     95          1           0       -0.297189   -0.416474    0.167830
     96          1           0        3.673108    1.792316   -0.307542
     97          1           0        1.686034    1.992553   -0.469437
     98          1           0        1.387696   -1.506738    0.536381
     99          1           0        2.893150   -1.966887   -0.292763
    100          1           0        2.840022   -1.658996    1.445526
 ---------------------------------------------------------------------

 SCF Done:  E(RCAM-B3LYP) =  -1857.11087122     A.U. after   16 cycles

 Excitation energies and oscillator strengths:

 Excited State   1:      Singlet-A      1.9267 eV  643.52 nm  f=2.9883  <S**2>=0.000
     163 ->166         0.13309
     164 ->165         0.69825
     164 <-165        -0.10719
 This state for optimization and/or second-order correction.
 Total Energy, E(TD-HF/TD-DFT) =  -1857.04006779
 Copying the excited state density for this state as the 1-particle RhoCI density.

 The electronic state is 1-A.
 Alpha  occ. eigenvalues --  -19.23286 -19.22534 -19.20592 -19.20153 -10.33440
 Alpha  occ. eigenvalues --  -10.32621 -10.32030 -10.30533 -10.29474 -10.29148
 Alpha  occ. eigenvalues --  -10.28941 -10.28841 -10.28276 -10.27981 -10.27957
 Alpha  occ. eigenvalues --  -10.27889 -10.27768 -10.27706 -10.27681 -10.27523
 Alpha  occ. eigenvalues --  -10.27501 -10.27224 -10.27181 -10.26835 -10.26764
 Alpha  occ. eigenvalues --  -10.26565 -10.26232 -10.26009 -10.25870 -10.25852
 Alpha  occ. eigenvalues --  -10.25801 -10.25736 -10.25726 -10.25716 -10.25566
 Alpha  occ. eigenvalues --  -10.25511 -10.25177 -10.25055 -10.25041 -10.25004
 Alpha  occ. eigenvalues --  -10.24383 -10.24347 -10.23735 -10.22884  -1.16409
 Alpha  occ. eigenvalues --   -1.13862  -1.08658  -1.06015  -0.92692  -0.92339
 Alpha  occ. eigenvalues --   -0.91805  -0.91513  -0.90464  -0.89752  -0.87464
 Alpha  occ. eigenvalues --   -0.86908  -0.86608  -0.86008  -0.85060  -0.83706
 Alpha  occ. eigenvalues --   -0.82452  -0.81834  -0.81099  -0.79398  -0.77543
 Alpha  occ. eigenvalues --   -0.77282  -0.77250  -0.76649  -0.76283  -0.75500
 Alpha  occ. eigenvalues --   -0.75065  -0.74754  -0.73125  -0.70592  -0.69675
 Alpha  occ. eigenvalues --   -0.68506  -0.67354  -0.66069  -0.64980  -0.64438
 Alpha  occ. eigenvalues --   -0.63985  -0.62136  -0.61689  -0.60824  -0.59940
 Alpha  occ. eigenvalues --   -0.59078  -0.58322  -0.58066  -0.57808  -0.57270
 Alpha  occ. eigenvalues --   -0.56076  -0.55768  -0.55329  -0.54839  -0.54117
 Alpha  occ. eigenvalues --   -0.53600  -0.53390  -0.53210  -0.52926  -0.51917
 Alpha  occ. eigenvalues --   -0.51386  -0.51017  -0.50868  -0.50471  -0.50030
 Alpha  occ. eigenvalues --   -0.49996  -0.49624  -0.49036  -0.48904  -0.48727
 Alpha  occ. eigenvalues --   -0.48580  -0.48474  -0.48010  -0.47666  -0.46864
 Alpha  occ. eigenvalues --   -0.46781  -0.46491  -0.45788  -0.45681  -0.45450
 Alpha  occ. eigenvalues --   -0.45137  -0.44919  -0.44580  -0.44233  -0.44026
 Alpha  occ. eigenvalues --   -0.43747  -0.43688  -0.43418  -0.43259  -0.43182
 Alpha  occ. eigenvalues --   -0.42943  -0.42063  -0.42050  -0.41888  -0.41441
 Alpha  occ. eigenvalues --   -0.41309  -0.40717  -0.40424  -0.40041  -0.39730
 Alpha  occ. eigenvalues --   -0.39573  -0.39173  -0.38807  -0.38753  -0.38514
 Alpha  occ. eigenvalues --   -0.37786  -0.37761  -0.37686  -0.37399  -0.36970
 Alpha  occ. eigenvalues --   -0.36889  -0.35959  -0.35033  -0.34460  -0.33618
 Alpha  occ. eigenvalues --   -0.33203  -0.32876  -0.32574  -0.32184  -0.31286
 Alpha  occ. eigenvalues --   -0.30107  -0.26970  -0.23642  -0.19030
 Alpha virt. eigenvalues --   -0.06729  -0.01560   0.01870   0.06338   0.06985
 Alpha virt. eigenvalues --    0.08629   0.09783   0.10022   0.10983   0.11302
 Alpha virt. eigenvalues --    0.11923   0.12562   0.12797   0.13113   0.13971

 Mulliken charges:
               1
     1  O   -0.507722
     2  O   -0.561135
     3  O   -0.568876
     4  O   -0.515763
     5  C    0.219777
     6  C    0.223289
     7  C   -0.006830
     8  C   -0.179861
     9  C   -0.163113
    10  C    0.107891
    11  C   -0.325478
    12  C   -0.135295
    13  C   -0.295566
    14  C   -0.318787
    15  C   -0.076148
    16  C    0.065791
    17  C   -0.368860
    18  C   -0.110513
    19  C   -0.076744
    20  C    0.031818
    21  C    0.291461
    22  C   -0.159964
    23  C    0.169223
    24  C   -0.175446
    25  C   -0.182365
    26  C   -0.304387
    27  C   -0.296035
    28  C   -0.302765
    29  C   -0.004731
    30  C    0.218728
    31  C    0.055466
    32  C   -0.286020
    33  C   -0.348590
    34  C   -0.084705
    35  C    0.121441
    36  C   -0.373951
    37  C   -0.108822
    38  C   -0.092946
    39  C   -0.067622
    40  C   -0.106923
    41  C   -0.127842
    42  C   -0.109686
    43  C    0.057754
    44  C   -0.349914
    45  H    0.105349
    46  H    0.097459
    47  H    0.093319
    48  H    0.114661
    49  H    0.103543
    50  H    0.127115
    51  H    0.128549
    52  H    0.103682
    53  H    0.100469
    54  H    0.123255
    55  H    0.089536
    56  H    0.084224
    57  H    0.114456
    58  H    0.116482
    59  H    0.106181
    60  H    0.297333
    61  H    0.069106
    62  H    0.105764
    63  H    0.125736
    64  H    0.109357
    65  H    0.081008
    66  H    0.082057
    67  H   -0.010413
    68  H    0.095425
    69  H    0.085315
    70  H    0.085332
    71  H    0.107608
    72  H    0.110425
    73  H    0.112397
    74  H    0.094103
    75  H    0.136889
    76  H    0.101356
    77  H    0.084403
    78  H    0.108328
    79  H    0.049091
    80  H    0.146499
    81  H   -0.009589
    82  H    0.302284
    83  H    0.298510
    84  H    0.099805
    85  H    0.079392
    86  H    0.138830
    87  H    0.115408
    88  H    0.088104
    89  H    0.105191
    90  H    0.124739
    91  H    0.136254
    92  H    0.071789
    93  H    0.082926
    94  H    0.079559
    95  H    0.092505
    96  H    0.079411
    97  H    0.088584
    98  H    0.111826
    99  H    0.131975
   100  H    0.127861
 Sum of Mulliken charges =  -0.00000

 Dipole moment (field-independent basis, Debye):
    X=              3.8742    Y=              0.2643    Z=              1.5928  Tot=              4.1972
 Quadrupole moment (field-independent basis, Debye-Ang):
   XX=           -283.1918   YY=           -262.7087   ZZ=           -278.5648
   XY=            -13.2831   XZ=             41.2430   YZ=              0.4125

 Normal termination of Gaussian 16 at Mon Jul 29 12:41:58 2019.
