 Gaussian 16, Revision A.03,
 Gaussian 16:  ES64L-G16RevA.03 25-Dec-2016

 -------------------------------------
 # td=(NStates=1) CAM-B3LYP/6-31G(d,p)
 -------------------------------------

 --
 TD
 --
 Symbolic Z-matrix:
 Charge =  0 Multiplicity = 1

                         Standard orientation:
 ---------------------------------------------------------------------
 Center     Atomic      Atomic             Coordinates (Angstroms)
 Number     Number       Type             X           Y           Z
 ---------------------------------------------------------------------
      1          8           0      -11.822980    0.405572   -1.416071
      2          8           0      -13.039139   -2.621849    1.303072
      3          8           0       10.636080   -0.921731   -2.065991
      4          8           0       14.456027   -0.991569   -0.048799
      5          6           0      -10.954053   -0.107446   -0.263433
      6          6           0      -11.620242   -1.004295   -1.249969
      7          6           0      -11.701953    0.223909    1.037704
      8          6           0      -13.077109   -1.715093   -0.981636
      9          6           0      -13.171997   -0.091457    1.122216
     10          6           0      -13.504789   -1.507689    0.514143
     11          6           0      -10.884418   -1.800311   -2.338068
     12          6           0       -9.549777    0.065684   -0.344060
     13          6           0      -10.913277   -0.399288    2.203481
     14          6           0      -11.512973    1.795704    1.127566
     15          6           0       -8.618198   -0.799633    0.109542
     16          6           0       -7.190926   -0.606344    0.098348
     17          6           0       -6.325430   -1.858792    0.212378
     18          6           0       -6.559731    0.617038   -0.176774
     19          6           0       -5.224057    0.909146   -0.227942
     20          6           0       11.860580   -0.105595    1.429063
     21          6           0       11.708461   -0.541178   -1.212378
     22          6           0       12.593153   -1.478919    1.503786
     23          6           0       13.306184   -1.875368    0.182688
     24          6           0       12.334864   -1.853751   -1.011079
     25          6           0       11.127122    0.015745    0.043287
     26          6           0       11.063124    0.052742    2.659965
     27          6           0       12.954927    1.090002    1.387501
     28          6           0       12.541268    0.498441   -1.965510
     29          6           0       -4.727834    2.213873   -0.372163
     30          6           0        9.834518    0.454266    0.007275
     31          6           0       -3.401570    2.575256   -0.328138
     32          6           0        8.639147    0.938091   -0.132917
     33          6           0       -3.127321    4.066122   -0.420648
     34          6           0       -2.295678    1.749599   -0.251413
     35          6           0        7.394626    0.145948   -0.019548
     36          6           0        7.567840   -1.311322    0.140729
     37          6           0        6.202245    0.827676   -0.017425
     38          6           0       -0.896318    1.967667   -0.300620
     39          6           0        4.943052    0.151613   -0.072577
     40          6           0        0.001388    0.973727   -0.347069
     41          6           0        3.737204    0.861157   -0.069717
     42          6           0        1.457709    1.346515   -0.224622
     43          6           0        2.399731    0.439969   -0.084132
     44          6           0        2.308397   -1.068943    0.068954
     45          1           0      -13.221045   -2.891923   -1.416644
     46          1           0      -13.824085   -1.174699   -1.580510
     47          1           0      -13.490709    0.254885    2.217914
     48          1           0      -14.015199    0.410968    0.630515
     49          1           0      -14.568012   -1.498159    0.666719
     50          1           0      -10.423820   -2.812867   -2.079149
     51          1           0      -11.484642   -1.891939   -3.377853
     52          1           0      -10.067367   -1.109523   -2.590456
     53          1           0       -9.440360    1.172483   -0.892071
     54          1           0       -9.815637   -0.183848    2.402621
     55          1           0      -11.441285   -0.175416    3.060972
     56          1           0      -11.049071   -1.466335    1.886446
     57          1           0      -12.099220    2.323991    0.293318
     58          1           0      -11.859729    2.118452    2.093811
     59          1           0      -10.517585    2.036280    1.137196
     60          1           0      -12.076979   -2.773798    1.245219
     61          1           0       -9.094117   -1.666348    0.657041
     62          1           0       -5.825465   -2.080703   -0.690101
     63          1           0       -5.658080   -1.553644    0.881118
     64          1           0       -6.811331   -2.774862    0.477331
     65          1           0       -7.385429    1.340308   -0.270813
     66          1           0       -4.720191   -0.057884    0.122803
     67          1           0       13.314958   -1.483829    2.294601
     68          1           0       11.695717   -2.161813    1.906254
     69          1           0       13.564345   -2.994004    0.192141
     70          1           0       12.742150   -2.132686   -2.000552
     71          1           0       11.781009   -2.666228   -0.770789
     72          1           0       11.594505    0.069222    3.598796
     73          1           0       10.563661    1.111497    2.623683
     74          1           0       10.125753   -0.528709    2.719412
     75          1           0       13.634582    1.118035    0.515798
     76          1           0       12.382255    2.073048    1.457799
     77          1           0       13.393532    1.054069    2.462808
     78          1           0       13.015593   -0.042394   -2.842460
     79          1           0       11.930693    1.443800   -2.443718
     80          1           0       13.449851    0.788900   -1.446133
     81          1           0       -5.427989    2.852078   -0.460549
     82          1           0       10.111084   -0.129600   -2.602448
     83          1           0       14.976171   -0.926800    0.774324
     84          1           0        8.396885    1.830993   -0.481073
     85          1           0       -2.672500    4.617017    0.403396
     86          1           0       -2.634623    4.501454   -1.312607
     87          1           0       -4.190904    4.577778   -0.575909
     88          1           0       -2.439357    0.681238   -0.145855
     89          1           0        6.697974   -2.069639    0.022890
     90          1           0        8.464736   -1.669718   -0.409783
     91          1           0        7.648920   -1.325403    1.222301
     92          1           0        6.039657    1.811123   -0.530754
     93          1           0       -0.584661    3.133796   -0.047615
     94          1           0        4.682460   -0.856356   -0.023561
     95          1           0       -0.354561   -0.081504   -0.190548
     96          1           0        3.796099    1.967935    0.020931
     97          1           0        1.764653    2.359828   -0.363875
     98          1           0        1.479028   -1.549399    0.134190
     99          1           0        3.011381   -1.731846   -0.523580
    100          1           0        2.789048   -1.277496    1.148657
 ---------------------------------------------------------------------

 SCF Done:  E(RCAM-B3LYP) =  -1857.30679980     A.U. after   15 cycles

 Excitation energies and oscillator strengths:

 Excited State   1:      Singlet-A      2.3496 eV  527.68 nm  f=2.8046  <S**2>=0.000
     163 ->166         0.14089
     164 ->165         0.68930
 This state for optimization and/or second-order correction.
 Total Energy, E(TD-HF/TD-DFT) =  -1857.22045287
 Copying the excited state density for this state as the 1-particle RhoCI density.

 The electronic state is 1-A.
 Alpha  occ. eigenvalues --  -19.22668 -19.21955 -19.21183 -19.19981 -10.32747
 Alpha  occ. eigenvalues --  -10.32436 -10.31825 -10.31798 -10.30759 -10.28687
 Alpha  occ. eigenvalues --  -10.28042 -10.27907 -10.27824 -10.27752 -10.27596
 Alpha  occ. eigenvalues --  -10.27504 -10.27494 -10.27455 -10.27327 -10.27273
 Alpha  occ. eigenvalues --  -10.27140 -10.27055 -10.26902 -10.26589 -10.26568
 Alpha  occ. eigenvalues --  -10.26324 -10.26084 -10.26039 -10.25998 -10.25928
 Alpha  occ. eigenvalues --  -10.25926 -10.25729 -10.25708 -10.25704 -10.25609
 Alpha  occ. eigenvalues --  -10.25422 -10.25378 -10.25324 -10.25280 -10.24963
 Alpha  occ. eigenvalues --  -10.24961 -10.24660 -10.24145 -10.23578  -1.12511
 Alpha  occ. eigenvalues --   -1.09256  -1.08073  -1.07416  -0.92864  -0.92557
 Alpha  occ. eigenvalues --   -0.92246  -0.91608  -0.90822  -0.90314  -0.87742
 Alpha  occ. eigenvalues --   -0.86837  -0.86130  -0.85005  -0.83879  -0.83099
 Alpha  occ. eigenvalues --   -0.82384  -0.80326  -0.80248  -0.78821  -0.77166
 Alpha  occ. eigenvalues --   -0.77026  -0.76592  -0.76471  -0.76189  -0.75487
 Alpha  occ. eigenvalues --   -0.74990  -0.74855  -0.73909  -0.70391  -0.69853
 Alpha  occ. eigenvalues --   -0.68468  -0.67343  -0.64975  -0.64741  -0.64244
 Alpha  occ. eigenvalues --   -0.64037  -0.62369  -0.60945  -0.60670  -0.59683
 Alpha  occ. eigenvalues --   -0.59229  -0.58273  -0.57907  -0.56965  -0.56501
 Alpha  occ. eigenvalues --   -0.55980  -0.55637  -0.54793  -0.54518  -0.54478
 Alpha  occ. eigenvalues --   -0.53344  -0.52915  -0.52766  -0.52131  -0.51880
 Alpha  occ. eigenvalues --   -0.51764  -0.51593  -0.50117  -0.49764  -0.49267
 Alpha  occ. eigenvalues --   -0.49153  -0.48957  -0.48457  -0.48236  -0.47901
 Alpha  occ. eigenvalues --   -0.47812  -0.47635  -0.47490  -0.47262  -0.46493
 Alpha  occ. eigenvalues --   -0.46413  -0.46171  -0.46112  -0.45773  -0.45146
 Alpha  occ. eigenvalues --   -0.45116  -0.44920  -0.44589  -0.44448  -0.43742
 Alpha  occ. eigenvalues --   -0.43454  -0.43319  -0.42733  -0.42621  -0.42165
 Alpha  occ. eigenvalues --   -0.42032  -0.41904  -0.41649  -0.41569  -0.41205
 Alpha  occ. eigenvalues --   -0.40614  -0.40289  -0.40167  -0.40069  -0.39749
 Alpha  occ. eigenvalues --   -0.39598  -0.39203  -0.38806  -0.38619  -0.38511
 Alpha  occ. eigenvalues --   -0.38192  -0.37731  -0.37679  -0.37382  -0.37169
 Alpha  occ. eigenvalues --   -0.36605  -0.35907  -0.34908  -0.33911  -0.33625
 Alpha  occ. eigenvalues --   -0.33346  -0.32810  -0.31816  -0.31204  -0.30021
 Alpha  occ. eigenvalues --   -0.28671  -0.28211  -0.23750  -0.20308
 Alpha virt. eigenvalues --   -0.05613  -0.00581   0.03479   0.05884   0.07022
 Alpha virt. eigenvalues --    0.09873   0.10114   0.10186   0.10762   0.11023
 Alpha virt. eigenvalues --    0.12125   0.12423   0.12944   0.13920   0.14093

 Mulliken charges:
               1
     1  O   -0.512566
     2  O   -0.559159
     3  O   -0.591752
     4  O   -0.555939
     5  C    0.178378
     6  C    0.249296
     7  C    0.015711
     8  C   -0.197820
     9  C   -0.178333
    10  C    0.146896
    11  C   -0.336245
    12  C   -0.098681
    13  C   -0.284226
    14  C   -0.311970
    15  C   -0.103321
    16  C    0.031423
    17  C   -0.376193
    18  C   -0.079519
    19  C   -0.070901
    20  C    0.041286
    21  C    0.287541
    22  C   -0.189103
    23  C    0.136602
    24  C   -0.166233
    25  C   -0.073721
    26  C   -0.330232
    27  C   -0.311174
    28  C   -0.309873
    29  C   -0.091151
    30  C    0.180837
    31  C    0.120029
    32  C   -0.275054
    33  C   -0.396388
    34  C   -0.131949
    35  C    0.109646
    36  C   -0.378654
    37  C   -0.154445
    38  C   -0.041527
    39  C   -0.057578
    40  C   -0.110740
    41  C   -0.167651
    42  C   -0.167448
    43  C    0.209282
    44  C   -0.386577
    45  H    0.087568
    46  H    0.118193
    47  H    0.089338
    48  H    0.111472
    49  H    0.097631
    50  H    0.108463
    51  H    0.101419
    52  H    0.118391
    53  H    0.116800
    54  H    0.117192
    55  H    0.113136
    56  H    0.053713
    57  H    0.117377
    58  H    0.089972
    59  H    0.104128
    60  H    0.301827
    61  H    0.090904
    62  H    0.135328
    63  H    0.135593
    64  H    0.107351
    65  H    0.070663
    66  H    0.079342
    67  H    0.091376
    68  H    0.089896
    69  H    0.078020
    70  H    0.113215
    71  H    0.126162
    72  H    0.111349
    73  H    0.096458
    74  H    0.112308
    75  H    0.130152
    76  H    0.095499
    77  H    0.073280
    78  H    0.103687
    79  H    0.081752
    80  H    0.133740
    81  H    0.073739
    82  H    0.307019
    83  H    0.311866
    84  H    0.094902
    85  H    0.126123
    86  H    0.124337
    87  H    0.083088
    88  H    0.067363
    89  H    0.102635
    90  H    0.144392
    91  H    0.134264
    92  H    0.093414
    93  H    0.074170
    94  H    0.061917
    95  H    0.099876
    96  H    0.058851
    97  H    0.093909
    98  H    0.107433
    99  H    0.124301
   100  H    0.102900
 Sum of Mulliken charges =  -0.00000

 Dipole moment (field-independent basis, Debye):
    X=              4.6822    Y=             -0.6839    Z=              1.6416  Tot=              5.0085
 Quadrupole moment (field-independent basis, Debye-Ang):
   XX=           -281.2482   YY=           -261.4764   ZZ=           -273.1719
   XY=             -8.3084   XZ=             18.0552   YZ=             -0.4714

 Normal termination of Gaussian 16 at Thu Aug  1 18:29:34 2019.
