 Gaussian 16, Revision A.03,
 Gaussian 16:  ES64L-G16RevA.03 25-Dec-2016

 -------------------------------------
 # td=(NStates=1) CAM-B3LYP/6-31G(d,p)
 -------------------------------------

 --
 TD
 --
 Symbolic Z-matrix:
 Charge =  0 Multiplicity = 1

                         Standard orientation:
 ---------------------------------------------------------------------
 Center     Atomic      Atomic             Coordinates (Angstroms)
 Number     Number       Type             X           Y           Z
 ---------------------------------------------------------------------
      1          8           0       11.540208    0.116370    1.681154
      2          8           0       13.045467   -2.375787   -1.390051
      3          8           0      -10.438641   -1.144167    2.163235
      4          8           0      -14.548054   -1.098405    0.191893
      5          6           0       11.005582   -0.249365    0.345542
      6          6           0       11.523330   -1.235200    1.245546
      7          6           0       11.754040    0.430531   -0.798862
      8          6           0       12.938884   -1.829791    1.028244
      9          6           0       13.339267    0.031244   -0.697609
     10          6           0       13.618487   -1.495090   -0.388551
     11          6           0       10.754050   -2.060127    2.107083
     12          6           0        9.507250    0.062309    0.263443
     13          6           0       11.159239    0.109410   -2.187074
     14          6           0       11.762405    1.983064   -0.547301
     15          6           0        8.755961   -0.871002   -0.172553
     16          6           0        7.183983   -0.637803   -0.270839
     17          6           0        6.345819   -1.842814   -0.688940
     18          6           0        6.582397    0.545392    0.074768
     19          6           0        5.270658    0.844500   -0.081104
     20          6           0      -11.938813    0.081835   -1.156119
     21          6           0      -11.527827   -0.636256    1.359725
     22          6           0      -12.757195   -1.342070   -1.384803
     23          6           0      -13.420846   -1.772463   -0.139341
     24          6           0      -12.369829   -1.997999    1.057110
     25          6           0      -11.001471   -0.069633   -0.043375
     26          6           0      -11.032016    0.327971   -2.434111
     27          6           0      -12.933833    1.207226   -1.113655
     28          6           0      -12.384353    0.311904    2.277107
     29          6           0        4.676390    2.124075    0.315840
     30          6           0       -9.823982    0.520260   -0.003675
     31          6           0        3.363687    2.495595    0.546779
     32          6           0       -8.601700    1.082018    0.055375
     33          6           0        3.032284    3.944801    0.876093
     34          6           0        2.314269    1.646125    0.131538
     35          6           0       -7.402858    0.226670   -0.070509
     36          6           0       -7.685645   -1.252471   -0.585197
     37          6           0       -6.228025    0.865337   -0.034272
     38          6           0        0.938836    1.878383    0.246872
     39          6           0       -5.020433    0.156213   -0.280131
     40          6           0       -0.091239    0.916276    0.031710
     41          6           0       -3.869856    0.971144   -0.130291
     42          6           0       -1.481697    1.305117    0.142953
     43          6           0       -2.509858    0.469976   -0.141426
     44          6           0       -2.217317   -0.950665   -0.633545
     45          1           0       12.905951   -2.953116    1.092565
     46          1           0       13.397247   -1.639345    2.004524
     47          1           0       13.949129    0.391158   -1.582326
     48          1           0       14.034124    0.549212    0.019562
     49          1           0       14.712298   -1.552223   -0.291773
     50          1           0       10.607576   -3.217857    1.718027
     51          1           0       11.353237   -2.034257    3.046074
     52          1           0        9.767987   -1.681404    2.126931
     53          1           0        9.228381    1.087798    0.348113
     54          1           0       10.206801    0.320139   -2.400653
     55          1           0       11.904911    0.510212   -2.965067
     56          1           0       11.009275   -0.860457   -2.409537
     57          1           0       12.162628    2.221071    0.460225
     58          1           0       12.089304    2.410728   -1.566750
     59          1           0       10.653695    2.302918   -0.576996
     60          1           0       11.968209   -2.478009   -1.490363
     61          1           0        9.043541   -1.633732   -0.665061
     62          1           0        5.823944   -2.279520    0.246385
     63          1           0        5.537178   -1.584857   -1.289688
     64          1           0        6.873669   -2.719373   -1.067071
     65          1           0        7.222526    1.251782    0.526099
     66          1           0        4.674667    0.081235   -0.604167
     67          1           0      -13.302847   -1.299111   -2.235849
     68          1           0      -11.881790   -1.957242   -1.822630
     69          1           0      -13.588054   -3.041317   -0.233272
     70          1           0      -12.829031   -2.488381    1.791810
     71          1           0      -11.455565   -2.737467    0.881249
     72          1           0      -11.724002    0.385641   -3.335331
     73          1           0      -10.503206    1.181788   -2.571898
     74          1           0      -10.232992   -0.402131   -2.610841
     75          1           0      -13.482502    0.912006   -0.165266
     76          1           0      -12.301995    2.246487   -0.843899
     77          1           0      -13.573379    0.987555   -1.828847
     78          1           0      -12.465087   -0.114736    3.103599
     79          1           0      -11.730391    1.245187    2.546181
     80          1           0      -13.365415    0.593952    1.722525
     81          1           0        5.636917    2.826474    0.550344
     82          1           0       -9.641287   -0.366800    1.978533
     83          1           0      -15.161769   -0.955222   -0.667648
     84          1           0       -8.421167    2.089231    0.340078
     85          1           0        2.832305    4.587536    0.049524
     86          1           0        2.116797    3.915729    1.630154
     87          1           0        3.899241    4.449487    1.465425
     88          1           0        2.329501    0.769393   -0.135853
     89          1           0       -6.644600   -1.819065   -0.503908
     90          1           0       -8.424586   -1.739511    0.075423
     91          1           0       -8.101484   -1.383399   -1.745562
     92          1           0       -6.285102    1.865328    0.551158
     93          1           0        0.676027    2.707383    0.510436
     94          1           0       -5.006675   -0.862653   -0.559759
     95          1           0        0.191455   -0.055729   -0.444849
     96          1           0       -4.031080    1.944914    0.200405
     97          1           0       -1.695186    2.466926    0.433513
     98          1           0       -1.181256   -1.424680   -0.806483
     99          1           0       -3.060644   -1.600330   -0.163957
    100          1           0       -2.677422   -1.171185   -1.738075
 ---------------------------------------------------------------------

 SCF Done:  E(RCAM-B3LYP) =  -1857.15046518     A.U. after   15 cycles

 Excitation energies and oscillator strengths:

 Excited State   1:      Singlet-A      2.0818 eV  595.57 nm  f=2.7412  <S**2>=0.000
     163 ->166         0.12285
     164 ->165         0.70257
     164 <-165        -0.11564
 This state for optimization and/or second-order correction.
 Total Energy, E(TD-HF/TD-DFT) =  -1857.07396178
 Copying the excited state density for this state as the 1-particle RhoCI density.

 The electronic state is 1-A.
 Alpha  occ. eigenvalues --  -19.24497 -19.21695 -19.21546 -19.21227 -10.32769
 Alpha  occ. eigenvalues --  -10.32216 -10.32073 -10.31590 -10.31149 -10.28934
 Alpha  occ. eigenvalues --  -10.28419 -10.28401 -10.28322 -10.28132 -10.28117
 Alpha  occ. eigenvalues --  -10.28063 -10.28000 -10.27987 -10.27862 -10.27752
 Alpha  occ. eigenvalues --  -10.27628 -10.27618 -10.27449 -10.27030 -10.27030
 Alpha  occ. eigenvalues --  -10.26892 -10.26877 -10.26840 -10.26204 -10.26145
 Alpha  occ. eigenvalues --  -10.26094 -10.26073 -10.26045 -10.25789 -10.25741
 Alpha  occ. eigenvalues --  -10.25461 -10.25421 -10.25176 -10.25176 -10.24690
 Alpha  occ. eigenvalues --  -10.24489 -10.24335 -10.23943 -10.23715  -1.14624
 Alpha  occ. eigenvalues --   -1.12119  -1.06104  -1.05979  -0.92958  -0.92404
 Alpha  occ. eigenvalues --   -0.92058  -0.91465  -0.90305  -0.89624  -0.87356
 Alpha  occ. eigenvalues --   -0.86366  -0.86244  -0.84970  -0.83889  -0.82628
 Alpha  occ. eigenvalues --   -0.81715  -0.81114  -0.79997  -0.78111  -0.77622
 Alpha  occ. eigenvalues --   -0.77009  -0.76398  -0.76292  -0.75835  -0.75498
 Alpha  occ. eigenvalues --   -0.75200  -0.74549  -0.73346  -0.70566  -0.69255
 Alpha  occ. eigenvalues --   -0.68120  -0.67189  -0.66311  -0.65384  -0.64593
 Alpha  occ. eigenvalues --   -0.64543  -0.63399  -0.62256  -0.60827  -0.59906
 Alpha  occ. eigenvalues --   -0.59365  -0.58227  -0.57907  -0.56652  -0.56513
 Alpha  occ. eigenvalues --   -0.55860  -0.55704  -0.55554  -0.54370  -0.53793
 Alpha  occ. eigenvalues --   -0.53453  -0.53242  -0.52342  -0.52228  -0.51672
 Alpha  occ. eigenvalues --   -0.51393  -0.51238  -0.49852  -0.49527  -0.49366
 Alpha  occ. eigenvalues --   -0.49048  -0.48811  -0.48746  -0.48626  -0.48539
 Alpha  occ. eigenvalues --   -0.47683  -0.47515  -0.47432  -0.47255  -0.46688
 Alpha  occ. eigenvalues --   -0.46574  -0.46423  -0.46099  -0.45946  -0.45723
 Alpha  occ. eigenvalues --   -0.45144  -0.44670  -0.44559  -0.44488  -0.44170
 Alpha  occ. eigenvalues --   -0.43848  -0.43611  -0.43035  -0.42808  -0.42579
 Alpha  occ. eigenvalues --   -0.42430  -0.41970  -0.41481  -0.41181  -0.40817
 Alpha  occ. eigenvalues --   -0.40783  -0.40652  -0.40467  -0.40003  -0.39956
 Alpha  occ. eigenvalues --   -0.39569  -0.39348  -0.39262  -0.39118  -0.38732
 Alpha  occ. eigenvalues --   -0.38140  -0.37971  -0.37597  -0.37496  -0.36143
 Alpha  occ. eigenvalues --   -0.35988  -0.35937  -0.35581  -0.34810  -0.33588
 Alpha  occ. eigenvalues --   -0.32280  -0.31778  -0.31619  -0.31241  -0.31194
 Alpha  occ. eigenvalues --   -0.28955  -0.28339  -0.24521  -0.19454
 Alpha virt. eigenvalues --   -0.06459  -0.00884   0.03247   0.05746   0.06430
 Alpha virt. eigenvalues --    0.07493   0.07798   0.08835   0.09939   0.11982
 Alpha virt. eigenvalues --    0.12136   0.12643   0.12905   0.13354   0.13390

 Mulliken charges:
               1
     1  O   -0.514164
     2  O   -0.578825
     3  O   -0.578421
     4  O   -0.530930
     5  C    0.163841
     6  C    0.255644
     7  C    0.018813
     8  C   -0.216112
     9  C   -0.192281
    10  C    0.171387
    11  C   -0.306498
    12  C   -0.087310
    13  C   -0.305622
    14  C   -0.299887
    15  C   -0.037244
    16  C    0.031341
    17  C   -0.383631
    18  C   -0.077581
    19  C   -0.072216
    20  C   -0.026345
    21  C    0.227655
    22  C   -0.200896
    23  C    0.185350
    24  C   -0.180401
    25  C   -0.030401
    26  C   -0.318606
    27  C   -0.263182
    28  C   -0.272770
    29  C   -0.136401
    30  C    0.109270
    31  C    0.081253
    32  C   -0.260552
    33  C   -0.364604
    34  C   -0.025251
    35  C    0.081774
    36  C   -0.347430
    37  C   -0.096662
    38  C   -0.051560
    39  C   -0.084320
    40  C   -0.100076
    41  C   -0.116022
    42  C   -0.133285
    43  C    0.139262
    44  C   -0.381385
    45  H    0.099726
    46  H    0.110033
    47  H    0.085933
    48  H    0.097865
    49  H    0.108676
    50  H    0.072406
    51  H    0.117386
    52  H    0.123267
    53  H    0.116136
    54  H    0.117701
    55  H    0.106128
    56  H    0.083087
    57  H    0.143079
    58  H    0.101049
    59  H    0.077397
    60  H    0.319683
    61  H    0.064778
    62  H    0.119384
    63  H    0.129989
    64  H    0.107894
    65  H    0.076625
    66  H    0.078586
    67  H    0.089313
    68  H    0.105155
    69  H    0.019168
    70  H    0.115991
    71  H    0.107353
    72  H    0.072290
    73  H    0.119783
    74  H    0.097716
    75  H    0.106604
    76  H    0.091297
    77  H    0.101257
    78  H    0.128401
    79  H    0.068430
    80  H    0.110603
    81  H    0.068035
    82  H    0.298320
    83  H    0.326722
    84  H    0.110107
    85  H    0.140278
    86  H    0.105378
    87  H    0.103035
    88  H    0.032450
    89  H    0.086767
    90  H    0.140212
    91  H    0.105324
    92  H    0.090032
    93  H    0.030343
    94  H    0.094951
    95  H    0.082577
    96  H    0.085973
    97  H    0.081726
    98  H    0.124717
    99  H    0.110531
   100  H    0.097630
 Sum of Mulliken charges =  -0.00000

 Dipole moment (field-independent basis, Debye):
    X=             -1.6002    Y=              0.3395    Z=             -3.3637  Tot=              3.7404
 Quadrupole moment (field-independent basis, Debye-Ang):
   XX=           -280.8523   YY=           -263.3249   ZZ=           -279.8527
   XY=             -7.6791   XZ=             28.2053   YZ=              5.4695

 Normal termination of Gaussian 16 at Tue Jul 30 10:13:09 2019.
