 Gaussian 16, Revision A.03,
 Gaussian 16:  ES64L-G16RevA.03 25-Dec-2016

 -------------------------------------
 # td=(NStates=1) CAM-B3LYP/6-31G(d,p)
 -------------------------------------

 --
 TD
 --
 Symbolic Z-matrix:
 Charge =  0 Multiplicity = 1

                         Standard orientation:
 ---------------------------------------------------------------------
 Center     Atomic      Atomic             Coordinates (Angstroms)
 Number     Number       Type             X           Y           Z
 ---------------------------------------------------------------------
      1          8           0       11.795159    0.652234    1.348657
      2          8           0       12.900213   -2.900960   -0.750177
      3          8           0      -10.611138   -0.775730    2.173896
      4          8           0      -14.538704   -1.105751    0.072064
      5          6           0       11.092066   -0.012516    0.303756
      6          6           0       11.615074   -0.854558    1.350347
      7          6           0       11.785901    0.082888   -1.126581
      8          6           0       12.909061   -1.542923    1.250924
      9          6           0       13.271268   -0.353498   -1.049836
     10          6           0       13.509491   -1.648719   -0.214805
     11          6           0       10.778473   -1.267913    2.556615
     12          6           0        9.577160    0.295736    0.339401
     13          6           0       11.118159   -0.664734   -2.294522
     14          6           0       11.730695    1.609480   -1.426155
     15          6           0        8.757532   -0.595927   -0.204833
     16          6           0        7.261735   -0.547037   -0.348144
     17          6           0        6.461526   -1.662618   -0.482336
     18          6           0        6.695259    0.773613   -0.055940
     19          6           0        5.316097    0.911329    0.024578
     20          6           0      -11.817931   -0.045838   -1.320776
     21          6           0      -11.645162   -0.511806    1.325463
     22          6           0      -12.654098   -1.362398   -1.361482
     23          6           0      -13.298739   -1.884481   -0.177596
     24          6           0      -12.363991   -1.916737    1.042269
     25          6           0      -11.124463    0.143494   -0.019499
     26          6           0      -10.903859    0.107106   -2.558516
     27          6           0      -12.890244    1.103553   -1.492295
     28          6           0      -12.638535    0.507687    1.951984
     29          6           0        4.690889    2.192049    0.218841
     30          6           0       -9.860472    0.642880    0.081544
     31          6           0        3.329527    2.540568    0.251348
     32          6           0       -8.569684    1.184555    0.008444
     33          6           0        3.025371    4.071559    0.562551
     34          6           0        2.342965    1.585979    0.025774
     35          6           0       -7.467496    0.214503   -0.061682
     36          6           0       -7.668652   -1.333714   -0.030409
     37          6           0       -6.199857    0.775191    0.161460
     38          6           0        0.961545    1.821034    0.211078
     39          6           0       -4.987423   -0.016261   -0.104851
     40          6           0       -0.031850    0.778540    0.045077
     41          6           0       -3.802182    0.696055    0.069677
     42          6           0       -1.399526    1.112044    0.014188
     43          6           0       -2.510932    0.257780    0.039532
     44          6           0       -2.343653   -1.245316   -0.045340
     45          1           0       12.602505   -2.611806    1.624988
     46          1           0       13.447050   -0.998540    2.094922
     47          1           0       13.534245   -0.645597   -2.101584
     48          1           0       13.842902    0.499019   -0.537297
     49          1           0       14.587973   -1.866030   -0.323306
     50          1           0       10.350365   -2.340873    2.522373
     51          1           0       11.381312   -0.999095    3.705959
     52          1           0        9.983009   -0.635326    2.646135
     53          1           0        9.268016    1.063099    0.778756
     54          1           0       10.068004   -0.443742   -2.199702
     55          1           0       11.667848   -0.559012   -3.232241
     56          1           0       11.030628   -1.768286   -2.277223
     57          1           0       12.298351    2.336842   -0.719660
     58          1           0       12.194368    1.803015   -2.437371
     59          1           0       10.624093    2.051526   -1.343082
     60          1           0       11.936936   -2.820763   -0.723544
     61          1           0        9.141941   -1.530369   -0.316339
     62          1           0        6.110413   -2.006845    0.526046
     63          1           0        5.403134   -1.515232   -0.955955
     64          1           0        6.942804   -2.561747   -1.087948
     65          1           0        7.311456    1.650220    0.252489
     66          1           0        4.642849   -0.087704   -0.156399
     67          1           0      -13.427844   -1.117805   -2.184785
     68          1           0      -12.060764   -2.097295   -1.654770
     69          1           0      -13.800225   -2.878725   -0.238788
     70          1           0      -13.028920   -2.158032    1.800952
     71          1           0      -11.612802   -2.705795    0.876514
     72          1           0      -11.616146    0.238764   -3.487182
     73          1           0      -10.085085    0.948624   -2.283921
     74          1           0      -10.491830   -1.051119   -2.737377
     75          1           0      -13.550786    1.246673   -0.554479
     76          1           0      -12.133254    1.955923   -1.484566
     77          1           0      -13.619610    0.887170   -2.325411
     78          1           0      -12.972431    0.107208    2.977287
     79          1           0      -12.105747    1.522276    2.241876
     80          1           0      -13.423298    0.614337    1.424534
     81          1           0        5.341794    3.048401    0.429064
     82          1           0       -9.967503   -0.003608    2.220024
     83          1           0      -15.184459   -0.905122   -0.640496
     84          1           0       -8.465962    2.232546    0.315342
     85          1           0        2.399968    4.585956   -0.202950
     86          1           0        2.462879    4.068860    1.520322
     87          1           0        3.886028    4.755261    0.802263
     88          1           0        2.829917    0.657060   -0.317563
     89          1           0       -6.786683   -1.988984   -0.293455
     90          1           0       -8.305108   -1.535250    0.797369
     91          1           0       -8.272590   -1.592443   -1.083169
     92          1           0       -5.958385    1.729878    0.083551
     93          1           0        0.717610    2.986312    0.515269
     94          1           0       -5.099412   -1.006558   -0.394945
     95          1           0        0.188107   -0.159536   -0.016815
     96          1           0       -3.723768    1.647902    0.444420
     97          1           0       -1.864341    2.147641    0.168474
     98          1           0       -1.400277   -1.553509    0.061520
     99          1           0       -3.030438   -1.433967    0.891357
    100          1           0       -2.879335   -1.807908   -0.920518
 ---------------------------------------------------------------------

 SCF Done:  E(RCAM-B3LYP) =  -1857.25134051     A.U. after   16 cycles

 Excitation energies and oscillator strengths:

 Excited State   1:      Singlet-A      1.8804 eV  659.33 nm  f=2.9355  <S**2>=0.000
     163 ->166        -0.12970
     164 ->165         0.70155
     164 <-165        -0.11960
 This state for optimization and/or second-order correction.
 Total Energy, E(TD-HF/TD-DFT) =  -1857.18223546
 Copying the excited state density for this state as the 1-particle RhoCI density.

 The electronic state is 1-A.
 Alpha  occ. eigenvalues --  -19.21590 -19.21498 -19.21012 -19.19813 -10.32629
 Alpha  occ. eigenvalues --  -10.32347 -10.31977 -10.31788 -10.31298 -10.29222
 Alpha  occ. eigenvalues --  -10.28908 -10.28892 -10.28382 -10.28321 -10.28292
 Alpha  occ. eigenvalues --  -10.28133 -10.28066 -10.27981 -10.27925 -10.27834
 Alpha  occ. eigenvalues --  -10.27692 -10.27688 -10.27494 -10.27101 -10.27024
 Alpha  occ. eigenvalues --  -10.26912 -10.26810 -10.26763 -10.26702 -10.26533
 Alpha  occ. eigenvalues --  -10.26489 -10.26449 -10.26327 -10.26226 -10.26197
 Alpha  occ. eigenvalues --  -10.25780 -10.25689 -10.25451 -10.25388 -10.25062
 Alpha  occ. eigenvalues --  -10.24937 -10.24933 -10.24861 -10.23402  -1.13576
 Alpha  occ. eigenvalues --   -1.11019  -1.07439  -1.06637  -0.92899  -0.92482
 Alpha  occ. eigenvalues --   -0.92272  -0.90807  -0.90106  -0.89844  -0.87026
 Alpha  occ. eigenvalues --   -0.86480  -0.86123  -0.85677  -0.84522  -0.83216
 Alpha  occ. eigenvalues --   -0.82125  -0.80566  -0.79749  -0.78243  -0.76689
 Alpha  occ. eigenvalues --   -0.76425  -0.76370  -0.76226  -0.76016  -0.75714
 Alpha  occ. eigenvalues --   -0.73937  -0.73785  -0.72857  -0.70543  -0.69754
 Alpha  occ. eigenvalues --   -0.68574  -0.67175  -0.66299  -0.64824  -0.64128
 Alpha  occ. eigenvalues --   -0.64013  -0.63211  -0.61788  -0.59820  -0.59434
 Alpha  occ. eigenvalues --   -0.58615  -0.58282  -0.57795  -0.57295  -0.56528
 Alpha  occ. eigenvalues --   -0.55931  -0.55542  -0.54957  -0.54712  -0.54411
 Alpha  occ. eigenvalues --   -0.53150  -0.52777  -0.52363  -0.51991  -0.51798
 Alpha  occ. eigenvalues --   -0.51415  -0.50977  -0.50272  -0.50121  -0.49874
 Alpha  occ. eigenvalues --   -0.49532  -0.49188  -0.49143  -0.48802  -0.48521
 Alpha  occ. eigenvalues --   -0.48039  -0.47945  -0.47532  -0.47369  -0.46836
 Alpha  occ. eigenvalues --   -0.46299  -0.46240  -0.46120  -0.45504  -0.45376
 Alpha  occ. eigenvalues --   -0.45071  -0.44760  -0.44314  -0.44072  -0.43774
 Alpha  occ. eigenvalues --   -0.43692  -0.43571  -0.43317  -0.43181  -0.42555
 Alpha  occ. eigenvalues --   -0.42268  -0.41840  -0.41725  -0.41542  -0.41399
 Alpha  occ. eigenvalues --   -0.40381  -0.40284  -0.40233  -0.39647  -0.39445
 Alpha  occ. eigenvalues --   -0.39404  -0.38931  -0.38588  -0.38579  -0.38183
 Alpha  occ. eigenvalues --   -0.37894  -0.37880  -0.37581  -0.37321  -0.36383
 Alpha  occ. eigenvalues --   -0.36227  -0.35705  -0.35326  -0.34868  -0.33976
 Alpha  occ. eigenvalues --   -0.32528  -0.32014  -0.31840  -0.31796  -0.31077
 Alpha  occ. eigenvalues --   -0.29166  -0.27656  -0.23905  -0.18873
 Alpha virt. eigenvalues --   -0.07017  -0.01412   0.02519   0.05990   0.06017
 Alpha virt. eigenvalues --    0.08840   0.09454   0.09694   0.10699   0.11057
 Alpha virt. eigenvalues --    0.11718   0.12241   0.12471   0.13520   0.13770

 Mulliken charges:
               1
     1  O   -0.528521
     2  O   -0.566036
     3  O   -0.566993
     4  O   -0.608319
     5  C    0.226160
     6  C    0.195555
     7  C    0.024523
     8  C   -0.195238
     9  C   -0.190727
    10  C    0.146522
    11  C   -0.300982
    12  C   -0.070622
    13  C   -0.327135
    14  C   -0.305957
    15  C   -0.078976
    16  C    0.102721
    17  C   -0.407793
    18  C   -0.100497
    19  C   -0.073569
    20  C    0.001384
    21  C    0.278768
    22  C   -0.161628
    23  C    0.166970
    24  C   -0.194067
    25  C   -0.022510
    26  C   -0.282083
    27  C   -0.287967
    28  C   -0.293029
    29  C   -0.142177
    30  C    0.009497
    31  C    0.096136
    32  C   -0.223432
    33  C   -0.388085
    34  C   -0.088107
    35  C    0.075032
    36  C   -0.352194
    37  C   -0.091908
    38  C   -0.107281
    39  C   -0.080042
    40  C   -0.074656
    41  C   -0.114352
    42  C   -0.112874
    43  C    0.087853
    44  C   -0.350599
    45  H    0.103987
    46  H    0.123073
    47  H    0.104048
    48  H    0.113904
    49  H    0.111418
    50  H    0.100722
    51  H    0.077266
    52  H    0.132629
    53  H    0.076007
    54  H    0.121524
    55  H    0.115716
    56  H    0.086315
    57  H    0.113536
    58  H    0.095772
    59  H    0.090247
    60  H    0.301794
    61  H    0.065706
    62  H    0.138990
    63  H    0.118279
    64  H    0.102913
    65  H    0.096418
    66  H    0.072974
    67  H    0.067423
    68  H    0.096564
    69  H    0.092839
    70  H    0.126779
    71  H    0.119530
    72  H    0.095683
    73  H    0.117686
    74  H    0.074057
    75  H    0.107639
    76  H    0.094627
    77  H    0.088590
    78  H    0.092043
    79  H    0.072079
    80  H    0.139409
    81  H    0.080867
    82  H    0.310141
    83  H    0.308850
    84  H    0.126489
    85  H    0.127236
    86  H    0.124900
    87  H    0.111919
    88  H    0.079015
    89  H    0.118146
    90  H    0.150765
    91  H    0.090357
    92  H    0.087293
    93  H    0.091538
    94  H    0.085444
    95  H    0.079512
    96  H    0.073299
    97  H    0.064002
    98  H    0.104955
    99  H    0.108461
   100  H    0.105861
 Sum of Mulliken charges =  -0.00000

 Dipole moment (field-independent basis, Debye):
    X=             -2.6327    Y=             -0.2678    Z=             -1.4433  Tot=              3.0143
 Quadrupole moment (field-independent basis, Debye-Ang):
   XX=           -295.5197   YY=           -262.6968   ZZ=           -278.0585
   XY=              8.8303   XZ=             25.5157   YZ=              5.7557

 Normal termination of Gaussian 16 at Thu Aug  1 11:58:06 2019.
