 Gaussian 16, Revision A.03,
 Gaussian 16:  ES64L-G16RevA.03 25-Dec-2016

 -------------------------------------
 # td=(NStates=1) CAM-B3LYP/6-31G(d,p)
 -------------------------------------

 --
 TD
 --
 Symbolic Z-matrix:
 Charge =  0 Multiplicity = 1

                         Standard orientation:
 ---------------------------------------------------------------------
 Center     Atomic      Atomic             Coordinates (Angstroms)
 Number     Number       Type             X           Y           Z
 ---------------------------------------------------------------------
      1          8           0      -11.664973    0.200014   -1.535034
      2          8           0      -12.982497   -2.591671    1.288283
      3          8           0       10.611318   -1.210340   -1.968147
      4          8           0       14.401808   -1.254541    0.036387
      5          6           0      -11.059147   -0.173219   -0.239329
      6          6           0      -11.643739   -1.193506   -1.219487
      7          6           0      -11.732474    0.346575    1.026481
      8          6           0      -13.049408   -1.679163   -0.994590
      9          6           0      -13.203836   -0.067673    0.967537
     10          6           0      -13.554516   -1.517479    0.399902
     11          6           0      -10.722274   -2.056045   -2.124041
     12          6           0       -9.557367    0.001921   -0.274348
     13          6           0      -11.124417   -0.228402    2.274524
     14          6           0      -11.757853    1.880545    0.911410
     15          6           0       -8.606126   -0.812291    0.187376
     16          6           0       -7.196559   -0.507723    0.251373
     17          6           0       -6.329878   -1.687460    0.447246
     18          6           0       -6.660722    0.701947   -0.034769
     19          6           0       -5.289902    0.948667   -0.119584
     20          6           0       11.884638    0.148554    1.386579
     21          6           0       11.687681   -0.675226   -1.167061
     22          6           0       12.578160   -1.249394    1.606629
     23          6           0       13.228244   -1.879018    0.415374
     24          6           0       12.456593   -1.950597   -0.883891
     25          6           0       11.148295    0.044651    0.044782
     26          6           0       10.940944    0.304518    2.547177
     27          6           0       12.928393    1.289635    1.359085
     28          6           0       12.563561    0.360764   -1.966207
     29          6           0       -4.669192    2.153850   -0.274808
     30          6           0        9.887747    0.460395    0.020878
     31          6           0       -3.349305    2.588939   -0.402720
     32          6           0        8.666918    0.907401   -0.274611
     33          6           0       -3.136431    4.052322   -0.624524
     34          6           0       -2.327578    1.622336   -0.247331
     35          6           0        7.447277    0.066048   -0.105957
     36          6           0        7.563717   -1.329275    0.283414
     37          6           0        6.253011    0.685624   -0.188330
     38          6           0       -0.977156    1.939408   -0.490675
     39          6           0        4.956198    0.225045   -0.047236
     40          6           0        0.114608    1.123321   -0.337693
     41          6           0        3.788591    1.036948   -0.270745
     42          6           0        1.445557    1.396617   -0.396275
     43          6           0        2.501092    0.474167   -0.218461
     44          6           0        2.288256   -0.973580    0.045153
     45          1           0      -13.136165   -2.758353   -1.198182
     46          1           0      -13.561777   -1.178807   -1.631169
     47          1           0      -13.673058   -0.138237    1.983054
     48          1           0      -13.767588    0.649310    0.325570
     49          1           0      -14.560656   -1.682325    0.553576
     50          1           0      -10.498069   -2.866121   -1.489583
     51          1           0      -11.263686   -2.492676   -3.009866
     52          1           0       -9.825563   -1.508228   -2.312647
     53          1           0       -8.940636    0.928499   -0.649680
     54          1           0       -9.987650    0.019723    2.247194
     55          1           0      -11.708300   -0.174385    3.268683
     56          1           0      -10.948656   -1.389305    2.066143
     57          1           0      -12.249182    2.067291    0.013442
     58          1           0      -12.460755    2.260878    1.716114
     59          1           0      -10.865320    2.328148    1.117739
     60          1           0      -12.003854   -2.493358    1.163238
     61          1           0       -9.007655   -1.793172    0.503099
     62          1           0       -5.868012   -2.133777   -0.465484
     63          1           0       -5.645362   -1.576454    1.216370
     64          1           0       -6.828020   -2.528630    0.855221
     65          1           0       -7.214627    1.651797   -0.117686
     66          1           0       -4.596493    0.084693   -0.108379
     67          1           0       13.309362   -1.285754    2.359426
     68          1           0       11.845087   -2.106522    1.879351
     69          1           0       13.416316   -2.975958    0.607506
     70          1           0       13.342608   -2.184404   -1.674707
     71          1           0       11.849720   -2.977185   -0.894061
     72          1           0       11.319329    0.319008    3.668992
     73          1           0       10.469384    1.363834    2.507760
     74          1           0       10.017804   -0.416064    2.476705
     75          1           0       13.687988    0.917060    0.601902
     76          1           0       12.459395    2.346956    1.005579
     77          1           0       13.367595    1.384687    2.339823
     78          1           0       12.829996    0.122990   -3.030783
     79          1           0       11.907645    1.105198   -2.113110
     80          1           0       13.486845    0.498260   -1.741511
     81          1           0       -5.255624    3.083234   -0.096689
     82          1           0        9.939543   -0.371736   -2.301233
     83          1           0       14.925604   -1.142241    0.656405
     84          1           0        8.669829    1.867759   -0.664068
     85          1           0       -2.658719    4.524163    0.423528
     86          1           0       -2.268829    4.307797   -1.365552
     87          1           0       -4.217215    4.419837   -0.977061
     88          1           0       -2.782050    0.827412    0.234499
     89          1           0        6.571372   -1.888861    0.493626
     90          1           0        8.194740   -1.803680   -0.501392
     91          1           0        8.531126   -1.331090    1.119875
     92          1           0        6.302014    1.838386   -0.332732
     93          1           0       -0.690313    3.048278   -0.556236
     94          1           0        4.840179   -0.942940    0.317108
     95          1           0       -0.360189    0.051348    0.021735
     96          1           0        3.914512    2.017179   -0.672961
     97          1           0        1.880841    2.378092   -0.400963
     98          1           0        1.142355   -1.270904   -0.253522
     99          1           0        2.894604   -1.601458   -0.547752
    100          1           0        2.513368   -1.227777    1.158348
 ---------------------------------------------------------------------

 SCF Done:  E(RCAM-B3LYP) =  -1857.30756510     A.U. after   15 cycles

 Excitation energies and oscillator strengths:

 Excited State   1:      Singlet-A      2.0722 eV  598.31 nm  f=3.1402  <S**2>=0.000
     163 ->166        -0.13314
     164 ->165         0.69663
 This state for optimization and/or second-order correction.
 Total Energy, E(TD-HF/TD-DFT) =  -1857.23141180
 Copying the excited state density for this state as the 1-particle RhoCI density.

 The electronic state is 1-A.
 Alpha  occ. eigenvalues --  -19.22147 -19.21905 -19.20658 -19.20578 -10.32856
 Alpha  occ. eigenvalues --  -10.32507 -10.32467 -10.30447 -10.30110 -10.28877
 Alpha  occ. eigenvalues --  -10.28572 -10.28143 -10.27829 -10.27779 -10.27601
 Alpha  occ. eigenvalues --  -10.27514 -10.27415 -10.27411 -10.27364 -10.27314
 Alpha  occ. eigenvalues --  -10.27021 -10.27010 -10.26938 -10.26779 -10.26751
 Alpha  occ. eigenvalues --  -10.26713 -10.26674 -10.26647 -10.26360 -10.26267
 Alpha  occ. eigenvalues --  -10.26257 -10.26208 -10.26130 -10.26073 -10.25988
 Alpha  occ. eigenvalues --  -10.25961 -10.25948 -10.25658 -10.25428 -10.25311
 Alpha  occ. eigenvalues --  -10.24610 -10.24061 -10.23571 -10.22552  -1.14832
 Alpha  occ. eigenvalues --   -1.14117  -1.06950  -1.06440  -0.93363  -0.93012
 Alpha  occ. eigenvalues --   -0.92313  -0.91775  -0.91248  -0.90738  -0.87438
 Alpha  occ. eigenvalues --   -0.87150  -0.86378  -0.85765  -0.85123  -0.83393
 Alpha  occ. eigenvalues --   -0.82497  -0.81030  -0.80822  -0.78672  -0.77636
 Alpha  occ. eigenvalues --   -0.77260  -0.76654  -0.76621  -0.76395  -0.76283
 Alpha  occ. eigenvalues --   -0.75338  -0.74453  -0.73265  -0.70924  -0.70184
 Alpha  occ. eigenvalues --   -0.69025  -0.67534  -0.64958  -0.64757  -0.64508
 Alpha  occ. eigenvalues --   -0.63703  -0.62273  -0.60177  -0.59778  -0.59061
 Alpha  occ. eigenvalues --   -0.58695  -0.58522  -0.57779  -0.56766  -0.56450
 Alpha  occ. eigenvalues --   -0.56108  -0.55882  -0.55506  -0.55228  -0.54336
 Alpha  occ. eigenvalues --   -0.53603  -0.53392  -0.53173  -0.52105  -0.51743
 Alpha  occ. eigenvalues --   -0.51270  -0.51168  -0.50881  -0.50641  -0.49860
 Alpha  occ. eigenvalues --   -0.49720  -0.49422  -0.49223  -0.48884  -0.48598
 Alpha  occ. eigenvalues --   -0.47923  -0.47801  -0.47529  -0.47314  -0.47066
 Alpha  occ. eigenvalues --   -0.46831  -0.46634  -0.46126  -0.45919  -0.45396
 Alpha  occ. eigenvalues --   -0.44501  -0.44387  -0.44359  -0.43783  -0.43752
 Alpha  occ. eigenvalues --   -0.43676  -0.43371  -0.43098  -0.42824  -0.42629
 Alpha  occ. eigenvalues --   -0.42210  -0.42119  -0.41868  -0.41492  -0.41387
 Alpha  occ. eigenvalues --   -0.40787  -0.40676  -0.40544  -0.39826  -0.39379
 Alpha  occ. eigenvalues --   -0.39176  -0.39068  -0.38954  -0.38735  -0.38418
 Alpha  occ. eigenvalues --   -0.38067  -0.37982  -0.37924  -0.37873  -0.37040
 Alpha  occ. eigenvalues --   -0.36789  -0.36515  -0.35588  -0.34217  -0.33865
 Alpha  occ. eigenvalues --   -0.32960  -0.32497  -0.32302  -0.31764  -0.31057
 Alpha  occ. eigenvalues --   -0.30010  -0.28386  -0.24484  -0.19304
 Alpha virt. eigenvalues --   -0.06388  -0.01108   0.03418   0.05869   0.06690
 Alpha virt. eigenvalues --    0.09342   0.09787   0.10131   0.10809   0.11315
 Alpha virt. eigenvalues --    0.11942   0.12146   0.12372   0.13056   0.13702

 Mulliken charges:
               1
     1  O   -0.511660
     2  O   -0.568271
     3  O   -0.577233
     4  O   -0.487673
     5  C    0.187585
     6  C    0.207392
     7  C    0.032613
     8  C   -0.175041
     9  C   -0.198677
    10  C    0.124556
    11  C   -0.327607
    12  C   -0.108858
    13  C   -0.303114
    14  C   -0.301727
    15  C   -0.078346
    16  C    0.085654
    17  C   -0.386089
    18  C   -0.113732
    19  C   -0.078231
    20  C    0.022358
    21  C    0.275155
    22  C   -0.186128
    23  C    0.133168
    24  C   -0.189935
    25  C   -0.033185
    26  C   -0.304927
    27  C   -0.302490
    28  C   -0.298225
    29  C   -0.139938
    30  C    0.098653
    31  C    0.112874
    32  C   -0.255552
    33  C   -0.365940
    34  C   -0.098057
    35  C    0.137728
    36  C   -0.379391
    37  C   -0.102686
    38  C   -0.100092
    39  C   -0.100315
    40  C   -0.080542
    41  C   -0.134013
    42  C   -0.126561
    43  C    0.140781
    44  C   -0.370799
    45  H    0.105625
    46  H    0.128148
    47  H    0.100474
    48  H    0.098445
    49  H    0.108335
    50  H    0.112249
    51  H    0.112966
    52  H    0.133848
    53  H    0.089889
    54  H    0.107189
    55  H    0.121446
    56  H    0.059227
    57  H    0.135985
    58  H    0.090950
    59  H    0.108869
    60  H    0.299637
    61  H    0.067000
    62  H    0.126997
    63  H    0.126857
    64  H    0.109818
    65  H    0.093452
    66  H    0.083412
    67  H    0.093475
    68  H    0.095543
    69  H    0.067275
    70  H    0.110601
    71  H    0.100013
    72  H    0.091069
    73  H    0.093356
    74  H    0.101722
    75  H    0.116987
    76  H    0.090955
    77  H    0.103975
    78  H    0.093266
    79  H    0.094277
    80  H    0.134150
    81  H    0.064893
    82  H    0.295042
    83  H    0.264861
    84  H    0.116887
    85  H    0.108272
    86  H    0.120957
    87  H    0.104518
    88  H    0.088045
    89  H    0.109484
    90  H    0.146063
    91  H    0.094078
    92  H    0.067965
    93  H    0.072889
    94  H    0.071358
    95  H    0.070940
    96  H    0.094544
    97  H    0.083967
    98  H    0.096001
    99  H    0.129763
   100  H    0.118510
 Sum of Mulliken charges =  -0.00000

 Dipole moment (field-independent basis, Debye):
    X=              3.9665    Y=              0.5795    Z=              1.9437  Tot=              4.4550
 Quadrupole moment (field-independent basis, Debye-Ang):
   XX=           -260.9583   YY=           -264.5136   ZZ=           -276.7247
   XY=              2.5417   XZ=             23.1041   YZ=             -1.1448

 Normal termination of Gaussian 16 at Mon Jul 29 03:45:40 2019.
