 Gaussian 16, Revision A.03,
 Gaussian 16:  ES64L-G16RevA.03 25-Dec-2016

 -------------------------------------
 # td=(NStates=1) CAM-B3LYP/6-31G(d,p)
 -------------------------------------

 --
 TD
 --
 Symbolic Z-matrix:
 Charge =  0 Multiplicity = 1

                         Standard orientation:
 ---------------------------------------------------------------------
 Center     Atomic      Atomic             Coordinates (Angstroms)
 Number     Number       Type             X           Y           Z
 ---------------------------------------------------------------------
      1          8           0      -11.676327    0.176566   -1.554850
      2          8           0      -13.322810   -2.290526    1.468818
      3          8           0       10.623793   -0.832094   -2.118171
      4          8           0       14.435541   -1.071195   -0.134679
      5          6           0      -11.079959   -0.174121   -0.271566
      6          6           0      -11.648992   -1.230950   -1.210768
      7          6           0      -11.842570    0.346767    0.868720
      8          6           0      -13.069321   -1.741638   -0.847955
      9          6           0      -13.274778    0.133743    0.729303
     10          6           0      -13.675980   -1.322746    0.407469
     11          6           0      -10.940084   -2.042496   -2.129025
     12          6           0       -9.597063   -0.037334   -0.334145
     13          6           0      -11.155986   -0.114781    2.210761
     14          6           0      -11.588324    1.949301    0.858781
     15          6           0       -8.642568   -0.820227    0.100886
     16          6           0       -7.169850   -0.591563    0.037186
     17          6           0       -6.343349   -1.791981    0.415213
     18          6           0       -6.632826    0.576931   -0.089113
     19          6           0       -5.293104    0.913571   -0.106137
     20          6           0       11.905166    0.054769    1.379321
     21          6           0       11.661617   -0.536307   -1.200992
     22          6           0       12.717789   -1.286529    1.392735
     23          6           0       13.302303   -1.863102    0.189411
     24          6           0       12.453407   -1.946848   -0.999612
     25          6           0       11.114291    0.004794    0.062503
     26          6           0       11.112035    0.173622    2.574844
     27          6           0       13.082384    1.156833    1.281427
     28          6           0       12.649917    0.520093   -1.942850
     29          6           0       -4.752063    2.118274   -0.414069
     30          6           0        9.958452    0.546194   -0.043479
     31          6           0       -3.364090    2.535755   -0.393079
     32          6           0        8.698522    0.937887   -0.149717
     33          6           0       -3.089177    3.958463   -0.715164
     34          6           0       -2.351021    1.555508   -0.167249
     35          6           0        7.475550    0.084917    0.072139
     36          6           0        7.606346   -1.362791    0.334827
     37          6           0        6.327538    0.719236   -0.050316
     38          6           0       -0.892649    1.805834   -0.191425
     39          6           0        4.983063    0.153107    0.065294
     40          6           0        0.047272    0.909898   -0.070452
     41          6           0        3.869508    0.848453   -0.094734
     42          6           0        1.357401    1.172408   -0.153176
     43          6           0        2.444601    0.229322   -0.113228
     44          6           0        2.254040   -1.124424    0.146420
     45          1           0      -13.040226   -2.819895   -0.954002
     46          1           0      -13.622420   -1.234967   -1.555223
     47          1           0      -13.779297    0.372185    1.715288
     48          1           0      -13.692867    0.859940   -0.072758
     49          1           0      -14.815311   -1.252314    0.498935
     50          1           0      -10.282198   -2.825058   -1.494411
     51          1           0      -11.676465   -2.193736   -2.692333
     52          1           0      -10.149537   -1.490172   -2.635427
     53          1           0       -9.282747    0.841460   -0.740538
     54          1           0      -10.206353    0.358516    2.409094
     55          1           0      -11.796981    0.096195    3.036025
     56          1           0      -10.908475   -1.311635    2.356883
     57          1           0      -12.119707    2.380728   -0.101846
     58          1           0      -11.992352    2.508797    1.808524
     59          1           0      -10.446889    2.073316    0.946346
     60          1           0      -12.426763   -2.268210    1.407997
     61          1           0       -8.877640   -1.684928    0.730007
     62          1           0       -5.544628   -2.232859   -0.246989
     63          1           0       -5.680809   -1.604414    1.163643
     64          1           0       -7.015544   -2.560023    0.636903
     65          1           0       -7.299792    1.439744   -0.187764
     66          1           0       -4.736918    0.029727    0.135532
     67          1           0       13.466764   -1.204298    2.245674
     68          1           0       11.894471   -1.927482    1.758174
     69          1           0       13.607275   -2.779300    0.429713
     70          1           0       12.900985   -2.275847   -1.943510
     71          1           0       11.619468   -2.609193   -0.879447
     72          1           0       11.755855    0.172061    3.400932
     73          1           0       10.650764    1.147876    2.505439
     74          1           0       10.267566   -0.525079    2.504553
     75          1           0       13.708884    1.078694    0.413933
     76          1           0       12.665616    2.386152    1.429599
     77          1           0       14.033447    1.034341    1.979182
     78          1           0       12.974721    0.311168   -3.107802
     79          1           0       12.042413    1.570528   -2.184910
     80          1           0       13.460342    0.840773   -1.284040
     81          1           0       -5.486254    3.022632   -0.587910
     82          1           0        9.846517   -0.194290   -2.045628
     83          1           0       15.060978   -1.056471    0.685394
     84          1           0        8.711549    2.009246   -0.340234
     85          1           0       -2.483207    4.605615    0.010433
     86          1           0       -2.405462    3.999751   -1.633754
     87          1           0       -4.045719    4.334173   -0.799773
     88          1           0       -2.531426    0.589324    0.122963
     89          1           0        6.603050   -1.759933    0.336068
     90          1           0        8.268879   -1.666916   -0.495868
     91          1           0        8.036308   -1.386546    1.277290
     92          1           0        6.349676    1.759393   -0.144750
     93          1           0       -0.627199    2.795236   -0.510985
     94          1           0        5.189926   -1.036521    0.218531
     95          1           0       -0.333640    0.006654   -0.285084
     96          1           0        3.704317    1.804453   -0.212146
     97          1           0        1.867293    2.086919   -0.203588
     98          1           0        1.065172   -1.584793    0.642756
     99          1           0        2.644613   -1.922727   -0.499652
    100          1           0        2.723723   -1.477045    1.111682
 ---------------------------------------------------------------------

 SCF Done:  E(RCAM-B3LYP) =  -1857.26924600     A.U. after   14 cycles

 Excitation energies and oscillator strengths:

 Excited State   1:      Singlet-A      2.5658 eV  483.23 nm  f=2.6276  <S**2>=0.000
     163 ->166         0.13048
     164 ->165         0.69328
 This state for optimization and/or second-order correction.
 Total Energy, E(TD-HF/TD-DFT) =  -1857.17495617
 Copying the excited state density for this state as the 1-particle RhoCI density.

 The electronic state is 1-A.
 Alpha  occ. eigenvalues --  -19.21714 -19.21646 -19.20215 -19.20158 -10.32416
 Alpha  occ. eigenvalues --  -10.31587 -10.31465 -10.30809 -10.29380 -10.28715
 Alpha  occ. eigenvalues --  -10.28240 -10.27941 -10.27907 -10.27877 -10.27700
 Alpha  occ. eigenvalues --  -10.27686 -10.27676 -10.27273 -10.27252 -10.27093
 Alpha  occ. eigenvalues --  -10.26939 -10.26877 -10.26742 -10.26703 -10.26449
 Alpha  occ. eigenvalues --  -10.26394 -10.26165 -10.26140 -10.25942 -10.25815
 Alpha  occ. eigenvalues --  -10.25773 -10.25744 -10.25678 -10.25660 -10.25394
 Alpha  occ. eigenvalues --  -10.25304 -10.25045 -10.25039 -10.24817 -10.24756
 Alpha  occ. eigenvalues --  -10.24724 -10.24615 -10.24252 -10.24168  -1.14156
 Alpha  occ. eigenvalues --   -1.09605  -1.09583  -1.08364  -0.93916  -0.93214
 Alpha  occ. eigenvalues --   -0.92725  -0.92048  -0.91673  -0.90315  -0.88917
 Alpha  occ. eigenvalues --   -0.88345  -0.86823  -0.86418  -0.86065  -0.83986
 Alpha  occ. eigenvalues --   -0.83411  -0.82421  -0.81036  -0.79024  -0.78103
 Alpha  occ. eigenvalues --   -0.77612  -0.77600  -0.77096  -0.76108  -0.75292
 Alpha  occ. eigenvalues --   -0.74481  -0.73982  -0.73698  -0.71156  -0.69808
 Alpha  occ. eigenvalues --   -0.68949  -0.67534  -0.65581  -0.65128  -0.64714
 Alpha  occ. eigenvalues --   -0.63952  -0.62695  -0.61883  -0.60267  -0.60102
 Alpha  occ. eigenvalues --   -0.59260  -0.59035  -0.58615  -0.58133  -0.57720
 Alpha  occ. eigenvalues --   -0.57125  -0.56554  -0.56532  -0.55959  -0.54734
 Alpha  occ. eigenvalues --   -0.54168  -0.53828  -0.53581  -0.53211  -0.52903
 Alpha  occ. eigenvalues --   -0.52145  -0.51218  -0.51190  -0.50754  -0.50278
 Alpha  occ. eigenvalues --   -0.49952  -0.49335  -0.49011  -0.48463  -0.48178
 Alpha  occ. eigenvalues --   -0.48162  -0.47937  -0.47803  -0.47508  -0.47300
 Alpha  occ. eigenvalues --   -0.47153  -0.47008  -0.46457  -0.46145  -0.45934
 Alpha  occ. eigenvalues --   -0.45737  -0.45461  -0.44838  -0.44245  -0.44092
 Alpha  occ. eigenvalues --   -0.43983  -0.43528  -0.43425  -0.43248  -0.42643
 Alpha  occ. eigenvalues --   -0.42397  -0.41879  -0.41805  -0.41742  -0.41254
 Alpha  occ. eigenvalues --   -0.40801  -0.40438  -0.40244  -0.39876  -0.39832
 Alpha  occ. eigenvalues --   -0.39653  -0.39521  -0.39421  -0.39037  -0.38682
 Alpha  occ. eigenvalues --   -0.38429  -0.38299  -0.38260  -0.37139  -0.36499
 Alpha  occ. eigenvalues --   -0.36233  -0.35513  -0.35436  -0.34656  -0.33932
 Alpha  occ. eigenvalues --   -0.32863  -0.32590  -0.31857  -0.31821  -0.30458
 Alpha  occ. eigenvalues --   -0.29756  -0.28448  -0.25642  -0.20920
 Alpha virt. eigenvalues --   -0.05005   0.00095   0.03421   0.06516   0.06720
 Alpha virt. eigenvalues --    0.09321   0.10180   0.10476   0.10798   0.11831
 Alpha virt. eigenvalues --    0.12262   0.12759   0.12964   0.13754   0.13985

 Mulliken charges:
               1
     1  O   -0.524628
     2  O   -0.545650
     3  O   -0.596173
     4  O   -0.557087
     5  C    0.229960
     6  C    0.205397
     7  C    0.015157
     8  C   -0.197163
     9  C   -0.193131
    10  C    0.114279
    11  C   -0.306485
    12  C   -0.102761
    13  C   -0.312764
    14  C   -0.307876
    15  C   -0.089189
    16  C    0.088973
    17  C   -0.394844
    18  C   -0.098011
    19  C   -0.044984
    20  C    0.030757
    21  C    0.271536
    22  C   -0.203233
    23  C    0.191496
    24  C   -0.196379
    25  C   -0.053092
    26  C   -0.302495
    27  C   -0.287305
    28  C   -0.279773
    29  C   -0.139976
    30  C    0.101060
    31  C    0.094717
    32  C   -0.278275
    33  C   -0.368193
    34  C   -0.120833
    35  C    0.078091
    36  C   -0.343452
    37  C   -0.072984
    38  C   -0.076174
    39  C   -0.092250
    40  C   -0.059208
    41  C   -0.082513
    42  C   -0.110334
    43  C    0.112014
    44  C   -0.396340
    45  H    0.113708
    46  H    0.129571
    47  H    0.099747
    48  H    0.109378
    49  H    0.100508
    50  H    0.100564
    51  H    0.121202
    52  H    0.132239
    53  H    0.099061
    54  H    0.120082
    55  H    0.121350
    56  H    0.061259
    57  H    0.114945
    58  H    0.094615
    59  H    0.096696
    60  H    0.292563
    61  H    0.076969
    62  H    0.113466
    63  H    0.136190
    64  H    0.110243
    65  H    0.069956
    66  H    0.073976
    67  H    0.076223
    68  H    0.085988
    69  H    0.089711
    70  H    0.125266
    71  H    0.115341
    72  H    0.112436
    73  H    0.113960
    74  H    0.105478
    75  H    0.133944
    76  H    0.053812
    77  H    0.063806
    78  H    0.091458
    79  H    0.048931
    80  H    0.126702
    81  H    0.074478
    82  H    0.308828
    83  H    0.303064
    84  H    0.118960
    85  H    0.120245
    86  H    0.125359
    87  H    0.114861
    88  H    0.074386
    89  H    0.103909
    90  H    0.133729
    91  H    0.136868
    92  H    0.073844
    93  H    0.069128
    94  H    0.070048
    95  H    0.091917
    96  H    0.072260
    97  H    0.067806
    98  H    0.057596
    99  H    0.127022
   100  H    0.124468
 Sum of Mulliken charges =  -0.00000

 Dipole moment (field-independent basis, Debye):
    X=              2.1918    Y=             -0.1127    Z=              2.7518  Tot=              3.5198
 Quadrupole moment (field-independent basis, Debye-Ang):
   XX=           -289.5888   YY=           -260.3918   ZZ=           -280.1412
   XY=            -15.0427   XZ=             37.9313   YZ=             -1.4738

 Normal termination of Gaussian 16 at Wed Jul 31 18:08:55 2019.
