 Gaussian 16, Revision A.03,
 Gaussian 16:  ES64L-G16RevA.03 25-Dec-2016

 -------------------------------------
 # td=(NStates=1) CAM-B3LYP/6-31G(d,p)
 -------------------------------------

 --
 TD
 --
 Symbolic Z-matrix:
 Charge =  0 Multiplicity = 1

                         Standard orientation:
 ---------------------------------------------------------------------
 Center     Atomic      Atomic             Coordinates (Angstroms)
 Number     Number       Type             X           Y           Z
 ---------------------------------------------------------------------
      1          8           0      -11.706295    0.190643   -1.505468
      2          8           0      -13.050283   -2.424320    1.515771
      3          8           0       10.626558   -0.889869   -2.065174
      4          8           0       14.484049   -1.012687   -0.001370
      5          6           0      -11.042759   -0.078041   -0.311621
      6          6           0      -11.607223   -1.232333   -1.227308
      7          6           0      -11.812921    0.361227    0.932665
      8          6           0      -12.999166   -1.641600   -0.895976
      9          6           0      -13.296843   -0.019783    0.943673
     10          6           0      -13.542238   -1.455554    0.579712
     11          6           0      -10.788732   -2.132663   -2.062402
     12          6           0       -9.535561   -0.017352   -0.382989
     13          6           0      -11.180960   -0.218465    2.243623
     14          6           0      -11.578860    1.952878    0.993159
     15          6           0       -8.552839   -0.762683    0.210220
     16          6           0       -7.100748   -0.641486    0.112194
     17          6           0       -6.235141   -1.779870    0.237779
     18          6           0       -6.491365    0.617011    0.085998
     19          6           0       -5.153658    0.901733   -0.261722
     20          6           0       11.899754   -0.105555    1.465022
     21          6           0       11.665916   -0.490970   -1.187103
     22          6           0       12.553578   -1.457587    1.579178
     23          6           0       13.342651   -1.796993    0.283856
     24          6           0       12.412791   -1.758233   -1.016935
     25          6           0       11.047698    0.090877    0.077586
     26          6           0       10.940373    0.062819    2.611930
     27          6           0       12.910034    0.975894    1.496089
     28          6           0       12.586939    0.594862   -1.980549
     29          6           0       -4.725907    2.230986   -0.335033
     30          6           0        9.876670    0.574671    0.078355
     31          6           0       -3.352059    2.650689   -0.359746
     32          6           0        8.626558    1.049730   -0.082143
     33          6           0       -3.092478    4.132865   -0.421203
     34          6           0       -2.334411    1.717570   -0.346058
     35          6           0        7.452698    0.094889    0.020875
     36          6           0        7.583048   -1.389478    0.054748
     37          6           0        6.216805    0.721199   -0.114412
     38          6           0       -0.954443    1.952357   -0.427046
     39          6           0        4.919949    0.062564   -0.163839
     40          6           0       -0.063228    0.923305   -0.298454
     41          6           0        3.827293    0.799592   -0.196240
     42          6           0        1.386794    1.188910   -0.253661
     43          6           0        2.379339    0.332599   -0.174309
     44          6           0        2.235118   -1.228785   -0.132027
     45          1           0      -13.193485   -2.875369   -1.100848
     46          1           0      -13.674930   -1.059061   -1.653441
     47          1           0      -13.875197    0.395810    1.810245
     48          1           0      -13.765714    0.789311    0.131828
     49          1           0      -14.714412   -1.506701    0.555713
     50          1           0      -10.469521   -3.009621   -1.578880
     51          1           0      -11.374011   -2.601413   -2.908288
     52          1           0       -9.969013   -1.584913   -2.487871
     53          1           0       -9.180288    0.987596   -0.866837
     54          1           0      -10.070108   -0.113907    2.092932
     55          1           0      -11.321650    0.453598    3.000418
     56          1           0      -11.664234   -1.309991    2.262988
     57          1           0      -11.807618    2.358341   -0.030410
     58          1           0      -12.240281    2.356839    1.797045
     59          1           0      -10.628797    2.172732    1.250904
     60          1           0      -12.226016   -2.730720    1.064618
     61          1           0       -9.102105   -1.691891    0.578230
     62          1           0       -5.870473   -2.040522   -0.728729
     63          1           0       -5.427407   -1.616625    0.977992
     64          1           0       -6.766639   -2.549441    0.549397
     65          1           0       -7.235179    1.310145   -0.024414
     66          1           0       -4.543957   -0.102693   -0.478903
     67          1           0       13.504001   -1.271325    2.327772
     68          1           0       11.776444   -2.230858    1.850656
     69          1           0       13.621802   -2.912156    0.417395
     70          1           0       13.141967   -1.984149   -1.931951
     71          1           0       11.758222   -2.422586   -0.799909
     72          1           0       11.728738   -0.120977    3.580377
     73          1           0       10.621593    1.015520    2.809924
     74          1           0       10.085436   -0.626555    2.652870
     75          1           0       13.692219    1.030842    0.698091
     76          1           0       12.432081    2.024399    1.267064
     77          1           0       13.490306    1.120871    2.571815
     78          1           0       12.766503    0.204823   -2.976528
     79          1           0       11.945516    1.595889   -1.993187
     80          1           0       13.332796    0.890453   -1.224080
     81          1           0       -5.500871    3.007296   -0.229289
     82          1           0       10.273487   -0.000572   -2.308843
     83          1           0       15.141653   -1.292529    0.797635
     84          1           0        8.385204    2.153513   -0.420431
     85          1           0       -2.607578    4.437561    0.528993
     86          1           0       -2.456082    4.306773   -1.368492
     87          1           0       -3.953426    4.659165   -0.494352
     88          1           0       -2.665157    0.670220   -0.084296
     89          1           0        6.685577   -1.833311   -0.259103
     90          1           0        8.566385   -1.645112   -0.331982
     91          1           0        7.650022   -1.601339    1.240373
     92          1           0        6.034444    1.808580   -0.069416
     93          1           0       -0.553844    2.962866   -0.657566
     94          1           0        4.827775   -0.918704   -0.172012
     95          1           0       -0.447447   -0.125627   -0.241722
     96          1           0        4.097983    1.947347   -0.326689
     97          1           0        1.555285    2.277481   -0.424335
     98          1           0        1.199027   -1.586906   -0.381037
     99          1           0        3.101815   -1.517907   -0.941273
    100          1           0        2.522149   -1.655386    0.874450
 ---------------------------------------------------------------------

 SCF Done:  E(RCAM-B3LYP) =  -1857.35293640     A.U. after   15 cycles

 Excitation energies and oscillator strengths:

 Excited State   1:      Singlet-A      2.4767 eV  500.59 nm  f=2.4777  <S**2>=0.000
     163 ->166        -0.13206
     164 ->165         0.68967
 This state for optimization and/or second-order correction.
 Total Energy, E(TD-HF/TD-DFT) =  -1857.26191786
 Copying the excited state density for this state as the 1-particle RhoCI density.

 The electronic state is 1-A.
 Alpha  occ. eigenvalues --  -19.23668 -19.23493 -19.22774 -19.20930 -10.32718
 Alpha  occ. eigenvalues --  -10.32339 -10.32326 -10.31796 -10.31536 -10.28700
 Alpha  occ. eigenvalues --  -10.28384 -10.28177 -10.27950 -10.27935 -10.27794
 Alpha  occ. eigenvalues --  -10.27787 -10.27693 -10.27662 -10.27481 -10.27211
 Alpha  occ. eigenvalues --  -10.27197 -10.27066 -10.27066 -10.27061 -10.26827
 Alpha  occ. eigenvalues --  -10.26730 -10.26565 -10.26482 -10.26195 -10.26134
 Alpha  occ. eigenvalues --  -10.26096 -10.25934 -10.25931 -10.25785 -10.25781
 Alpha  occ. eigenvalues --  -10.25740 -10.25485 -10.25184 -10.24839 -10.24553
 Alpha  occ. eigenvalues --  -10.24547 -10.24086 -10.23925 -10.23015  -1.16048
 Alpha  occ. eigenvalues --   -1.10877  -1.10196  -1.09581  -0.92994  -0.92364
 Alpha  occ. eigenvalues --   -0.91531  -0.90919  -0.89820  -0.89450  -0.87264
 Alpha  occ. eigenvalues --   -0.86680  -0.85949  -0.85539  -0.84783  -0.83493
 Alpha  occ. eigenvalues --   -0.82510  -0.81444  -0.79857  -0.77806  -0.76898
 Alpha  occ. eigenvalues --   -0.76703  -0.76232  -0.76056  -0.75190  -0.74909
 Alpha  occ. eigenvalues --   -0.74590  -0.74200  -0.73123  -0.69857  -0.69053
 Alpha  occ. eigenvalues --   -0.68138  -0.66334  -0.64755  -0.63946  -0.63395
 Alpha  occ. eigenvalues --   -0.63080  -0.62370  -0.61280  -0.60624  -0.59593
 Alpha  occ. eigenvalues --   -0.58410  -0.57814  -0.57288  -0.56946  -0.55890
 Alpha  occ. eigenvalues --   -0.55362  -0.55014  -0.54571  -0.54317  -0.53938
 Alpha  occ. eigenvalues --   -0.53682  -0.53259  -0.52964  -0.52747  -0.52143
 Alpha  occ. eigenvalues --   -0.51550  -0.51090  -0.50885  -0.50271  -0.49455
 Alpha  occ. eigenvalues --   -0.49336  -0.49129  -0.49086  -0.48857  -0.48602
 Alpha  occ. eigenvalues --   -0.47803  -0.47473  -0.47246  -0.46873  -0.46494
 Alpha  occ. eigenvalues --   -0.46417  -0.46407  -0.46219  -0.45958  -0.45791
 Alpha  occ. eigenvalues --   -0.45658  -0.45040  -0.44397  -0.44245  -0.44082
 Alpha  occ. eigenvalues --   -0.43631  -0.43154  -0.42887  -0.42658  -0.42547
 Alpha  occ. eigenvalues --   -0.42320  -0.42118  -0.41913  -0.41489  -0.41444
 Alpha  occ. eigenvalues --   -0.41145  -0.41104  -0.40971  -0.40677  -0.40037
 Alpha  occ. eigenvalues --   -0.39738  -0.39651  -0.39364  -0.38969  -0.38916
 Alpha  occ. eigenvalues --   -0.38160  -0.37996  -0.37732  -0.37539  -0.36829
 Alpha  occ. eigenvalues --   -0.36482  -0.35385  -0.34308  -0.33837  -0.33573
 Alpha  occ. eigenvalues --   -0.32668  -0.32392  -0.32221  -0.31190  -0.30817
 Alpha  occ. eigenvalues --   -0.29988  -0.27680  -0.24093  -0.20621
 Alpha virt. eigenvalues --   -0.04941  -0.00167   0.03118   0.06493   0.07000
 Alpha virt. eigenvalues --    0.08320   0.09113   0.09683   0.11877   0.11971
 Alpha virt. eigenvalues --    0.12071   0.12386   0.13315   0.13412   0.14028

 Mulliken charges:
               1
     1  O   -0.498851
     2  O   -0.522274
     3  O   -0.549613
     4  O   -0.529824
     5  C    0.242544
     6  C    0.219887
     7  C    0.017691
     8  C   -0.223248
     9  C   -0.185016
    10  C    0.160004
    11  C   -0.345775
    12  C   -0.121932
    13  C   -0.317704
    14  C   -0.330378
    15  C   -0.084574
    16  C    0.054847
    17  C   -0.374986
    18  C   -0.089796
    19  C   -0.072466
    20  C    0.055254
    21  C    0.222253
    22  C   -0.171889
    23  C    0.117773
    24  C   -0.145469
    25  C   -0.132192
    26  C   -0.285659
    27  C   -0.311761
    28  C   -0.315216
    29  C   -0.133602
    30  C    0.194964
    31  C    0.081935
    32  C   -0.274830
    33  C   -0.364052
    34  C   -0.118395
    35  C    0.086864
    36  C   -0.358614
    37  C   -0.120556
    38  C   -0.074572
    39  C   -0.036677
    40  C   -0.084428
    41  C   -0.124603
    42  C   -0.130994
    43  C    0.095245
    44  C   -0.357708
    45  H    0.058385
    46  H    0.128568
    47  H    0.103345
    48  H    0.081730
    49  H    0.092821
    50  H    0.118774
    51  H    0.109776
    52  H    0.135671
    53  H    0.083629
    54  H    0.091210
    55  H    0.101141
    56  H    0.110969
    57  H    0.111567
    58  H    0.096905
    59  H    0.115935
    60  H    0.315658
    61  H    0.073925
    62  H    0.129022
    63  H    0.125256
    64  H    0.113106
    65  H    0.068993
    66  H    0.095389
    67  H    0.065157
    68  H    0.107144
    69  H    0.065958
    70  H    0.105355
    71  H    0.108962
    72  H    0.051925
    73  H    0.121392
    74  H    0.106259
    75  H    0.136997
    76  H    0.086199
    77  H    0.070172
    78  H    0.127304
    79  H    0.067941
    80  H    0.130745
    81  H    0.092655
    82  H    0.304359
    83  H    0.309580
    84  H    0.114299
    85  H    0.127286
    86  H    0.116050
    87  H    0.116496
    88  H    0.078360
    89  H    0.125239
    90  H    0.146335
    91  H    0.098206
    92  H    0.073518
    93  H    0.089894
    94  H    0.063362
    95  H    0.081220
    96  H    0.067761
    97  H    0.080165
    98  H    0.110942
    99  H    0.104449
   100  H    0.124931
 Sum of Mulliken charges =  -0.00000

 Dipole moment (field-independent basis, Debye):
    X=              2.9328    Y=             -0.8304    Z=              0.6197  Tot=              3.1104
 Quadrupole moment (field-independent basis, Debye-Ang):
   XX=           -270.9458   YY=           -255.8509   ZZ=           -282.0659
   XY=             -1.3255   XZ=             30.0265   YZ=             -0.1458

 Normal termination of Gaussian 16 at Mon Jul 29 16:36:49 2019.
