 Gaussian 16, Revision A.03,
 Gaussian 16:  ES64L-G16RevA.03 25-Dec-2016

 -------------------------------------
 # td=(NStates=1) CAM-B3LYP/6-31G(d,p)
 -------------------------------------

 --
 TD
 --
 Symbolic Z-matrix:
 Charge =  0 Multiplicity = 1

                         Standard orientation:
 ---------------------------------------------------------------------
 Center     Atomic      Atomic             Coordinates (Angstroms)
 Number     Number       Type             X           Y           Z
 ---------------------------------------------------------------------
      1          8           0      -11.814983    0.181000   -1.575763
      2          8           0      -12.822818   -2.532940    1.391767
      3          8           0       10.703285   -1.270668   -2.068601
      4          8           0       14.457344   -0.893976   -0.020299
      5          6           0      -11.083292   -0.153757   -0.405697
      6          6           0      -11.710206   -1.215984   -1.276312
      7          6           0      -11.815514    0.403040    0.867333
      8          6           0      -13.048340   -1.819222   -0.935475
      9          6           0      -13.329502   -0.107489    0.893463
     10          6           0      -13.486471   -1.573000    0.537909
     11          6           0      -10.761178   -1.905455   -2.155175
     12          6           0       -9.684319    0.108959   -0.350375
     13          6           0      -11.069710   -0.041296    2.256300
     14          6           0      -11.832739    1.934822    0.819879
     15          6           0       -8.693503   -0.719804    0.124574
     16          6           0       -7.254093   -0.509596    0.204256
     17          6           0       -6.402272   -1.731329    0.431034
     18          6           0       -6.569497    0.689382   -0.050438
     19          6           0       -5.283226    0.960428   -0.035421
     20          6           0       12.015529    0.126626    1.279806
     21          6           0       11.773238   -0.815731   -1.276476
     22          6           0       12.710772   -1.179148    1.520678
     23          6           0       13.409443   -1.769717    0.305362
     24          6           0       12.436845   -1.950064   -0.874641
     25          6           0       11.117337   -0.000957   -0.023997
     26          6           0       11.052658    0.412212    2.390219
     27          6           0       12.970990    1.344317    1.164038
     28          6           0       12.522049    0.221265   -2.133533
     29          6           0       -4.729630    2.241200   -0.507162
     30          6           0        9.904522    0.477141   -0.010924
     31          6           0       -3.382464    2.487712   -0.545352
     32          6           0        8.633384    0.908165   -0.312377
     33          6           0       -2.949945    3.898441   -0.708747
     34          6           0       -2.380317    1.590582   -0.243718
     35          6           0        7.422256    0.125509   -0.003425
     36          6           0        7.632479   -1.312260    0.371663
     37          6           0        6.165907    0.810240    0.017240
     38          6           0       -1.026163    1.854552   -0.382284
     39          6           0        4.937685    0.164747    0.185640
     40          6           0        0.041804    0.908799   -0.102921
     41          6           0        3.686660    0.870093   -0.017972
     42          6           0        1.433156    1.161702   -0.205180
     43          6           0        2.457919    0.383866    0.077949
     44          6           0        2.301405   -1.013945    0.603990
     45          1           0      -13.189835   -2.791162   -1.145456
     46          1           0      -13.785204   -1.294544   -1.543369
     47          1           0      -13.712616    0.169620    1.794221
     48          1           0      -13.814810    0.434099    0.160867
     49          1           0      -14.585846   -1.927172    0.368561
     50          1           0      -10.670075   -2.777912   -1.513160
     51          1           0      -11.397257   -2.408929   -2.920039
     52          1           0       -9.788014   -1.374429   -2.681595
     53          1           0       -9.353210    1.051602   -0.999333
     54          1           0       -9.959273    0.321278    2.595734
     55          1           0      -11.656236    0.570211    3.015227
     56          1           0      -11.195016   -1.225775    2.423586
     57          1           0      -12.182400    2.235561   -0.207759
     58          1           0      -12.335573    2.479677    1.563503
     59          1           0      -10.743902    2.187435    1.187169
     60          1           0      -11.970490   -2.410005    1.313930
     61          1           0       -8.995415   -1.549995    0.873508
     62          1           0       -5.872855   -2.100340   -0.367157
     63          1           0       -5.654581   -1.452396    1.321756
     64          1           0       -7.014833   -2.639170    0.834366
     65          1           0       -7.213331    1.556084   -0.399013
     66          1           0       -4.718808    0.006323    0.281243
     67          1           0       13.585132   -1.041329    2.234221
     68          1           0       12.059313   -1.975499    2.026927
     69          1           0       13.765269   -2.634542    0.595132
     70          1           0       12.797564   -2.624136   -1.732818
     71          1           0       11.549072   -2.643164   -0.550075
     72          1           0       11.552094    0.394933    3.528894
     73          1           0       10.513312    1.187300    2.248438
     74          1           0       10.330724   -0.480244    2.418990
     75          1           0       13.784437    1.147072    0.497929
     76          1           0       12.255058    2.173486    0.801468
     77          1           0       13.381205    1.491103    2.037165
     78          1           0       12.761564   -0.559798   -3.036083
     79          1           0       11.984051    1.063095   -2.510215
     80          1           0       13.584818    0.765911   -1.783393
     81          1           0       -5.395534    3.034337   -0.565474
     82          1           0       10.132831   -0.561597   -2.615027
     83          1           0       15.000598   -0.887230    0.787939
     84          1           0        8.392494    1.927358   -0.842102
     85          1           0       -2.056953    4.265847   -0.000404
     86          1           0       -2.586401    3.882333   -1.750269
     87          1           0       -3.769972    4.772138   -0.624919
     88          1           0       -2.647516    0.480974    0.034882
     89          1           0        6.732708   -1.841629    0.394091
     90          1           0        8.113840   -1.886119   -0.475408
     91          1           0        8.173722   -1.266972    1.445289
     92          1           0        6.288080    1.951604   -0.293198
     93          1           0       -0.672760    2.690518   -0.970568
     94          1           0        5.041082   -0.903543    0.379847
     95          1           0       -0.338637   -0.016918    0.329508
     96          1           0        3.951255    1.980564   -0.295070
     97          1           0        1.568038    2.236118   -0.454844
     98          1           0        1.345721   -1.513451    0.751079
     99          1           0        2.641974   -1.681505   -0.181407
    100          1           0        3.006832   -1.444679    1.433482
 ---------------------------------------------------------------------

 SCF Done:  E(RCAM-B3LYP) =  -1857.26354889     A.U. after   17 cycles

 Excitation energies and oscillator strengths:

 Excited State   1:      Singlet-A      1.7176 eV  721.84 nm  f=3.1210  <S**2>=0.000
     163 ->166         0.12380
     164 ->165         0.70672
     164 <-165        -0.13894
 This state for optimization and/or second-order correction.
 Total Energy, E(TD-HF/TD-DFT) =  -1857.20042735
 Copying the excited state density for this state as the 1-particle RhoCI density.

 The electronic state is 1-A.
 Alpha  occ. eigenvalues --  -19.22144 -19.21660 -19.21493 -19.20715 -10.32451
 Alpha  occ. eigenvalues --  -10.32048 -10.31800 -10.31288 -10.30156 -10.28601
 Alpha  occ. eigenvalues --  -10.28242 -10.27981 -10.27923 -10.27742 -10.27614
 Alpha  occ. eigenvalues --  -10.27218 -10.27205 -10.27072 -10.26956 -10.26860
 Alpha  occ. eigenvalues --  -10.26838 -10.26752 -10.26734 -10.26684 -10.26671
 Alpha  occ. eigenvalues --  -10.26604 -10.26602 -10.26600 -10.26456 -10.26455
 Alpha  occ. eigenvalues --  -10.26339 -10.26308 -10.26279 -10.26160 -10.26026
 Alpha  occ. eigenvalues --  -10.25963 -10.25938 -10.25773 -10.25527 -10.25146
 Alpha  occ. eigenvalues --  -10.25035 -10.24211 -10.24191 -10.22964  -1.15528
 Alpha  occ. eigenvalues --   -1.11634  -1.11403  -1.09130  -0.92992  -0.92696
 Alpha  occ. eigenvalues --   -0.92375  -0.90878  -0.89878  -0.89764  -0.87776
 Alpha  occ. eigenvalues --   -0.87463  -0.86500  -0.85451  -0.84360  -0.82977
 Alpha  occ. eigenvalues --   -0.82133  -0.81042  -0.80004  -0.78510  -0.77116
 Alpha  occ. eigenvalues --   -0.76632  -0.76408  -0.76395  -0.75666  -0.75391
 Alpha  occ. eigenvalues --   -0.74801  -0.74240  -0.72395  -0.71123  -0.70051
 Alpha  occ. eigenvalues --   -0.68490  -0.67456  -0.65257  -0.64624  -0.64160
 Alpha  occ. eigenvalues --   -0.63233  -0.61957  -0.60781  -0.59699  -0.59437
 Alpha  occ. eigenvalues --   -0.58968  -0.58461  -0.58066  -0.57562  -0.56953
 Alpha  occ. eigenvalues --   -0.55372  -0.55097  -0.54534  -0.54236  -0.54148
 Alpha  occ. eigenvalues --   -0.54028  -0.53648  -0.52902  -0.52370  -0.51846
 Alpha  occ. eigenvalues --   -0.51625  -0.50853  -0.50707  -0.49841  -0.49562
 Alpha  occ. eigenvalues --   -0.49399  -0.49213  -0.48663  -0.48604  -0.48439
 Alpha  occ. eigenvalues --   -0.48185  -0.48059  -0.47416  -0.47049  -0.46614
 Alpha  occ. eigenvalues --   -0.46250  -0.46151  -0.45872  -0.45525  -0.45374
 Alpha  occ. eigenvalues --   -0.45299  -0.44932  -0.44106  -0.43478  -0.43350
 Alpha  occ. eigenvalues --   -0.42769  -0.42741  -0.42314  -0.42186  -0.41978
 Alpha  occ. eigenvalues --   -0.41487  -0.41433  -0.41391  -0.41099  -0.40986
 Alpha  occ. eigenvalues --   -0.40873  -0.40572  -0.40290  -0.40043  -0.39951
 Alpha  occ. eigenvalues --   -0.39791  -0.39386  -0.39322  -0.38847  -0.38581
 Alpha  occ. eigenvalues --   -0.38310  -0.37959  -0.37637  -0.37421  -0.37147
 Alpha  occ. eigenvalues --   -0.36831  -0.35400  -0.34829  -0.34123  -0.33374
 Alpha  occ. eigenvalues --   -0.32952  -0.32585  -0.31921  -0.31526  -0.30387
 Alpha  occ. eigenvalues --   -0.30025  -0.27859  -0.23249  -0.18012
 Alpha virt. eigenvalues --   -0.07353  -0.01711   0.03291   0.06382   0.07003
 Alpha virt. eigenvalues --    0.09276   0.09954   0.10545   0.11126   0.11653
 Alpha virt. eigenvalues --    0.12096   0.12700   0.13191   0.14025   0.14243

 Mulliken charges:
               1
     1  O   -0.516375
     2  O   -0.526015
     3  O   -0.589271
     4  O   -0.530597
     5  C    0.219432
     6  C    0.245163
     7  C    0.005983
     8  C   -0.218560
     9  C   -0.167412
    10  C    0.132935
    11  C   -0.327884
    12  C   -0.113630
    13  C   -0.318093
    14  C   -0.319057
    15  C   -0.088716
    16  C    0.059676
    17  C   -0.379049
    18  C   -0.075662
    19  C   -0.064273
    20  C    0.022164
    21  C    0.318903
    22  C   -0.198098
    23  C    0.168611
    24  C   -0.208624
    25  C   -0.071632
    26  C   -0.273762
    27  C   -0.294414
    28  C   -0.296420
    29  C   -0.148104
    30  C    0.099588
    31  C    0.117249
    32  C   -0.264447
    33  C   -0.375791
    34  C   -0.103011
    35  C    0.091938
    36  C   -0.357645
    37  C   -0.101816
    38  C   -0.099932
    39  C   -0.092892
    40  C   -0.099405
    41  C   -0.155894
    42  C   -0.151937
    43  C    0.207847
    44  C   -0.398894
    45  H    0.113225
    46  H    0.123503
    47  H    0.105473
    48  H    0.116866
    49  H    0.091519
    50  H    0.106907
    51  H    0.102334
    52  H    0.131719
    53  H    0.102559
    54  H    0.101044
    55  H    0.100027
    56  H    0.078160
    57  H    0.125556
    58  H    0.112569
    59  H    0.091792
    60  H    0.288676
    61  H    0.076571
    62  H    0.144714
    63  H    0.104212
    64  H    0.094086
    65  H    0.066807
    66  H    0.079380
    67  H    0.061335
    68  H    0.089956
    69  H    0.084464
    70  H    0.111599
    71  H    0.117202
    72  H    0.057757
    73  H    0.118162
    74  H    0.088389
    75  H    0.124132
    76  H    0.090573
    77  H    0.103018
    78  H    0.083371
    79  H    0.105050
    80  H    0.109425
    81  H    0.095044
    82  H    0.320128
    83  H    0.305521
    84  H    0.099789
    85  H    0.114662
    86  H    0.129020
    87  H    0.093475
    88  H    0.079282
    89  H    0.106996
    90  H    0.132777
    91  H    0.118881
    92  H    0.072190
    93  H    0.087690
    94  H    0.084818
    95  H    0.073347
    96  H    0.083675
    97  H    0.081933
    98  H    0.116036
    99  H    0.126002
   100  H    0.114423
 Sum of Mulliken charges =  -0.00000

 Dipole moment (field-independent basis, Debye):
    X=              2.8018    Y=             -0.7871    Z=              0.4547  Tot=              2.9455
 Quadrupole moment (field-independent basis, Debye-Ang):
   XX=           -255.2983   YY=           -261.0663   ZZ=           -275.7853
   XY=            -11.6768   XZ=             21.8443   YZ=             -2.1040

 Normal termination of Gaussian 16 at Wed Jul 31 18:15:39 2019.
