 Gaussian 16, Revision A.03,
 Gaussian 16:  ES64L-G16RevA.03 25-Dec-2016

 -------------------------------------
 # td=(NStates=1) CAM-B3LYP/6-31G(d,p)
 -------------------------------------

 --
 TD
 --
 Symbolic Z-matrix:
 Charge =  0 Multiplicity = 1

                         Standard orientation:
 ---------------------------------------------------------------------
 Center     Atomic      Atomic             Coordinates (Angstroms)
 Number     Number       Type             X           Y           Z
 ---------------------------------------------------------------------
      1          8           0      -11.827780    0.176841   -1.436046
      2          8           0      -12.748107   -2.419993    1.627358
      3          8           0       10.751433   -1.274119   -2.054471
      4          8           0       14.596383   -1.006827   -0.133997
      5          6           0      -11.154369   -0.184698   -0.327985
      6          6           0      -11.697491   -1.206152   -1.178729
      7          6           0      -11.819629    0.353851    0.932848
      8          6           0      -13.030187   -1.928619   -0.679354
      9          6           0      -13.262819   -0.047761    0.928145
     10          6           0      -13.491394   -1.492920    0.696242
     11          6           0      -10.884088   -2.024703   -2.057665
     12          6           0       -9.645258    0.061245   -0.413600
     13          6           0      -11.114220    0.049613    2.220202
     14          6           0      -11.817536    1.968778    0.786729
     15          6           0       -8.717637   -0.803162    0.071125
     16          6           0       -7.312550   -0.613996    0.079172
     17          6           0       -6.452956   -1.919181    0.445714
     18          6           0       -6.753268    0.580762   -0.297973
     19          6           0       -5.330081    0.910383   -0.199432
     20          6           0       12.043930    0.120221    1.436252
     21          6           0       11.743107   -0.698085   -1.171629
     22          6           0       12.881367   -1.197945    1.652489
     23          6           0       13.566916   -1.759348    0.329936
     24          6           0       12.474546   -1.960601   -0.792059
     25          6           0       11.150930   -0.050933    0.171092
     26          6           0       11.089891    0.349533    2.639725
     27          6           0       12.966453    1.393421    1.231995
     28          6           0       12.611932    0.338520   -1.983010
     29          6           0       -4.834894    2.172770   -0.443971
     30          6           0        9.862272    0.385108   -0.027930
     31          6           0       -3.437360    2.580734   -0.493415
     32          6           0        8.679829    0.862492   -0.222842
     33          6           0       -3.165429    4.052056   -0.670986
     34          6           0       -2.427632    1.658758   -0.350368
     35          6           0        7.422349    0.073583    0.013373
     36          6           0        7.647921   -1.338839    0.148409
     37          6           0        6.231851    0.771180   -0.080183
     38          6           0       -0.913010    1.872066   -0.311720
     39          6           0        4.920440    0.259600   -0.023744
     40          6           0       -0.005058    0.897901   -0.231709
     41          6           0        3.791171    0.863001   -0.302526
     42          6           0        1.358501    1.317280   -0.203179
     43          6           0        2.391802    0.435057   -0.232413
     44          6           0        2.212494   -1.026393    0.046705
     45          1           0      -12.711347   -2.989789   -0.964162
     46          1           0      -13.846486   -1.592686   -1.550737
     47          1           0      -13.576845    0.186923    2.049411
     48          1           0      -13.886758    0.702348    0.350279
     49          1           0      -14.522050   -1.781344    0.697485
     50          1           0      -10.251982   -2.812476   -1.424531
     51          1           0      -11.446144   -2.607482   -2.831581
     52          1           0      -10.109797   -1.337876   -2.567340
     53          1           0       -9.471819    1.074692   -0.824985
     54          1           0      -10.082604    0.324930    2.073659
     55          1           0      -11.588384    0.873552    2.889567
     56          1           0      -11.322109   -0.938798    2.509073
     57          1           0      -12.118669    2.310015   -0.357129
     58          1           0      -12.493288    2.462992    1.418422
     59          1           0      -10.731396    2.262297    1.124737
     60          1           0      -11.811019   -2.527472    1.222410
     61          1           0       -8.799071   -1.763706    0.316973
     62          1           0       -5.928009   -2.244782   -0.338239
     63          1           0       -5.618019   -1.817358    1.137957
     64          1           0       -7.186248   -2.655682    0.791791
     65          1           0       -7.408419    1.426394   -0.530619
     66          1           0       -4.536925    0.009483    0.078873
     67          1           0       13.573640   -0.969270    2.377519
     68          1           0       12.133258   -1.826848    1.911841
     69          1           0       13.948500   -2.715905    0.643903
     70          1           0       13.008209   -2.410136   -1.682302
     71          1           0       11.699342   -2.642455   -0.487045
     72          1           0       11.762770    0.389595    3.564267
     73          1           0       10.690293    1.366262    2.738875
     74          1           0       10.425837   -0.411278    2.605424
     75          1           0       13.784081    1.178835    0.467086
     76          1           0       12.554503    2.293856    1.013008
     77          1           0       13.431598    1.702080    2.350450
     78          1           0       12.895636   -0.220495   -2.993302
     79          1           0       11.944584    1.179496   -2.114256
     80          1           0       13.358423    0.803131   -1.395741
     81          1           0       -5.804212    2.830938   -0.678289
     82          1           0        9.913507   -0.611757   -2.019000
     83          1           0       15.235166   -1.059534    0.508213
     84          1           0        8.619279    1.892149   -0.473085
     85          1           0       -2.490726    4.470814    0.078773
     86          1           0       -2.652196    4.139636   -1.709405
     87          1           0       -4.065970    4.562639   -0.644198
     88          1           0       -2.883994    0.687056   -0.081408
     89          1           0        6.702002   -2.051499    0.020394
     90          1           0        8.376571   -1.681780   -0.454795
     91          1           0        7.942659   -1.355853    1.378657
     92          1           0        6.265854    1.902241   -0.568767
     93          1           0       -0.452614    2.840262   -0.392619
     94          1           0        4.901860   -0.860878    0.007155
     95          1           0       -0.338132   -0.238801   -0.004477
     96          1           0        3.895775    2.014976   -0.341737
     97          1           0        1.513091    2.463384   -0.267531
     98          1           0        1.222655   -1.628140   -0.060670
     99          1           0        2.990358   -1.545412   -0.481885
    100          1           0        2.485326   -1.306179    1.088480
 ---------------------------------------------------------------------

 SCF Done:  E(RCAM-B3LYP) =  -1857.35781191     A.U. after   14 cycles

 Excitation energies and oscillator strengths:

 Excited State   1:      Singlet-A      2.7487 eV  451.07 nm  f=2.8114  <S**2>=0.000
     163 ->166         0.17619
     164 ->165         0.67603
 This state for optimization and/or second-order correction.
 Total Energy, E(TD-HF/TD-DFT) =  -1857.25680027
 Copying the excited state density for this state as the 1-particle RhoCI density.

 The electronic state is 1-A.
 Alpha  occ. eigenvalues --  -19.22481 -19.22093 -19.22089 -19.21219 -10.31692
 Alpha  occ. eigenvalues --  -10.31602 -10.31371 -10.30997 -10.30905 -10.29145
 Alpha  occ. eigenvalues --  -10.28478 -10.28430 -10.28002 -10.27856 -10.27691
 Alpha  occ. eigenvalues --  -10.27664 -10.27634 -10.27584 -10.27451 -10.27406
 Alpha  occ. eigenvalues --  -10.27263 -10.27217 -10.27186 -10.27083 -10.26899
 Alpha  occ. eigenvalues --  -10.26880 -10.26847 -10.26713 -10.26610 -10.26560
 Alpha  occ. eigenvalues --  -10.26424 -10.26147 -10.26093 -10.25945 -10.25930
 Alpha  occ. eigenvalues --  -10.25919 -10.25880 -10.25699 -10.25293 -10.24737
 Alpha  occ. eigenvalues --  -10.24613 -10.24583 -10.24073 -10.23532  -1.19447
 Alpha  occ. eigenvalues --   -1.14066  -1.07100  -1.06990  -0.92669  -0.91985
 Alpha  occ. eigenvalues --   -0.91796  -0.91157  -0.90933  -0.90062  -0.87857
 Alpha  occ. eigenvalues --   -0.86691  -0.85348  -0.84776  -0.84599  -0.83036
 Alpha  occ. eigenvalues --   -0.82555  -0.80992  -0.80508  -0.77768  -0.76985
 Alpha  occ. eigenvalues --   -0.76667  -0.76437  -0.75831  -0.75699  -0.75600
 Alpha  occ. eigenvalues --   -0.74971  -0.74680  -0.73564  -0.70941  -0.70130
 Alpha  occ. eigenvalues --   -0.68500  -0.66453  -0.65892  -0.65435  -0.64259
 Alpha  occ. eigenvalues --   -0.62514  -0.61597  -0.60617  -0.59340  -0.59202
 Alpha  occ. eigenvalues --   -0.58958  -0.58189  -0.57613  -0.57352  -0.56831
 Alpha  occ. eigenvalues --   -0.55708  -0.54997  -0.54849  -0.54692  -0.54211
 Alpha  occ. eigenvalues --   -0.53798  -0.53726  -0.53085  -0.52787  -0.51769
 Alpha  occ. eigenvalues --   -0.51127  -0.50641  -0.50346  -0.50183  -0.50118
 Alpha  occ. eigenvalues --   -0.49661  -0.49125  -0.48773  -0.48224  -0.48151
 Alpha  occ. eigenvalues --   -0.47775  -0.47599  -0.47568  -0.47411  -0.47020
 Alpha  occ. eigenvalues --   -0.46720  -0.46514  -0.46364  -0.45831  -0.45568
 Alpha  occ. eigenvalues --   -0.45137  -0.45114  -0.44482  -0.44075  -0.43686
 Alpha  occ. eigenvalues --   -0.43451  -0.43199  -0.42934  -0.42811  -0.42582
 Alpha  occ. eigenvalues --   -0.42259  -0.41938  -0.41790  -0.41610  -0.41415
 Alpha  occ. eigenvalues --   -0.41171  -0.40562  -0.40382  -0.40040  -0.39815
 Alpha  occ. eigenvalues --   -0.39765  -0.39748  -0.39423  -0.38768  -0.38741
 Alpha  occ. eigenvalues --   -0.38593  -0.38133  -0.37684  -0.37524  -0.37292
 Alpha  occ. eigenvalues --   -0.36437  -0.36330  -0.35341  -0.34698  -0.34314
 Alpha  occ. eigenvalues --   -0.32221  -0.32176  -0.32063  -0.31788  -0.31214
 Alpha  occ. eigenvalues --   -0.29121  -0.28162  -0.24569  -0.21362
 Alpha virt. eigenvalues --   -0.04269  -0.00962   0.03142   0.05267   0.06938
 Alpha virt. eigenvalues --    0.08911   0.10350   0.10668   0.11309   0.11761
 Alpha virt. eigenvalues --    0.12506   0.12626   0.12856   0.13082   0.13327

 Mulliken charges:
               1
     1  O   -0.483635
     2  O   -0.562440
     3  O   -0.581287
     4  O   -0.496170
     5  C    0.205778
     6  C    0.249910
     7  C    0.023042
     8  C   -0.217818
     9  C   -0.180257
    10  C    0.157559
    11  C   -0.349473
    12  C   -0.133464
    13  C   -0.300504
    14  C   -0.326981
    15  C   -0.025659
    16  C    0.057945
    17  C   -0.376454
    18  C   -0.132062
    19  C   -0.051463
    20  C    0.014229
    21  C    0.243001
    22  C   -0.181833
    23  C    0.124846
    24  C   -0.171719
    25  C   -0.080504
    26  C   -0.300664
    27  C   -0.308921
    28  C   -0.278579
    29  C   -0.140011
    30  C    0.136357
    31  C    0.091959
    32  C   -0.296002
    33  C   -0.363677
    34  C   -0.122996
    35  C    0.109823
    36  C   -0.344111
    37  C   -0.118192
    38  C   -0.097707
    39  C   -0.067972
    40  C   -0.037182
    41  C   -0.125496
    42  C   -0.144708
    43  C    0.120060
    44  C   -0.386332
    45  H    0.103927
    46  H    0.085751
    47  H    0.090722
    48  H    0.115928
    49  H    0.114702
    50  H    0.093254
    51  H    0.115021
    52  H    0.126468
    53  H    0.111752
    54  H    0.111992
    55  H    0.086147
    56  H    0.117777
    57  H    0.103386
    58  H    0.114585
    59  H    0.086330
    60  H    0.308766
    61  H    0.052717
    62  H    0.143932
    63  H    0.123228
    64  H    0.103006
    65  H    0.083448
    66  H    0.069309
    67  H    0.088874
    68  H    0.105574
    69  H    0.074898
    70  H    0.103229
    71  H    0.112071
    72  H    0.085442
    73  H    0.113338
    74  H    0.114622
    75  H    0.122506
    76  H    0.120941
    77  H    0.053556
    78  H    0.105748
    79  H    0.088461
    80  H    0.118653
    81  H    0.082606
    82  H    0.302119
    83  H    0.301714
    84  H    0.118209
    85  H    0.124375
    86  H    0.116507
    87  H    0.117182
    88  H    0.064365
    89  H    0.101166
    90  H    0.140215
    91  H    0.100690
    92  H    0.070027
    93  H    0.083438
    94  H    0.068872
    95  H    0.087620
    96  H    0.066153
    97  H    0.088163
    98  H    0.103190
    99  H    0.117769
   100  H    0.125327
 Sum of Mulliken charges =  -0.00000

 Dipole moment (field-independent basis, Debye):
    X=              2.1352    Y=             -0.2514    Z=              1.7790  Tot=              2.7905
 Quadrupole moment (field-independent basis, Debye-Ang):
   XX=           -259.8803   YY=           -258.9028   ZZ=           -284.1452
   XY=              0.9732   XZ=             44.1699   YZ=              0.0454

 Normal termination of Gaussian 16 at Mon Jul 29 10:20:25 2019.
