 Gaussian 16, Revision A.03,
 Gaussian 16:  ES64L-G16RevA.03 25-Dec-2016

 -------------------------------------
 # td=(NStates=1) CAM-B3LYP/6-31G(d,p)
 -------------------------------------

 --
 TD
 --
 Symbolic Z-matrix:
 Charge =  0 Multiplicity = 1

                         Standard orientation:
 ---------------------------------------------------------------------
 Center     Atomic      Atomic             Coordinates (Angstroms)
 Number     Number       Type             X           Y           Z
 ---------------------------------------------------------------------
      1          8           0      -11.731312    0.107523   -1.548653
      2          8           0      -12.932307   -2.347355    1.523864
      3          8           0       10.573218   -1.232740   -2.018498
      4          8           0       14.504301   -1.014385   -0.037889
      5          6           0      -11.025881   -0.207633   -0.332481
      6          6           0      -11.656236   -1.275174   -1.210625
      7          6           0      -11.703195    0.359343    0.973856
      8          6           0      -13.003071   -1.842725   -0.827948
      9          6           0      -13.202836   -0.063187    0.855196
     10          6           0      -13.490086   -1.460073    0.557020
     11          6           0      -10.804828   -2.114882   -2.110920
     12          6           0       -9.593914   -0.010255   -0.460257
     13          6           0      -11.086874    0.097163    2.261957
     14          6           0      -11.691798    1.911106    0.737150
     15          6           0       -8.654559   -0.785720    0.153860
     16          6           0       -7.249329   -0.648645    0.057544
     17          6           0       -6.263117   -1.738675    0.293789
     18          6           0       -6.610194    0.644348    0.082346
     19          6           0       -5.205870    0.944878   -0.027648
     20          6           0       11.912035    0.106231    1.280797
     21          6           0       11.682516   -0.675419   -1.237808
     22          6           0       12.530344   -1.240539    1.512478
     23          6           0       13.307283   -1.780462    0.310706
     24          6           0       12.449065   -1.861522   -0.893509
     25          6           0       11.027424    0.061339   -0.014969
     26          6           0       11.045048    0.504106    2.510903
     27          6           0       12.986367    1.172361    1.319580
     28          6           0       12.399868    0.339391   -2.168837
     29          6           0       -4.677000    2.208440   -0.262954
     30          6           0        9.897391    0.554819   -0.001845
     31          6           0       -3.368920    2.524320   -0.439912
     32          6           0        8.653119    0.876855   -0.210033
     33          6           0       -3.042158    3.937750   -0.977454
     34          6           0       -2.300976    1.624571   -0.292938
     35          6           0        7.413452    0.050917    0.037489
     36          6           0        7.615253   -1.467413    0.377287
     37          6           0        6.273675    0.652839   -0.082561
     38          6           0       -1.051528    1.895506   -0.476307
     39          6           0        4.988294    0.138646    0.112857
     40          6           0        0.044890    1.074966   -0.094504
     41          6           0        3.794296    0.815010   -0.134882
     42          6           0        1.417462    1.257139   -0.226855
     43          6           0        2.477068    0.422788    0.067575
     44          6           0        2.183239   -1.032519    0.414104
     45          1           0      -13.016067   -2.982656   -0.718915
     46          1           0      -13.764137   -1.530807   -1.574584
     47          1           0      -13.582248    0.367719    1.696857
     48          1           0      -13.737282    0.643595    0.073791
     49          1           0      -14.651326   -1.708113    0.892199
     50          1           0      -10.257218   -2.940818   -1.746404
     51          1           0      -11.673623   -2.377858   -2.868162
     52          1           0      -10.106438   -1.203484   -2.616267
     53          1           0       -9.331184    0.817093   -1.040944
     54          1           0      -10.121468    0.623850    2.362398
     55          1           0      -11.796122    0.476968    3.028520
     56          1           0      -10.997430   -0.906049    2.316657
     57          1           0      -12.160039    2.194872   -0.122510
     58          1           0      -12.219718    2.434464    1.568360
     59          1           0      -10.701987    2.239206    0.754385
     60          1           0      -11.971243   -2.171723    1.622369
     61          1           0       -9.232945   -1.490895    0.569034
     62          1           0       -5.615016   -2.146274   -0.752431
     63          1           0       -5.609248   -1.439938    0.917897
     64          1           0       -6.714195   -2.815801    0.612088
     65          1           0       -7.370891    1.532917    0.063243
     66          1           0       -4.440448    0.043779   -0.196312
     67          1           0       13.344361   -1.089579    2.420489
     68          1           0       11.687479   -2.008922    1.645655
     69          1           0       13.603297   -2.884413    0.590325
     70          1           0       12.986431   -2.308939   -1.740586
     71          1           0       11.902880   -2.688027   -0.686027
     72          1           0       11.650968    0.410796    3.391849
     73          1           0       10.515332    1.451365    2.070158
     74          1           0       10.138125   -0.319137    2.356508
     75          1           0       13.605022    1.188847    0.551181
     76          1           0       12.506810    2.272876    1.357142
     77          1           0       13.643161    1.176343    2.315608
     78          1           0       12.750094   -0.130920   -3.120672
     79          1           0       11.720717    1.169787   -2.354643
     80          1           0       13.404721    0.546286   -1.653678
     81          1           0       -5.461104    2.986478   -0.104268
     82          1           0       10.157714   -0.354492   -2.341036
     83          1           0       15.082995   -1.073914    0.779038
     84          1           0        8.577648    1.935559   -0.385993
     85          1           0       -2.284596    4.611498   -0.243114
     86          1           0       -2.355442    3.858280   -1.991101
     87          1           0       -3.944978    4.392708   -1.104022
     88          1           0       -2.664086    0.825417    0.053875
     89          1           0        6.690923   -1.979631    0.188662
     90          1           0        8.359864   -1.827300   -0.234391
     91          1           0        7.862642   -1.678721    1.426517
     92          1           0        6.117605    1.712052   -0.518794
     93          1           0       -0.636160    2.953531   -0.666878
     94          1           0        4.786639   -0.845765    0.579187
     95          1           0       -0.309179    0.149873    0.459440
     96          1           0        3.884955    1.739005   -0.791314
     97          1           0        1.872549    2.226909   -0.422416
     98          1           0        0.961747   -1.281384   -0.012610
     99          1           0        2.863829   -1.506392   -0.162253
    100          1           0        2.241802   -1.214403    1.568811
 ---------------------------------------------------------------------

 SCF Done:  E(RCAM-B3LYP) =  -1857.26415359     A.U. after   16 cycles

 Excitation energies and oscillator strengths:

 Excited State   1:      Singlet-A      1.8855 eV  657.57 nm  f=2.8554  <S**2>=0.000
     163 ->166         0.11471
     164 ->165         0.70620
     164 <-165        -0.12918
 This state for optimization and/or second-order correction.
 Total Energy, E(TD-HF/TD-DFT) =  -1857.19486284
 Copying the excited state density for this state as the 1-particle RhoCI density.

 The electronic state is 1-A.
 Alpha  occ. eigenvalues --  -19.22759 -19.22445 -19.21010 -19.20904 -10.32443
 Alpha  occ. eigenvalues --  -10.32181 -10.31707 -10.31555 -10.31287 -10.28658
 Alpha  occ. eigenvalues --  -10.28235 -10.28199 -10.28130 -10.27599 -10.27512
 Alpha  occ. eigenvalues --  -10.27376 -10.27371 -10.27340 -10.27325 -10.27312
 Alpha  occ. eigenvalues --  -10.27206 -10.27119 -10.27063 -10.27060 -10.27017
 Alpha  occ. eigenvalues --  -10.26892 -10.26818 -10.26642 -10.26343 -10.26176
 Alpha  occ. eigenvalues --  -10.26132 -10.26130 -10.26044 -10.26017 -10.25819
 Alpha  occ. eigenvalues --  -10.25764 -10.25516 -10.25020 -10.24861 -10.24824
 Alpha  occ. eigenvalues --  -10.24430 -10.24077 -10.24031 -10.23424  -1.15727
 Alpha  occ. eigenvalues --   -1.09291  -1.08868  -1.07981  -0.93700  -0.93354
 Alpha  occ. eigenvalues --   -0.92508  -0.92315  -0.91126  -0.90761  -0.88165
 Alpha  occ. eigenvalues --   -0.87623  -0.86895  -0.86514  -0.85467  -0.83561
 Alpha  occ. eigenvalues --   -0.82132  -0.81640  -0.80757  -0.79022  -0.77986
 Alpha  occ. eigenvalues --   -0.77729  -0.76598  -0.76477  -0.76379  -0.75768
 Alpha  occ. eigenvalues --   -0.75159  -0.74639  -0.73902  -0.70593  -0.70082
 Alpha  occ. eigenvalues --   -0.69229  -0.67464  -0.65489  -0.64444  -0.64020
 Alpha  occ. eigenvalues --   -0.63490  -0.62639  -0.61130  -0.60336  -0.59846
 Alpha  occ. eigenvalues --   -0.59650  -0.58501  -0.57896  -0.57665  -0.56617
 Alpha  occ. eigenvalues --   -0.56178  -0.55908  -0.55541  -0.55198  -0.54253
 Alpha  occ. eigenvalues --   -0.54044  -0.53387  -0.53098  -0.51987  -0.51839
 Alpha  occ. eigenvalues --   -0.51762  -0.51651  -0.51127  -0.50431  -0.50056
 Alpha  occ. eigenvalues --   -0.49673  -0.49443  -0.49298  -0.48942  -0.48866
 Alpha  occ. eigenvalues --   -0.48475  -0.48283  -0.47529  -0.47068  -0.46750
 Alpha  occ. eigenvalues --   -0.46628  -0.46349  -0.45938  -0.45546  -0.45326
 Alpha  occ. eigenvalues --   -0.45145  -0.45126  -0.44902  -0.44583  -0.44508
 Alpha  occ. eigenvalues --   -0.44233  -0.43448  -0.43134  -0.42489  -0.42410
 Alpha  occ. eigenvalues --   -0.42204  -0.41710  -0.41497  -0.41434  -0.41256
 Alpha  occ. eigenvalues --   -0.41225  -0.41056  -0.40457  -0.40354  -0.39987
 Alpha  occ. eigenvalues --   -0.39731  -0.39297  -0.39159  -0.38888  -0.38699
 Alpha  occ. eigenvalues --   -0.38547  -0.38417  -0.38200  -0.37893  -0.36825
 Alpha  occ. eigenvalues --   -0.36610  -0.36103  -0.35381  -0.34066  -0.33615
 Alpha  occ. eigenvalues --   -0.33016  -0.32953  -0.32680  -0.31790  -0.31533
 Alpha  occ. eigenvalues --   -0.30964  -0.28167  -0.25139  -0.19274
 Alpha virt. eigenvalues --   -0.07590  -0.00960   0.02816   0.06500   0.07813
 Alpha virt. eigenvalues --    0.08961   0.09311   0.10114   0.11264   0.12022
 Alpha virt. eigenvalues --    0.12170   0.12414   0.12895   0.13588   0.13631

 Mulliken charges:
               1
     1  O   -0.506164
     2  O   -0.558911
     3  O   -0.559605
     4  O   -0.551159
     5  C    0.180734
     6  C    0.233184
     7  C   -0.019597
     8  C   -0.196322
     9  C   -0.162803
    10  C    0.148109
    11  C   -0.310534
    12  C   -0.106156
    13  C   -0.279853
    14  C   -0.313314
    15  C   -0.063160
    16  C    0.096536
    17  C   -0.349959
    18  C   -0.140038
    19  C   -0.079932
    20  C   -0.006674
    21  C    0.232919
    22  C   -0.162836
    23  C    0.129720
    24  C   -0.184044
    25  C   -0.043425
    26  C   -0.271667
    27  C   -0.280876
    28  C   -0.316090
    29  C   -0.129646
    30  C    0.125117
    31  C    0.083286
    32  C   -0.271086
    33  C   -0.347462
    34  C   -0.026025
    35  C    0.096862
    36  C   -0.372625
    37  C   -0.084403
    38  C   -0.078059
    39  C   -0.097922
    40  C   -0.116421
    41  C   -0.136683
    42  C   -0.114793
    43  C    0.117557
    44  C   -0.347845
    45  H    0.111834
    46  H    0.116590
    47  H    0.094709
    48  H    0.096638
    49  H    0.084332
    50  H    0.127339
    51  H    0.100332
    52  H    0.109435
    53  H    0.098518
    54  H    0.117411
    55  H    0.114626
    56  H    0.076577
    57  H    0.130961
    58  H    0.088954
    59  H    0.101492
    60  H    0.298749
    61  H    0.060951
    62  H    0.077238
    63  H    0.144163
    64  H    0.090479
    65  H    0.078831
    66  H    0.090418
    67  H    0.060244
    68  H    0.096977
    69  H    0.067190
    70  H    0.120337
    71  H    0.126412
    72  H    0.106404
    73  H    0.109559
    74  H    0.068711
    75  H    0.129359
    76  H    0.071582
    77  H    0.070975
    78  H    0.115654
    79  H    0.096079
    80  H    0.133324
    81  H    0.091279
    82  H    0.301940
    83  H    0.307903
    84  H    0.106362
    85  H    0.091220
    86  H    0.107896
    87  H    0.113015
    88  H    0.048206
    89  H    0.113579
    90  H    0.150118
    91  H    0.121970
    92  H    0.081821
    93  H    0.084677
    94  H    0.082933
    95  H    0.082562
    96  H    0.077092
    97  H    0.073574
    98  H    0.076800
    99  H    0.130152
   100  H    0.115581
 Sum of Mulliken charges =  -0.00000

 Dipole moment (field-independent basis, Debye):
    X=              2.8027    Y=              0.2792    Z=              1.7616  Tot=              3.3221
 Quadrupole moment (field-independent basis, Debye-Ang):
   XX=           -266.9712   YY=           -264.4450   ZZ=           -277.5807
   XY=            -10.1190   XZ=             16.7696   YZ=             -3.3159

 Normal termination of Gaussian 16 at Mon Jul 29 08:12:13 2019.
