 Gaussian 16, Revision A.03,
 Gaussian 16:  ES64L-G16RevA.03 25-Dec-2016

 -------------------------------------
 # td=(NStates=1) CAM-B3LYP/6-31G(d,p)
 -------------------------------------

 --
 TD
 --
 Symbolic Z-matrix:
 Charge =  0 Multiplicity = 1

                         Standard orientation:
 ---------------------------------------------------------------------
 Center     Atomic      Atomic             Coordinates (Angstroms)
 Number     Number       Type             X           Y           Z
 ---------------------------------------------------------------------
      1          8           0      -11.724450    0.298785   -1.432038
      2          8           0      -12.988541   -2.691403    1.295732
      3          8           0       10.697362   -0.937597   -2.161346
      4          8           0       14.500670   -0.917792   -0.107849
      5          6           0      -10.962536   -0.004544   -0.217301
      6          6           0      -11.599000   -1.013004   -1.283603
      7          6           0      -11.777524    0.302061    1.042658
      8          6           0      -13.045878   -1.752461   -1.032892
      9          6           0      -13.245425   -0.118290    0.899118
     10          6           0      -13.566680   -1.689842    0.417674
     11          6           0      -10.772699   -1.725917   -2.288401
     12          6           0       -9.515380    0.155260   -0.426450
     13          6           0      -11.151121   -0.305097    2.202698
     14          6           0      -11.758343    1.817813    1.143063
     15          6           0       -8.725645   -0.734992    0.175742
     16          6           0       -7.226884   -0.485055    0.116996
     17          6           0       -6.437277   -1.766875    0.603404
     18          6           0       -6.681305    0.739714   -0.020416
     19          6           0       -5.335177    0.920682   -0.196386
     20          6           0       11.925995   -0.067427    1.324686
     21          6           0       11.719004   -0.543835   -1.173971
     22          6           0       12.651443   -1.424443    1.445414
     23          6           0       13.479710   -1.848485    0.192723
     24          6           0       12.484248   -1.866160   -0.894726
     25          6           0       11.120318    0.059632    0.078497
     26          6           0       10.970921    0.090955    2.672514
     27          6           0       12.769928    1.174313    1.614743
     28          6           0       12.635061    0.517406   -1.886831
     29          6           0       -4.742428    2.182875   -0.335419
     30          6           0        9.893290    0.395199   -0.006781
     31          6           0       -3.391836    2.555442   -0.350270
     32          6           0        8.670864    0.995066   -0.050058
     33          6           0       -3.074485    4.002118   -0.500424
     34          6           0       -2.325060    1.536148   -0.185095
     35          6           0        7.520856    0.139797   -0.083879
     36          6           0        7.704734   -1.341164    0.080415
     37          6           0        6.256443    0.748226   -0.166090
     38          6           0       -1.028234    1.890754   -0.255610
     39          6           0        4.926931    0.142629   -0.213491
     40          6           0        0.077692    0.939235   -0.171914
     41          6           0        3.783833    0.869140   -0.229702
     42          6           0        1.402467    1.139515   -0.321348
     43          6           0        2.530919    0.365892   -0.190829
     44          6           0        2.199092   -1.147755   -0.084996
     45          1           0      -12.998668   -2.739134   -1.175997
     46          1           0      -13.678651   -1.268082   -1.736100
     47          1           0      -13.951157    0.080431    1.887178
     48          1           0      -13.728153    0.400276    0.173985
     49          1           0      -14.685598   -1.785224    0.542634
     50          1           0       -9.967592   -2.530077   -1.765247
     51          1           0      -11.470648   -2.141089   -3.046111
     52          1           0      -10.147903   -0.889518   -2.744598
     53          1           0       -9.225072    0.971903   -1.009350
     54          1           0      -10.045863    0.138345    2.374399
     55          1           0      -11.614222   -0.086374    3.260903
     56          1           0      -11.018782   -1.401136    2.168435
     57          1           0      -12.275612    2.130068    0.110705
     58          1           0      -12.348971    2.299937    2.047822
     59          1           0      -10.764392    2.260802    1.177493
     60          1           0      -12.230627   -2.664811    1.040658
     61          1           0       -9.158914   -1.512320    0.687875
     62          1           0       -5.840088   -2.043312   -0.301052
     63          1           0       -5.761403   -1.362038    1.461576
     64          1           0       -6.825474   -2.700546    0.847793
     65          1           0       -7.144053    1.607508   -0.243850
     66          1           0       -4.592967    0.148589    0.045106
     67          1           0       13.357552   -1.368991    2.551635
     68          1           0       11.968891   -2.286109    1.570734
     69          1           0       13.996925   -2.915569    0.321949
     70          1           0       12.905694   -2.163057   -1.918045
     71          1           0       11.729880   -2.473320   -0.690353
     72          1           0       11.596185    0.324866    3.514502
     73          1           0       10.140310    0.950416    2.829681
     74          1           0       10.418916   -0.831441    2.866423
     75          1           0       13.528027    1.210525    0.745185
     76          1           0       12.305154    2.162853    1.697711
     77          1           0       13.218001    0.653356    2.577540
     78          1           0       13.427656    0.095573   -2.648484
     79          1           0       11.985757    1.282535   -2.264321
     80          1           0       13.382379    1.006441   -1.192445
     81          1           0       -5.472438    3.044350   -0.672084
     82          1           0       10.137544   -0.119301   -2.508462
     83          1           0       15.060156   -0.867615    0.716069
     84          1           0        8.534879    2.026777   -0.131740
     85          1           0       -2.614444    4.616634    0.299985
     86          1           0       -2.386839    4.001943   -1.327346
     87          1           0       -4.076890    4.598615   -0.727267
     88          1           0       -2.707655    0.493001    0.028587
     89          1           0        6.730398   -1.830840    0.008657
     90          1           0        8.443312   -1.853645   -0.409866
     91          1           0        7.853470   -1.221365    1.143610
     92          1           0        6.041790    1.921270   -0.062396
     93          1           0       -0.605191    2.840686   -0.602901
     94          1           0        4.988675   -0.933925   -0.162648
     95          1           0       -0.155361   -0.151322   -0.017223
     96          1           0        3.826643    2.091971   -0.188193
     97          1           0        1.565863    2.213554   -0.398510
     98          1           0        1.066271   -1.319677    0.322992
     99          1           0        2.201305   -1.782808   -1.272089
    100          1           0        3.036681   -1.413687    0.778067
 ---------------------------------------------------------------------

 SCF Done:  E(RCAM-B3LYP) =  -1857.22563041     A.U. after   17 cycles

 Excitation energies and oscillator strengths:

 Excited State   1:      Singlet-A      1.7743 eV  698.77 nm  f=2.9860  <S**2>=0.000
     163 ->166        -0.10761
     164 ->165         0.71153
     164 <-165        -0.15074
 This state for optimization and/or second-order correction.
 Total Energy, E(TD-HF/TD-DFT) =  -1857.16042501
 Copying the excited state density for this state as the 1-particle RhoCI density.

 The electronic state is 1-A.
 Alpha  occ. eigenvalues --  -19.22942 -19.22639 -19.21668 -19.20221 -10.32963
 Alpha  occ. eigenvalues --  -10.32696 -10.32514 -10.31946 -10.31700 -10.29733
 Alpha  occ. eigenvalues --  -10.29716 -10.29386 -10.28378 -10.28325 -10.27890
 Alpha  occ. eigenvalues --  -10.27631 -10.27224 -10.27123 -10.27031 -10.26941
 Alpha  occ. eigenvalues --  -10.26889 -10.26866 -10.26866 -10.26841 -10.26810
 Alpha  occ. eigenvalues --  -10.26715 -10.26481 -10.26473 -10.26420 -10.26295
 Alpha  occ. eigenvalues --  -10.26281 -10.26218 -10.26049 -10.25942 -10.25891
 Alpha  occ. eigenvalues --  -10.25730 -10.25703 -10.25458 -10.25086 -10.25083
 Alpha  occ. eigenvalues --  -10.25078 -10.24987 -10.24832 -10.24814  -1.17575
 Alpha  occ. eigenvalues --   -1.13486  -1.10957  -1.07046  -0.93961  -0.92508
 Alpha  occ. eigenvalues --   -0.92237  -0.91549  -0.91007  -0.90059  -0.87535
 Alpha  occ. eigenvalues --   -0.86949  -0.86318  -0.85593  -0.85225  -0.83167
 Alpha  occ. eigenvalues --   -0.81562  -0.80636  -0.80471  -0.78391  -0.77881
 Alpha  occ. eigenvalues --   -0.76676  -0.75902  -0.75698  -0.74950  -0.74604
 Alpha  occ. eigenvalues --   -0.74491  -0.73815  -0.71994  -0.70283  -0.69602
 Alpha  occ. eigenvalues --   -0.68877  -0.66802  -0.65842  -0.65255  -0.63819
 Alpha  occ. eigenvalues --   -0.63121  -0.62403  -0.61554  -0.60144  -0.59951
 Alpha  occ. eigenvalues --   -0.59319  -0.58936  -0.57847  -0.57223  -0.56490
 Alpha  occ. eigenvalues --   -0.56151  -0.55438  -0.55018  -0.54833  -0.54658
 Alpha  occ. eigenvalues --   -0.53864  -0.52883  -0.52694  -0.52214  -0.51689
 Alpha  occ. eigenvalues --   -0.51326  -0.50991  -0.50634  -0.50265  -0.49868
 Alpha  occ. eigenvalues --   -0.49251  -0.49034  -0.48928  -0.48740  -0.48371
 Alpha  occ. eigenvalues --   -0.48311  -0.48272  -0.47920  -0.47588  -0.47157
 Alpha  occ. eigenvalues --   -0.46952  -0.46444  -0.46237  -0.45814  -0.45396
 Alpha  occ. eigenvalues --   -0.45117  -0.44738  -0.44712  -0.43880  -0.43716
 Alpha  occ. eigenvalues --   -0.43615  -0.43349  -0.42856  -0.42533  -0.42195
 Alpha  occ. eigenvalues --   -0.41937  -0.41766  -0.41648  -0.41174  -0.40690
 Alpha  occ. eigenvalues --   -0.40661  -0.40549  -0.40182  -0.39967  -0.39770
 Alpha  occ. eigenvalues --   -0.39405  -0.39178  -0.39071  -0.38939  -0.38684
 Alpha  occ. eigenvalues --   -0.38276  -0.38122  -0.37988  -0.37684  -0.36717
 Alpha  occ. eigenvalues --   -0.36300  -0.36277  -0.35559  -0.34763  -0.33159
 Alpha  occ. eigenvalues --   -0.32692  -0.32572  -0.32365  -0.31418  -0.30586
 Alpha  occ. eigenvalues --   -0.29836  -0.27705  -0.24455  -0.17901
 Alpha virt. eigenvalues --   -0.07181  -0.00210   0.03099   0.06320   0.07045
 Alpha virt. eigenvalues --    0.08781   0.10264   0.11132   0.11423   0.11464
 Alpha virt. eigenvalues --    0.12089   0.12175   0.12388   0.12922   0.13013

 Mulliken charges:
               1
     1  O   -0.487341
     2  O   -0.489604
     3  O   -0.594266
     4  O   -0.539050
     5  C    0.147759
     6  C    0.250988
     7  C    0.049441
     8  C   -0.229230
     9  C   -0.187420
    10  C    0.112794
    11  C   -0.323316
    12  C   -0.077915
    13  C   -0.299157
    14  C   -0.303417
    15  C   -0.068583
    16  C    0.036229
    17  C   -0.372755
    18  C   -0.069913
    19  C   -0.063205
    20  C    0.000221
    21  C    0.241553
    22  C   -0.198069
    23  C    0.164315
    24  C   -0.182839
    25  C   -0.086615
    26  C   -0.309297
    27  C   -0.270311
    28  C   -0.292730
    29  C   -0.147342
    30  C    0.163581
    31  C    0.087593
    32  C   -0.207339
    33  C   -0.370818
    34  C   -0.092935
    35  C    0.060573
    36  C   -0.359319
    37  C   -0.128260
    38  C   -0.093643
    39  C   -0.087862
    40  C   -0.090521
    41  C   -0.114010
    42  C   -0.118482
    43  C    0.135865
    44  C   -0.327666
    45  H    0.110688
    46  H    0.125716
    47  H    0.072218
    48  H    0.115063
    49  H    0.099939
    50  H    0.088477
    51  H    0.113460
    52  H    0.118125
    53  H    0.109173
    54  H    0.085192
    55  H    0.098266
    56  H    0.090538
    57  H    0.105471
    58  H    0.090913
    59  H    0.103757
    60  H    0.270383
    61  H    0.088684
    62  H    0.119543
    63  H    0.117702
    64  H    0.122194
    65  H    0.079737
    66  H    0.075708
    67  H    0.046785
    68  H    0.116000
    69  H    0.074849
    70  H    0.117254
    71  H    0.122738
    72  H    0.102585
    73  H    0.096305
    74  H    0.098181
    75  H    0.099166
    76  H    0.121262
    77  H    0.081416
    78  H    0.101965
    79  H    0.088464
    80  H    0.113442
    81  H    0.064804
    82  H    0.315169
    83  H    0.314451
    84  H    0.110186
    85  H    0.128481
    86  H    0.129984
    87  H    0.093987
    88  H    0.092956
    89  H    0.105753
    90  H    0.144159
    91  H    0.142004
    92  H    0.062389
    93  H    0.089667
    94  H    0.087918
    95  H    0.054025
    96  H    0.078097
    97  H    0.052525
    98  H    0.102478
    99  H    0.086424
   100  H    0.095501
 Sum of Mulliken charges =  -0.00000

 Dipole moment (field-independent basis, Debye):
    X=              4.4716    Y=              0.0060    Z=              1.4174  Tot=              4.6908
 Quadrupole moment (field-independent basis, Debye-Ang):
   XX=           -257.7384   YY=           -261.9619   ZZ=           -278.0313
   XY=             -5.6073   XZ=             37.6718   YZ=             -0.6114

 Normal termination of Gaussian 16 at Mon Jul 29 22:08:28 2019.
