 Gaussian 16, Revision A.03,
 Gaussian 16:  ES64L-G16RevA.03 25-Dec-2016

 -------------------------------------
 # td=(NStates=1) CAM-B3LYP/6-31G(d,p)
 -------------------------------------

 --
 TD
 --
 Symbolic Z-matrix:
 Charge =  0 Multiplicity = 1

                         Standard orientation:
 ---------------------------------------------------------------------
 Center     Atomic      Atomic             Coordinates (Angstroms)
 Number     Number       Type             X           Y           Z
 ---------------------------------------------------------------------
      1          8           0      -11.748632    0.304411   -1.485146
      2          8           0      -12.878091   -2.523722    1.434881
      3          8           0       10.560314   -1.138692   -2.009295
      4          8           0       14.441174   -1.205913   -0.156791
      5          6           0      -11.132968   -0.149715   -0.334414
      6          6           0      -11.723314   -1.238196   -1.143865
      7          6           0      -11.902487    0.385388    0.964902
      8          6           0      -13.183001   -1.737578   -0.958766
      9          6           0      -13.364044   -0.134754    1.003560
     10          6           0      -13.522989   -1.579718    0.512726
     11          6           0      -10.872716   -1.924561   -2.174860
     12          6           0       -9.649187    0.129876   -0.269317
     13          6           0      -11.148850   -0.043383    2.258032
     14          6           0      -11.997106    1.834049    0.947903
     15          6           0       -8.686155   -0.814690   -0.001640
     16          6           0       -7.308249   -0.552423   -0.017442
     17          6           0       -6.440776   -1.828413    0.342716
     18          6           0       -6.687954    0.661967   -0.133709
     19          6           0       -5.281348    0.912986   -0.119088
     20          6           0       12.031877    0.114723    1.367512
     21          6           0       11.691707   -0.639354   -1.210394
     22          6           0       12.726287   -1.251609    1.525480
     23          6           0       13.281334   -1.815510    0.288993
     24          6           0       12.393191   -1.916930   -0.832616
     25          6           0       11.129920    0.027663    0.034459
     26          6           0       11.106131    0.397506    2.608734
     27          6           0       13.068957    1.231040    1.277312
     28          6           0       12.563783    0.254650   -1.977665
     29          6           0       -4.763149    2.227840   -0.296073
     30          6           0        9.994891    0.609458   -0.022144
     31          6           0       -3.302762    2.516895   -0.522319
     32          6           0        8.723200    1.022907   -0.141845
     33          6           0       -3.114599    3.964964   -0.811732
     34          6           0       -2.260572    1.579612   -0.263357
     35          6           0        7.482190    0.190837   -0.072555
     36          6           0        7.744378   -1.219870    0.285121
     37          6           0        6.269242    0.799767   -0.101684
     38          6           0       -0.903796    1.822753   -0.375302
     39          6           0        5.007132    0.135185   -0.032343
     40          6           0        0.100419    0.921402   -0.043819
     41          6           0        3.856163    0.880414   -0.219596
     42          6           0        1.404864    1.179100   -0.249674
     43          6           0        2.532792    0.305571    0.024535
     44          6           0        2.450015   -1.126207    0.386413
     45          1           0      -13.273929   -2.757222   -1.554866
     46          1           0      -13.896540   -0.847635   -1.547728
     47          1           0      -13.711148   -0.113670    1.972257
     48          1           0      -13.854373    0.705135    0.469894
     49          1           0      -14.468462   -1.811017    0.580072
     50          1           0      -10.352050   -2.786254   -1.897977
     51          1           0      -11.395185   -2.213175   -3.127211
     52          1           0      -10.093739   -1.069170   -2.663641
     53          1           0       -9.438856    1.264173   -0.530455
     54          1           0      -10.110812    0.275181    2.501659
     55          1           0      -11.779524    0.271763    3.274507
     56          1           0      -11.240200   -1.104886    2.384617
     57          1           0      -12.524420    2.234297   -0.166874
     58          1           0      -12.579493    2.185149    1.989566
     59          1           0      -11.000272    2.308924    0.811720
     60          1           0      -11.920850   -2.739983    1.327962
     61          1           0       -9.015311   -1.739677    0.254805
     62          1           0       -5.811673   -2.010818   -0.582827
     63          1           0       -5.991732   -1.627123    1.412149
     64          1           0       -7.115430   -2.716667    0.550964
     65          1           0       -7.246978    1.736473   -0.017868
     66          1           0       -4.623684    0.085618    0.067099
     67          1           0       13.521612   -1.027645    2.226057
     68          1           0       11.873503   -1.847689    1.982776
     69          1           0       13.589902   -2.862319    0.458478
     70          1           0       13.052846   -2.232927   -1.601961
     71          1           0       11.705814   -2.943440   -0.718773
     72          1           0       11.750311    0.052692    3.543950
     73          1           0       10.742718    1.521317    2.552306
     74          1           0       10.289908   -0.224082    2.421465
     75          1           0       13.596529    0.924028    0.291142
     76          1           0       12.622649    2.082253    1.179465
     77          1           0       13.570085    1.394467    2.186579
     78          1           0       12.900933   -0.168286   -3.038290
     79          1           0       12.151713    1.347615   -2.156507
     80          1           0       13.649723    0.528537   -1.509102
     81          1           0       -5.533656    3.098496   -0.267617
     82          1           0       10.145987   -0.337027   -2.313758
     83          1           0       15.030590   -1.052229    0.589183
     84          1           0        8.633967    2.111746   -0.531278
     85          1           0       -2.599164    4.246891    0.108996
     86          1           0       -2.569109    4.323862   -1.791045
     87          1           0       -4.027404    4.211074   -0.570981
     88          1           0       -2.690587    0.637663    0.180309
     89          1           0        6.863430   -1.832525    0.496996
     90          1           0        8.467880   -1.493717   -0.481504
     91          1           0        8.537195   -1.291658    1.179831
     92          1           0        6.410959    1.831597   -0.344659
     93          1           0       -0.570603    2.761101   -0.781575
     94          1           0        5.128829   -0.902349    0.154628
     95          1           0       -0.241151   -0.038141    0.151459
     96          1           0        3.899432    1.855386   -0.711558
     97          1           0        1.629731    2.115576   -0.694808
     98          1           0        1.364380   -1.447328    0.157664
     99          1           0        2.911364   -1.711348   -0.442187
    100          1           0        2.761524   -1.451521    1.304235
 ---------------------------------------------------------------------

 SCF Done:  E(RCAM-B3LYP) =  -1857.30012399     A.U. after   15 cycles

 Excitation energies and oscillator strengths:

 Excited State   1:      Singlet-A      2.0531 eV  603.89 nm  f=3.0738  <S**2>=0.000
     163 ->166        -0.13264
     164 ->165         0.69651
     164 <-165        -0.10074
 This state for optimization and/or second-order correction.
 Total Energy, E(TD-HF/TD-DFT) =  -1857.22467389
 Copying the excited state density for this state as the 1-particle RhoCI density.

 The electronic state is 1-A.
 Alpha  occ. eigenvalues --  -19.21996 -19.21553 -19.21467 -19.20924 -10.32988
 Alpha  occ. eigenvalues --  -10.32357 -10.32077 -10.30507 -10.29814 -10.29319
 Alpha  occ. eigenvalues --  -10.28242 -10.28068 -10.27900 -10.27836 -10.27708
 Alpha  occ. eigenvalues --  -10.27697 -10.27557 -10.27540 -10.27207 -10.27022
 Alpha  occ. eigenvalues --  -10.26976 -10.26938 -10.26902 -10.26810 -10.26786
 Alpha  occ. eigenvalues --  -10.26585 -10.26337 -10.26272 -10.26183 -10.26063
 Alpha  occ. eigenvalues --  -10.25948 -10.25935 -10.25890 -10.25675 -10.25623
 Alpha  occ. eigenvalues --  -10.25473 -10.25229 -10.25153 -10.25069 -10.24887
 Alpha  occ. eigenvalues --  -10.24851 -10.24642 -10.24336 -10.22985  -1.13292
 Alpha  occ. eigenvalues --   -1.12266  -1.09087  -1.07703  -0.93274  -0.91829
 Alpha  occ. eigenvalues --   -0.91448  -0.90882  -0.90475  -0.89691  -0.87528
 Alpha  occ. eigenvalues --   -0.87271  -0.86821  -0.85801  -0.84979  -0.83052
 Alpha  occ. eigenvalues --   -0.82265  -0.80874  -0.80409  -0.79547  -0.77242
 Alpha  occ. eigenvalues --   -0.76391  -0.76094  -0.75869  -0.75695  -0.75149
 Alpha  occ. eigenvalues --   -0.74621  -0.73566  -0.72611  -0.70976  -0.70020
 Alpha  occ. eigenvalues --   -0.68510  -0.66559  -0.65419  -0.64280  -0.63811
 Alpha  occ. eigenvalues --   -0.63450  -0.62478  -0.61296  -0.59774  -0.59178
 Alpha  occ. eigenvalues --   -0.58684  -0.58366  -0.57410  -0.56855  -0.56321
 Alpha  occ. eigenvalues --   -0.55812  -0.55657  -0.54795  -0.54558  -0.54052
 Alpha  occ. eigenvalues --   -0.53381  -0.53135  -0.52574  -0.52358  -0.52132
 Alpha  occ. eigenvalues --   -0.51274  -0.50743  -0.50681  -0.50397  -0.50116
 Alpha  occ. eigenvalues --   -0.49831  -0.49446  -0.49053  -0.48553  -0.48518
 Alpha  occ. eigenvalues --   -0.48292  -0.47811  -0.47135  -0.46816  -0.46670
 Alpha  occ. eigenvalues --   -0.46478  -0.46286  -0.45698  -0.45506  -0.44994
 Alpha  occ. eigenvalues --   -0.44567  -0.44406  -0.44203  -0.43858  -0.43697
 Alpha  occ. eigenvalues --   -0.43254  -0.43060  -0.42721  -0.42691  -0.42221
 Alpha  occ. eigenvalues --   -0.41871  -0.41154  -0.41020  -0.40898  -0.40808
 Alpha  occ. eigenvalues --   -0.40638  -0.40218  -0.40142  -0.40055  -0.39717
 Alpha  occ. eigenvalues --   -0.39425  -0.39409  -0.39162  -0.38860  -0.38829
 Alpha  occ. eigenvalues --   -0.38712  -0.38052  -0.37354  -0.37156  -0.36667
 Alpha  occ. eigenvalues --   -0.35889  -0.35879  -0.35165  -0.34402  -0.34003
 Alpha  occ. eigenvalues --   -0.32837  -0.32567  -0.32054  -0.31128  -0.30927
 Alpha  occ. eigenvalues --   -0.30284  -0.27129  -0.24026  -0.18790
 Alpha virt. eigenvalues --   -0.05971  -0.00817   0.03105   0.06675   0.07138
 Alpha virt. eigenvalues --    0.07387   0.09976   0.10136   0.10825   0.11871
 Alpha virt. eigenvalues --    0.12145   0.12718   0.13011   0.13454   0.13841

 Mulliken charges:
               1
     1  O   -0.512901
     2  O   -0.579109
     3  O   -0.555395
     4  O   -0.542085
     5  C    0.247849
     6  C    0.186809
     7  C    0.043755
     8  C   -0.210583
     9  C   -0.189800
    10  C    0.192862
    11  C   -0.349760
    12  C   -0.093630
    13  C   -0.305266
    14  C   -0.290148
    15  C   -0.071941
    16  C    0.062673
    17  C   -0.368719
    18  C   -0.112075
    19  C   -0.062913
    20  C   -0.005834
    21  C    0.263985
    22  C   -0.177985
    23  C    0.167994
    24  C   -0.188451
    25  C   -0.095114
    26  C   -0.303742
    27  C   -0.286611
    28  C   -0.328455
    29  C   -0.157119
    30  C    0.136883
    31  C    0.053328
    32  C   -0.287128
    33  C   -0.352368
    34  C   -0.106331
    35  C    0.132047
    36  C   -0.386425
    37  C   -0.100085
    38  C   -0.089429
    39  C   -0.091536
    40  C   -0.056147
    41  C   -0.111160
    42  C   -0.120077
    43  C    0.084720
    44  C   -0.377739
    45  H    0.102350
    46  H    0.117584
    47  H    0.113253
    48  H    0.109081
    49  H    0.106783
    50  H    0.117896
    51  H    0.112901
    52  H    0.120258
    53  H    0.105641
    54  H    0.110676
    55  H    0.064323
    56  H    0.091762
    57  H    0.083858
    58  H    0.086542
    59  H    0.093699
    60  H    0.308434
    61  H    0.069956
    62  H    0.131823
    63  H    0.122656
    64  H    0.101082
    65  H    0.072739
    66  H    0.093907
    67  H    0.079875
    68  H    0.100658
    69  H    0.074318
    70  H    0.125314
    71  H    0.099881
    72  H    0.085521
    73  H    0.100577
    74  H    0.121214
    75  H    0.097951
    76  H    0.109069
    77  H    0.094793
    78  H    0.106049
    79  H    0.088580
    80  H    0.136717
    81  H    0.095674
    82  H    0.300238
    83  H    0.305328
    84  H    0.095240
    85  H    0.127636
    86  H    0.120756
    87  H    0.114322
    88  H    0.073997
    89  H    0.105408
    90  H    0.150150
    91  H    0.101731
    92  H    0.070233
    93  H    0.080468
    94  H    0.087531
    95  H    0.077101
    96  H    0.091889
    97  H    0.076558
    98  H    0.098482
    99  H    0.126177
   100  H    0.136516
 Sum of Mulliken charges =  -0.00000

 Dipole moment (field-independent basis, Debye):
    X=              2.4164    Y=             -0.7280    Z=              1.1837  Tot=              2.7875
 Quadrupole moment (field-independent basis, Debye-Ang):
   XX=           -251.4735   YY=           -260.2711   ZZ=           -277.3122
   XY=             14.7164   XZ=             24.6360   YZ=             -2.7952

 Normal termination of Gaussian 16 at Tue Jul 30 09:57:52 2019.
