 Gaussian 16, Revision A.03,
 Gaussian 16:  ES64L-G16RevA.03 25-Dec-2016

 -------------------------------------
 # td=(NStates=1) CAM-B3LYP/6-31G(d,p)
 -------------------------------------

 --
 TD
 --
 Symbolic Z-matrix:
 Charge =  0 Multiplicity = 1

                         Standard orientation:
 ---------------------------------------------------------------------
 Center     Atomic      Atomic             Coordinates (Angstroms)
 Number     Number       Type             X           Y           Z
 ---------------------------------------------------------------------
      1          8           0      -11.469575    0.028433   -1.628753
      2          8           0      -12.850095   -2.296410    1.502414
      3          8           0       10.582751   -1.206041   -2.103039
      4          8           0       14.515936   -0.877857   -0.176548
      5          6           0      -10.951464   -0.317627   -0.345258
      6          6           0      -11.561196   -1.328983   -1.208573
      7          6           0      -11.764869    0.467964    0.804108
      8          6           0      -12.989467   -1.858028   -0.806977
      9          6           0      -13.179456    0.004528    0.743693
     10          6           0      -13.493827   -1.337501    0.581238
     11          6           0      -10.663942   -2.212511   -2.024541
     12          6           0       -9.561866   -0.077739   -0.385266
     13          6           0      -11.116513    0.100114    2.194381
     14          6           0      -11.566737    1.975870    0.664886
     15          6           0       -8.609158   -0.872851    0.166887
     16          6           0       -7.172216   -0.691822    0.169167
     17          6           0       -6.328870   -1.837650    0.625843
     18          6           0       -6.622667    0.612034    0.011296
     19          6           0       -5.297582    0.976776   -0.011039
     20          6           0       11.868311   -0.000040    1.269825
     21          6           0       11.612316   -0.729794   -1.233387
     22          6           0       12.752229   -1.223104    1.544446
     23          6           0       13.423325   -1.717984    0.250907
     24          6           0       12.463650   -1.954842   -0.905868
     25          6           0       11.022172   -0.051646    0.047402
     26          6           0       11.103352    0.242315    2.483102
     27          6           0       12.685618    1.261772    1.258477
     28          6           0       12.470099    0.332780   -2.136637
     29          6           0       -4.808578    2.270194   -0.308684
     30          6           0        9.804852    0.402641    0.004953
     31          6           0       -3.451153    2.540475   -0.590010
     32          6           0        8.622862    1.014063   -0.078674
     33          6           0       -3.186558    4.001247   -0.867234
     34          6           0       -2.335784    1.759565   -0.266416
     35          6           0        7.419535    0.176716    0.089930
     36          6           0        7.599934   -1.277245    0.194157
     37          6           0        6.241594    0.756122   -0.101311
     38          6           0       -0.951891    1.862990   -0.320065
     39          6           0        4.874627    0.246151    0.097705
     40          6           0       -0.066265    0.902199   -0.006665
     41          6           0        3.720899    0.790031   -0.170675
     42          6           0        1.358224    1.245252   -0.268357
     43          6           0        2.360555    0.336792    0.016605
     44          6           0        2.172057   -1.095434    0.435553
     45          1           0      -13.287625   -2.938255   -0.974106
     46          1           0      -13.764093   -1.257988   -1.471528
     47          1           0      -13.724607    0.452767    1.627977
     48          1           0      -13.800490    0.594902   -0.162536
     49          1           0      -14.478537   -1.504922    0.413686
     50          1           0      -10.405398   -3.222709   -1.689235
     51          1           0      -10.987995   -2.400086   -3.040319
     52          1           0       -9.736862   -1.681759   -2.179559
     53          1           0       -9.173021    0.704931   -1.006603
     54          1           0      -10.143439    0.652686    2.225343
     55          1           0      -11.858756    0.319038    3.059197
     56          1           0      -10.959063   -0.975057    2.274502
     57          1           0      -12.108849    2.279624   -0.336347
     58          1           0      -12.195199    2.296384    1.587001
     59          1           0      -10.514958    2.268797    0.744118
     60          1           0      -11.893167   -2.114054    1.099086
     61          1           0       -8.877596   -1.873004    0.593148
     62          1           0       -5.798177   -2.154815   -0.142980
     63          1           0       -5.312547   -1.529437    1.049384
     64          1           0       -6.969397   -2.613177    1.162355
     65          1           0       -7.294141    1.443407   -0.019064
     66          1           0       -4.541845    0.159686    0.091760
     67          1           0       13.426108   -0.993933    2.363909
     68          1           0       12.171314   -2.105098    1.833697
     69          1           0       13.831835   -2.628351    0.396897
     70          1           0       13.053880   -2.301848   -1.778854
     71          1           0       11.693513   -2.603390   -0.550240
     72          1           0       11.676418    0.177810    3.401114
     73          1           0       10.456322    1.162980    2.572150
     74          1           0       10.167699   -0.466611    2.840307
     75          1           0       13.482864    0.997254    0.436627
     76          1           0       12.124511    2.231898    1.202278
     77          1           0       13.217857    1.193406    2.146369
     78          1           0       13.046806   -0.140789   -2.940158
     79          1           0       11.531220    0.947904   -2.573310
     80          1           0       13.166519    0.934123   -1.337848
     81          1           0       -5.499464    3.090252   -0.486770
     82          1           0        9.883550   -0.362935   -2.023012
     83          1           0       15.181129   -0.722052    0.602767
     84          1           0        8.493673    2.024237   -0.122762
     85          1           0       -2.547882    4.490882   -0.037957
     86          1           0       -2.491843    4.026793   -1.835633
     87          1           0       -4.165245    4.458067   -1.250397
     88          1           0       -2.689224    0.830629    0.319074
     89          1           0        6.627515   -1.841282    0.210521
     90          1           0        8.157188   -1.428130   -0.669129
     91          1           0        8.064647   -1.454162    1.237797
     92          1           0        6.375796    1.959581   -0.223628
     93          1           0       -0.565918    2.870728   -0.667439
     94          1           0        4.774670   -0.872229    0.312456
     95          1           0       -0.219080    0.014130    0.482285
     96          1           0        3.695208    1.973255   -0.144788
     97          1           0        1.786722    2.327365   -0.533455
     98          1           0        1.125256   -1.228457    0.504981
     99          1           0        2.529807   -1.616464   -0.387823
    100          1           0        2.653339   -1.200267    1.328554
 ---------------------------------------------------------------------

 SCF Done:  E(RCAM-B3LYP) =  -1857.33318796     A.U. after   15 cycles

 Excitation energies and oscillator strengths:

 Excited State   1:      Singlet-A      2.2483 eV  551.45 nm  f=2.4691  <S**2>=0.000
     163 ->166        -0.12129
     164 ->165         0.69860
 This state for optimization and/or second-order correction.
 Total Energy, E(TD-HF/TD-DFT) =  -1857.25056306
 Copying the excited state density for this state as the 1-particle RhoCI density.

 The electronic state is 1-A.
 Alpha  occ. eigenvalues --  -19.22528 -19.22297 -19.21602 -19.21431 -10.33466
 Alpha  occ. eigenvalues --  -10.31812 -10.31502 -10.30258 -10.29689 -10.28295
 Alpha  occ. eigenvalues --  -10.28163 -10.27589 -10.27553 -10.27519 -10.27425
 Alpha  occ. eigenvalues --  -10.27298 -10.27273 -10.27208 -10.27164 -10.27076
 Alpha  occ. eigenvalues --  -10.27076 -10.27005 -10.26951 -10.26947 -10.26857
 Alpha  occ. eigenvalues --  -10.26832 -10.26740 -10.26609 -10.26526 -10.26427
 Alpha  occ. eigenvalues --  -10.26415 -10.26191 -10.26088 -10.26051 -10.26016
 Alpha  occ. eigenvalues --  -10.25915 -10.25839 -10.25544 -10.25448 -10.25204
 Alpha  occ. eigenvalues --  -10.25162 -10.24861 -10.24746 -10.24324  -1.16846
 Alpha  occ. eigenvalues --   -1.08604  -1.07622  -1.07570  -0.94856  -0.92576
 Alpha  occ. eigenvalues --   -0.92305  -0.91784  -0.91418  -0.90520  -0.87979
 Alpha  occ. eigenvalues --   -0.86901  -0.86602  -0.85931  -0.85284  -0.83630
 Alpha  occ. eigenvalues --   -0.82843  -0.82055  -0.80370  -0.78838  -0.77725
 Alpha  occ. eigenvalues --   -0.76875  -0.76728  -0.76540  -0.75664  -0.75275
 Alpha  occ. eigenvalues --   -0.74786  -0.74619  -0.73819  -0.71594  -0.69946
 Alpha  occ. eigenvalues --   -0.68326  -0.66783  -0.65638  -0.65421  -0.64513
 Alpha  occ. eigenvalues --   -0.63678  -0.62043  -0.60538  -0.59766  -0.58680
 Alpha  occ. eigenvalues --   -0.58372  -0.58059  -0.57974  -0.57669  -0.57214
 Alpha  occ. eigenvalues --   -0.56531  -0.55653  -0.55554  -0.55163  -0.54661
 Alpha  occ. eigenvalues --   -0.54061  -0.52750  -0.52643  -0.52165  -0.52060
 Alpha  occ. eigenvalues --   -0.51982  -0.51270  -0.50989  -0.50638  -0.50542
 Alpha  occ. eigenvalues --   -0.49923  -0.49669  -0.49339  -0.49176  -0.48596
 Alpha  occ. eigenvalues --   -0.48390  -0.48013  -0.47970  -0.47628  -0.47305
 Alpha  occ. eigenvalues --   -0.46917  -0.46460  -0.46261  -0.45880  -0.45662
 Alpha  occ. eigenvalues --   -0.44927  -0.44869  -0.44623  -0.44515  -0.44122
 Alpha  occ. eigenvalues --   -0.44037  -0.43789  -0.43459  -0.43284  -0.42689
 Alpha  occ. eigenvalues --   -0.42499  -0.42095  -0.41933  -0.41725  -0.41445
 Alpha  occ. eigenvalues --   -0.41260  -0.40933  -0.40448  -0.40353  -0.40277
 Alpha  occ. eigenvalues --   -0.39572  -0.39458  -0.39281  -0.38980  -0.38249
 Alpha  occ. eigenvalues --   -0.37959  -0.37344  -0.37261  -0.36985  -0.36863
 Alpha  occ. eigenvalues --   -0.36686  -0.36054  -0.35147  -0.35116  -0.34243
 Alpha  occ. eigenvalues --   -0.32336  -0.32297  -0.31979  -0.31364  -0.31274
 Alpha  occ. eigenvalues --   -0.30019  -0.28220  -0.24842  -0.20154
 Alpha virt. eigenvalues --   -0.05913  -0.00687   0.02882   0.05909   0.06990
 Alpha virt. eigenvalues --    0.09397   0.09508   0.09837   0.11426   0.11460
 Alpha virt. eigenvalues --    0.11991   0.12256   0.12666   0.13081   0.13762

 Mulliken charges:
               1
     1  O   -0.501366
     2  O   -0.549365
     3  O   -0.570233
     4  O   -0.565721
     5  C    0.165399
     6  C    0.271219
     7  C    0.006576
     8  C   -0.241867
     9  C   -0.148724
    10  C    0.130292
    11  C   -0.351309
    12  C   -0.117195
    13  C   -0.296334
    14  C   -0.289581
    15  C   -0.091721
    16  C    0.086594
    17  C   -0.378076
    18  C   -0.110193
    19  C   -0.066269
    20  C    0.010300
    21  C    0.234807
    22  C   -0.202562
    23  C    0.160310
    24  C   -0.187569
    25  C   -0.051094
    26  C   -0.303237
    27  C   -0.282107
    28  C   -0.260464
    29  C   -0.123970
    30  C    0.102082
    31  C    0.092021
    32  C   -0.227199
    33  C   -0.368986
    34  C   -0.120210
    35  C    0.089563
    36  C   -0.344338
    37  C   -0.103045
    38  C   -0.067421
    39  C   -0.114963
    40  C   -0.079242
    41  C   -0.089176
    42  C   -0.127934
    43  C    0.071046
    44  C   -0.350634
    45  H    0.118443
    46  H    0.092020
    47  H    0.094785
    48  H    0.082866
    49  H    0.111413
    50  H    0.108241
    51  H    0.120042
    52  H    0.126899
    53  H    0.116616
    54  H    0.108284
    55  H    0.100492
    56  H    0.097852
    57  H    0.111358
    58  H    0.098070
    59  H    0.112504
    60  H    0.306808
    61  H    0.069085
    62  H    0.144688
    63  H    0.108347
    64  H    0.118024
    65  H    0.081084
    66  H    0.073514
    67  H    0.091903
    68  H    0.110532
    69  H    0.089381
    70  H    0.121375
    71  H    0.118793
    72  H    0.099702
    73  H    0.103965
    74  H    0.059190
    75  H    0.107126
    76  H    0.110353
    77  H    0.095087
    78  H    0.115481
    79  H    0.062391
    80  H    0.097271
    81  H    0.088103
    82  H    0.302289
    83  H    0.310259
    84  H    0.114221
    85  H    0.129255
    86  H    0.098234
    87  H    0.102430
    88  H    0.056283
    89  H    0.102594
    90  H    0.138628
    91  H    0.114413
    92  H    0.052797
    93  H    0.082685
    94  H    0.069428
    95  H    0.096619
    96  H    0.057944
    97  H    0.085909
    98  H    0.101043
    99  H    0.139532
   100  H    0.135249
 Sum of Mulliken charges =  -0.00000

 Dipole moment (field-independent basis, Debye):
    X=              2.1152    Y=             -0.2113    Z=              2.7994  Tot=              3.5150
 Quadrupole moment (field-independent basis, Debye-Ang):
   XX=           -257.1150   YY=           -263.9090   ZZ=           -282.0379
   XY=             -5.5325   XZ=             46.6147   YZ=              0.2869

 Normal termination of Gaussian 16 at Wed Jul 31 23:44:56 2019.
