 Gaussian 16, Revision A.03,
 Gaussian 16:  ES64L-G16RevA.03 25-Dec-2016

 -------------------------------------
 # td=(NStates=1) CAM-B3LYP/6-31G(d,p)
 -------------------------------------

 --
 TD
 --
 Symbolic Z-matrix:
 Charge =  0 Multiplicity = 1

                         Standard orientation:
 ---------------------------------------------------------------------
 Center     Atomic      Atomic             Coordinates (Angstroms)
 Number     Number       Type             X           Y           Z
 ---------------------------------------------------------------------
      1          8           0      -11.751187    0.397738   -1.421987
      2          8           0      -13.089060   -2.579349    1.184200
      3          8           0       10.664746   -0.851087   -2.075069
      4          8           0       14.461520   -1.046187   -0.057347
      5          6           0      -11.042199   -0.076145   -0.271863
      6          6           0      -11.714895   -0.991737   -1.345249
      7          6           0      -11.782518    0.161646    1.042194
      8          6           0      -13.036557   -1.643149   -1.049021
      9          6           0      -13.269222   -0.196007    1.021111
     10          6           0      -13.602629   -1.494818    0.399282
     11          6           0      -10.847500   -1.660286   -2.397801
     12          6           0       -9.590612    0.178081   -0.158022
     13          6           0      -11.097211   -0.473814    2.273664
     14          6           0      -11.863494    1.697757    1.219442
     15          6           0       -8.652188   -0.723612    0.070265
     16          6           0       -7.220206   -0.680589    0.081148
     17          6           0       -6.410453   -1.922833    0.336387
     18          6           0       -6.635155    0.617142   -0.066466
     19          6           0       -5.237956    0.899661   -0.043132
     20          6           0       11.948507   -0.125941    1.407430
     21          6           0       11.724258   -0.486166   -1.222768
     22          6           0       12.648018   -1.528592    1.426126
     23          6           0       13.329247   -1.866929    0.210575
     24          6           0       12.406503   -1.863287   -1.045896
     25          6           0       11.077261   -0.060269    0.061839
     26          6           0       10.850336   -0.080747    2.489553
     27          6           0       12.821924    0.997794    1.549658
     28          6           0       12.660430    0.579192   -1.822919
     29          6           0       -4.706731    2.139078   -0.217276
     30          6           0        9.926962    0.530931    0.047649
     31          6           0       -3.309602    2.540060   -0.363315
     32          6           0        8.732991    0.952255   -0.048906
     33          6           0       -3.080033    4.142364   -0.355629
     34          6           0       -2.286472    1.649643   -0.283519
     35          6           0        7.535702    0.140271    0.055900
     36          6           0        7.662208   -1.326229    0.011351
     37          6           0        6.293996    0.765653   -0.031401
     38          6           0       -0.866428    1.987764   -0.389765
     39          6           0        4.999476    0.303109   -0.006122
     40          6           0        0.137144    1.045539   -0.282645
     41          6           0        3.852386    0.970206   -0.190671
     42          6           0        1.409490    1.340137   -0.303334
     43          6           0        2.479348    0.412005   -0.191373
     44          6           0        2.328810   -1.041733   -0.033803
     45          1           0      -12.850097   -2.762101   -1.249982
     46          1           0      -13.387199   -1.084155   -1.946300
     47          1           0      -13.557433   -0.174794    2.027941
     48          1           0      -13.742398    0.653257    0.384141
     49          1           0      -14.613904   -1.770763    0.472808
     50          1           0      -10.574208   -2.622311   -2.133567
     51          1           0      -11.301263   -1.818706   -3.340714
     52          1           0       -9.914423   -1.072238   -2.466504
     53          1           0       -9.343343    1.088016   -0.430632
     54          1           0      -10.200321   -0.212765    2.293940
     55          1           0      -11.823165   -0.224058    3.226877
     56          1           0      -11.114050   -1.567974    2.187624
     57          1           0      -12.313748    2.394231    0.400438
     58          1           0      -12.463484    1.891862    2.075283
     59          1           0      -10.867726    2.124259    1.207083
     60          1           0      -12.173651   -2.651180    1.145266
     61          1           0       -8.921692   -1.809018    0.171528
     62          1           0       -5.885055   -2.020262   -0.618941
     63          1           0       -5.675653   -1.471925    1.035114
     64          1           0       -6.861633   -2.788451    0.729007
     65          1           0       -7.392190    1.244648   -0.263472
     66          1           0       -4.718988   -0.060376    0.102179
     67          1           0       13.422215   -1.386458    2.136498
     68          1           0       11.989390   -2.524351    1.712501
     69          1           0       13.616839   -2.916618    0.238566
     70          1           0       12.820706   -2.013414   -1.874096
     71          1           0       11.682297   -2.524319   -0.668348
     72          1           0       11.266305    0.284697    3.630510
     73          1           0       10.268969    0.937365    2.321605
     74          1           0       10.254556   -0.975384    2.521180
     75          1           0       13.482180    1.133154    0.592398
     76          1           0       12.344411    2.022262    1.628059
     77          1           0       13.535780    0.790294    2.338910
     78          1           0       13.194755    0.224617   -2.742090
     79          1           0       12.320256    1.619971   -2.071837
     80          1           0       13.338482    0.812368   -0.941522
     81          1           0       -5.431219    2.970715   -0.011211
     82          1           0       10.151596   -0.025176   -1.975509
     83          1           0       15.039297   -0.853037    0.717063
     84          1           0        8.454923    2.043121   -0.140672
     85          1           0       -2.305377    4.429915    0.492853
     86          1           0       -2.660294    4.475672   -1.275799
     87          1           0       -4.118071    4.475523   -0.247584
     88          1           0       -2.537753    0.542127   -0.120635
     89          1           0        6.667278   -1.772344   -0.045903
     90          1           0        8.466610   -1.764681   -0.650814
     91          1           0        8.051653   -1.685647    0.881396
     92          1           0        6.143634    1.914449   -0.117040
     93          1           0       -0.757414    3.104570   -0.671259
     94          1           0        4.856674   -0.756065    0.325604
     95          1           0       -0.153034    0.085956   -0.349203
     96          1           0        3.943400    2.039063   -0.407759
     97          1           0        1.782890    2.254066   -0.358130
     98          1           0        1.238456   -1.347665   -0.280825
     99          1           0        2.833650   -1.507174   -0.917526
    100          1           0        2.765826   -1.606106    0.787044
 ---------------------------------------------------------------------

 SCF Done:  E(RCAM-B3LYP) =  -1857.34337638     A.U. after   15 cycles

 Excitation energies and oscillator strengths:

 Excited State   1:      Singlet-A      2.2515 eV  550.68 nm  f=3.1577  <S**2>=0.000
     163 ->166        -0.15245
     164 ->165         0.68924
 This state for optimization and/or second-order correction.
 Total Energy, E(TD-HF/TD-DFT) =  -1857.26063578
 Copying the excited state density for this state as the 1-particle RhoCI density.

 The electronic state is 1-A.
 Alpha  occ. eigenvalues --  -19.22236 -19.21701 -19.20004 -19.20001 -10.31727
 Alpha  occ. eigenvalues --  -10.31261 -10.31051 -10.30301 -10.30107 -10.28606
 Alpha  occ. eigenvalues --  -10.28260 -10.28097 -10.27828 -10.27812 -10.27497
 Alpha  occ. eigenvalues --  -10.27267 -10.27026 -10.26970 -10.26957 -10.26859
 Alpha  occ. eigenvalues --  -10.26789 -10.26778 -10.26747 -10.26719 -10.26708
 Alpha  occ. eigenvalues --  -10.26613 -10.26466 -10.26413 -10.26177 -10.26111
 Alpha  occ. eigenvalues --  -10.26016 -10.25846 -10.25835 -10.25558 -10.25165
 Alpha  occ. eigenvalues --  -10.25062 -10.24779 -10.24770 -10.24531 -10.24371
 Alpha  occ. eigenvalues --  -10.24178 -10.24170 -10.24156 -10.23207  -1.15942
 Alpha  occ. eigenvalues --   -1.10425  -1.09707  -1.09507  -0.93883  -0.92822
 Alpha  occ. eigenvalues --   -0.92505  -0.91687  -0.91084  -0.89962  -0.88398
 Alpha  occ. eigenvalues --   -0.86987  -0.86771  -0.86034  -0.85288  -0.83937
 Alpha  occ. eigenvalues --   -0.82816  -0.81613  -0.81434  -0.78831  -0.78059
 Alpha  occ. eigenvalues --   -0.77249  -0.77004  -0.76909  -0.76568  -0.76257
 Alpha  occ. eigenvalues --   -0.75332  -0.74769  -0.73488  -0.70996  -0.70245
 Alpha  occ. eigenvalues --   -0.69137  -0.67902  -0.66344  -0.64594  -0.63827
 Alpha  occ. eigenvalues --   -0.63647  -0.63121  -0.61841  -0.60502  -0.59953
 Alpha  occ. eigenvalues --   -0.59657  -0.59253  -0.58202  -0.57245  -0.56976
 Alpha  occ. eigenvalues --   -0.56503  -0.56173  -0.55742  -0.55495  -0.55196
 Alpha  occ. eigenvalues --   -0.53879  -0.53549  -0.53103  -0.52999  -0.52598
 Alpha  occ. eigenvalues --   -0.52345  -0.51542  -0.51106  -0.50921  -0.50030
 Alpha  occ. eigenvalues --   -0.49928  -0.49823  -0.49202  -0.49148  -0.48683
 Alpha  occ. eigenvalues --   -0.47794  -0.47583  -0.47385  -0.47241  -0.47160
 Alpha  occ. eigenvalues --   -0.47107  -0.47059  -0.46779  -0.46463  -0.45886
 Alpha  occ. eigenvalues --   -0.45806  -0.45224  -0.45080  -0.44878  -0.44493
 Alpha  occ. eigenvalues --   -0.44159  -0.43921  -0.43803  -0.43236  -0.42983
 Alpha  occ. eigenvalues --   -0.42503  -0.42142  -0.42058  -0.41715  -0.41336
 Alpha  occ. eigenvalues --   -0.41183  -0.40998  -0.40597  -0.40427  -0.40083
 Alpha  occ. eigenvalues --   -0.39869  -0.39588  -0.39055  -0.38966  -0.38509
 Alpha  occ. eigenvalues --   -0.38087  -0.37953  -0.37787  -0.37673  -0.36856
 Alpha  occ. eigenvalues --   -0.36549  -0.36171  -0.35596  -0.34504  -0.33407
 Alpha  occ. eigenvalues --   -0.32617  -0.32452  -0.32312  -0.31626  -0.30447
 Alpha  occ. eigenvalues --   -0.29890  -0.27713  -0.24264  -0.19994
 Alpha virt. eigenvalues --   -0.05922  -0.01338   0.02944   0.06261   0.07256
 Alpha virt. eigenvalues --    0.09812   0.10974   0.11199   0.12334   0.12512
 Alpha virt. eigenvalues --    0.12880   0.13355   0.14023   0.14238   0.14524

 Mulliken charges:
               1
     1  O   -0.501979
     2  O   -0.560591
     3  O   -0.552807
     4  O   -0.563423
     5  C    0.203790
     6  C    0.205987
     7  C   -0.011835
     8  C   -0.205167
     9  C   -0.167920
    10  C    0.165605
    11  C   -0.330943
    12  C   -0.121516
    13  C   -0.265986
    14  C   -0.310966
    15  C   -0.068851
    16  C    0.037420
    17  C   -0.375208
    18  C   -0.070756
    19  C   -0.069720
    20  C    0.054403
    21  C    0.220469
    22  C   -0.190552
    23  C    0.154782
    24  C   -0.119349
    25  C   -0.089736
    26  C   -0.289504
    27  C   -0.308143
    28  C   -0.302594
    29  C   -0.137715
    30  C    0.182274
    31  C    0.069469
    32  C   -0.320156
    33  C   -0.365101
    34  C   -0.108429
    35  C    0.134995
    36  C   -0.393295
    37  C   -0.118751
    38  C   -0.099743
    39  C   -0.069448
    40  C   -0.066125
    41  C   -0.127964
    42  C   -0.062790
    43  C    0.098333
    44  C   -0.397080
    45  H    0.097029
    46  H    0.120371
    47  H    0.102623
    48  H    0.102146
    49  H    0.107434
    50  H    0.109970
    51  H    0.113995
    52  H    0.119845
    53  H    0.100388
    54  H    0.117574
    55  H    0.085634
    56  H    0.075427
    57  H    0.105986
    58  H    0.104583
    59  H    0.091142
    60  H    0.295194
    61  H    0.061164
    62  H    0.139660
    63  H    0.132664
    64  H    0.121125
    65  H    0.063026
    66  H    0.078414
    67  H    0.088117
    68  H    0.089166
    69  H    0.078959
    70  H    0.101812
    71  H    0.106719
    72  H    0.054922
    73  H    0.104738
    74  H    0.112333
    75  H    0.099665
    76  H    0.110740
    77  H    0.098037
    78  H    0.109869
    79  H    0.092597
    80  H    0.117538
    81  H    0.088580
    82  H    0.296093
    83  H    0.303213
    84  H    0.105195
    85  H    0.117100
    86  H    0.132472
    87  H    0.112751
    88  H    0.076437
    89  H    0.107339
    90  H    0.141276
    91  H    0.126680
    92  H    0.065502
    93  H    0.083745
    94  H    0.066713
    95  H    0.079888
    96  H    0.074695
    97  H    0.066348
    98  H    0.099860
    99  H    0.126546
   100  H    0.135578
 Sum of Mulliken charges =  -0.00000

 Dipole moment (field-independent basis, Debye):
    X=              3.9092    Y=             -0.2022    Z=              2.2541  Tot=              4.5170
 Quadrupole moment (field-independent basis, Debye-Ang):
   XX=           -286.0779   YY=           -258.1037   ZZ=           -279.8574
   XY=              1.4599   XZ=             33.6282   YZ=             -1.6763

 Normal termination of Gaussian 16 at Tue Jul 30 19:33:32 2019.
