 Gaussian 16, Revision A.03,
 Gaussian 16:  ES64L-G16RevA.03 25-Dec-2016

 -------------------------------------
 # td=(NStates=1) CAM-B3LYP/6-31G(d,p)
 -------------------------------------

 --
 TD
 --
 Symbolic Z-matrix:
 Charge =  0 Multiplicity = 1

                         Standard orientation:
 ---------------------------------------------------------------------
 Center     Atomic      Atomic             Coordinates (Angstroms)
 Number     Number       Type             X           Y           Z
 ---------------------------------------------------------------------
      1          8           0      -11.685685    0.351487   -1.554394
      2          8           0      -13.052303   -2.368847    1.265508
      3          8           0       10.725907   -0.901331   -2.158275
      4          8           0       14.471088   -1.033162   -0.199265
      5          6           0      -11.075068   -0.136604   -0.325934
      6          6           0      -11.691539   -1.078302   -1.247488
      7          6           0      -11.751549    0.428555    0.951156
      8          6           0      -13.181386   -1.580402   -1.043515
      9          6           0      -13.320039   -0.008447    0.891305
     10          6           0      -13.682159   -1.431265    0.403821
     11          6           0      -10.903809   -1.917688   -2.160025
     12          6           0       -9.608220   -0.040225   -0.324543
     13          6           0      -11.182593   -0.032577    2.146095
     14          6           0      -11.816456    1.953975    0.846323
     15          6           0       -8.611568   -0.692434    0.311103
     16          6           0       -7.244104   -0.589359    0.291797
     17          6           0       -6.503231   -1.859027    0.685118
     18          6           0       -6.660965    0.605846   -0.017949
     19          6           0       -5.209606    0.902061   -0.040490
     20          6           0       11.978344    0.025553    1.336317
     21          6           0       11.708555   -0.464566   -1.200835
     22          6           0       12.729284   -1.281553    1.480764
     23          6           0       13.326407   -1.755423    0.213746
     24          6           0       12.315361   -1.808509   -0.939601
     25          6           0       11.065909    0.044768    0.049068
     26          6           0       11.124208    0.305418    2.669237
     27          6           0       12.910740    1.283178    1.307534
     28          6           0       12.612648    0.462304   -1.961168
     29          6           0       -4.677267    2.102374   -0.385190
     30          6           0        9.867837    0.561627    0.035582
     31          6           0       -3.352812    2.354755   -0.430349
     32          6           0        8.638309    0.999068   -0.118558
     33          6           0       -2.949705    3.801714   -0.617517
     34          6           0       -2.274902    1.320935   -0.343400
     35          6           0        7.448014    0.144217    0.014055
     36          6           0        7.638179   -1.301223    0.222082
     37          6           0        6.196533    0.732660   -0.121144
     38          6           0       -0.878220    1.730285   -0.580465
     39          6           0        4.935642    0.056137    0.001150
     40          6           0        0.079752    0.733040   -0.289002
     41          6           0        3.829871    0.746423   -0.060115
     42          6           0        1.466232    1.142789   -0.152911
     43          6           0        2.578720    0.229191    0.047287
     44          6           0        2.373817   -1.302528    0.310547
     45          1           0      -13.182485   -2.690449   -1.094084
     46          1           0      -13.756759   -1.212947   -1.903471
     47          1           0      -13.735229    0.111928    1.984712
     48          1           0      -13.705262    0.738908    0.129489
     49          1           0      -14.942171   -1.520720    0.304946
     50          1           0      -10.866027   -2.907294   -1.634955
     51          1           0      -11.512824   -1.957656   -3.097980
     52          1           0       -9.811576   -1.558700   -2.269059
     53          1           0       -9.177504    0.827679   -0.846475
     54          1           0      -10.136149    0.275056    2.272144
     55          1           0      -11.746741    0.417944    3.035191
     56          1           0      -11.144268   -1.058993    2.118907
     57          1           0      -11.956842    2.492790   -0.054019
     58          1           0      -12.639144    2.396797    1.502140
     59          1           0      -10.771878    2.466259    1.095144
     60          1           0      -12.066531   -2.210366    1.356414
     61          1           0       -8.965312   -1.615801    0.801543
     62          1           0       -5.986547   -2.328344   -0.340941
     63          1           0       -5.769387   -1.708921    1.560903
     64          1           0       -7.166606   -2.594146    1.031503
     65          1           0       -7.288542    1.622537   -0.026509
     66          1           0       -4.444529    0.158545    0.295314
     67          1           0       13.430685   -1.371096    2.109653
     68          1           0       11.990048   -2.001157    1.816436
     69          1           0       13.671018   -2.717386    0.160335
     70          1           0       13.005611   -2.286321   -1.859953
     71          1           0       11.470856   -2.527784   -0.737060
     72          1           0       11.711789    0.280685    3.610922
     73          1           0       10.555922    1.199246    2.659974
     74          1           0       10.510890   -0.610305    2.786970
     75          1           0       13.733834    1.206438    0.528067
     76          1           0       12.331129    2.228936    1.074218
     77          1           0       13.260870    1.471057    2.266460
     78          1           0       12.941745    0.143113   -3.050426
     79          1           0       12.009592    1.332623   -2.004242
     80          1           0       13.472582    0.594512   -1.458101
     81          1           0       -5.352974    2.929294   -0.294821
     82          1           0       10.207833   -0.118962   -2.156970
     83          1           0       15.153564   -1.139283    0.533555
     84          1           0        8.242773    1.932104   -0.381474
     85          1           0       -2.423699    4.028827    0.273595
     86          1           0       -2.224116    4.026528   -1.464382
     87          1           0       -3.795886    4.681197   -0.749174
     88          1           0       -2.468602    0.377879   -0.257854
     89          1           0        6.767333   -1.837974    0.426006
     90          1           0        8.143194   -1.596176   -0.688444
     91          1           0        8.427172   -1.498804    1.078312
     92          1           0        6.111755    1.860681   -0.294662
     93          1           0       -0.681329    2.758143   -0.951224
     94          1           0        4.742012   -0.974924    0.116553
     95          1           0       -0.169301   -0.252055    0.014376
     96          1           0        4.011879    1.681542   -0.434672
     97          1           0        1.685301    2.172704   -0.171836
     98          1           0        1.458182   -1.601324    0.493327
     99          1           0        2.957269   -1.672154   -0.506563
    100          1           0        2.716332   -1.549543    1.340321
 ---------------------------------------------------------------------

 SCF Done:  E(RCAM-B3LYP) =  -1857.34586460     A.U. after   15 cycles

 Excitation energies and oscillator strengths:

 Excited State   1:      Singlet-A      2.0384 eV  608.24 nm  f=2.8696  <S**2>=0.000
     163 ->166         0.12591
     164 ->165         0.69875
     164 <-165        -0.10335
 This state for optimization and/or second-order correction.
 Total Energy, E(TD-HF/TD-DFT) =  -1857.27095403
 Copying the excited state density for this state as the 1-particle RhoCI density.

 The electronic state is 1-A.
 Alpha  occ. eigenvalues --  -19.21945 -19.21942 -19.21638 -19.19448 -10.32765
 Alpha  occ. eigenvalues --  -10.32015 -10.31783 -10.30352 -10.28990 -10.28964
 Alpha  occ. eigenvalues --  -10.27809 -10.27743 -10.27739 -10.27685 -10.27630
 Alpha  occ. eigenvalues --  -10.27624 -10.27526 -10.27428 -10.27403 -10.27333
 Alpha  occ. eigenvalues --  -10.27202 -10.26958 -10.26874 -10.26793 -10.26734
 Alpha  occ. eigenvalues --  -10.26455 -10.26307 -10.26166 -10.26077 -10.26075
 Alpha  occ. eigenvalues --  -10.25996 -10.25843 -10.25416 -10.25394 -10.25227
 Alpha  occ. eigenvalues --  -10.25169 -10.25031 -10.24951 -10.24892 -10.24404
 Alpha  occ. eigenvalues --  -10.24386 -10.24141 -10.23730 -10.22803  -1.13899
 Alpha  occ. eigenvalues --   -1.10233  -1.09667  -1.09312  -0.93238  -0.92800
 Alpha  occ. eigenvalues --   -0.92737  -0.91741  -0.90945  -0.90568  -0.87597
 Alpha  occ. eigenvalues --   -0.86059  -0.85915  -0.85490  -0.84589  -0.83538
 Alpha  occ. eigenvalues --   -0.82159  -0.81240  -0.80989  -0.78664  -0.77664
 Alpha  occ. eigenvalues --   -0.77359  -0.76921  -0.76690  -0.76614  -0.75373
 Alpha  occ. eigenvalues --   -0.75009  -0.74604  -0.73063  -0.70477  -0.69959
 Alpha  occ. eigenvalues --   -0.68292  -0.66885  -0.65414  -0.65158  -0.64498
 Alpha  occ. eigenvalues --   -0.63807  -0.62802  -0.62377  -0.60418  -0.59931
 Alpha  occ. eigenvalues --   -0.59081  -0.58738  -0.58020  -0.57417  -0.56693
 Alpha  occ. eigenvalues --   -0.56415  -0.55690  -0.54951  -0.54874  -0.54070
 Alpha  occ. eigenvalues --   -0.53890  -0.53296  -0.52809  -0.52542  -0.51730
 Alpha  occ. eigenvalues --   -0.51504  -0.51395  -0.51096  -0.50676  -0.50311
 Alpha  occ. eigenvalues --   -0.49745  -0.49383  -0.48825  -0.48743  -0.48661
 Alpha  occ. eigenvalues --   -0.48619  -0.48348  -0.48087  -0.47279  -0.46983
 Alpha  occ. eigenvalues --   -0.46665  -0.46408  -0.46127  -0.45605  -0.45517
 Alpha  occ. eigenvalues --   -0.44956  -0.44697  -0.44416  -0.44235  -0.44217
 Alpha  occ. eigenvalues --   -0.43978  -0.43704  -0.43308  -0.42510  -0.42423
 Alpha  occ. eigenvalues --   -0.42274  -0.42194  -0.41703  -0.41331  -0.41090
 Alpha  occ. eigenvalues --   -0.41054  -0.40621  -0.40517  -0.40215  -0.40012
 Alpha  occ. eigenvalues --   -0.39887  -0.39388  -0.39260  -0.38776  -0.38597
 Alpha  occ. eigenvalues --   -0.38587  -0.38015  -0.37842  -0.37450  -0.37143
 Alpha  occ. eigenvalues --   -0.36387  -0.35971  -0.35407  -0.34556  -0.33237
 Alpha  occ. eigenvalues --   -0.32547  -0.32499  -0.31914  -0.31831  -0.30739
 Alpha  occ. eigenvalues --   -0.30480  -0.28025  -0.24323  -0.19090
 Alpha virt. eigenvalues --   -0.06083  -0.00886   0.03142   0.05867   0.06088
 Alpha virt. eigenvalues --    0.09430   0.10138   0.10407   0.12150   0.12333
 Alpha virt. eigenvalues --    0.12827   0.13395   0.13585   0.13758   0.14138

 Mulliken charges:
               1
     1  O   -0.513568
     2  O   -0.558289
     3  O   -0.548283
     4  O   -0.555669
     5  C    0.209111
     6  C    0.220032
     7  C    0.028315
     8  C   -0.201103
     9  C   -0.192033
    10  C    0.161888
    11  C   -0.320770
    12  C   -0.121122
    13  C   -0.279848
    14  C   -0.319263
    15  C   -0.084623
    16  C    0.117994
    17  C   -0.359369
    18  C   -0.148629
    19  C   -0.082476
    20  C    0.008274
    21  C    0.213402
    22  C   -0.140128
    23  C    0.131071
    24  C   -0.175700
    25  C   -0.077121
    26  C   -0.319081
    27  C   -0.306784
    28  C   -0.280432
    29  C   -0.098043
    30  C    0.161117
    31  C    0.072322
    32  C   -0.276702
    33  C   -0.386002
    34  C   -0.099449
    35  C    0.121920
    36  C   -0.367659
    37  C   -0.154745
    38  C   -0.086990
    39  C   -0.075869
    40  C   -0.087131
    41  C   -0.064092
    42  C   -0.132421
    43  C    0.049083
    44  C   -0.352789
    45  H    0.106329
    46  H    0.120362
    47  H    0.085350
    48  H    0.108846
    49  H    0.082468
    50  H    0.104385
    51  H    0.118831
    52  H    0.119814
    53  H    0.095501
    54  H    0.113502
    55  H    0.105648
    56  H    0.066358
    57  H    0.137452
    58  H    0.099131
    59  H    0.073698
    60  H    0.321363
    61  H    0.049632
    62  H    0.106144
    63  H    0.118363
    64  H    0.121868
    65  H    0.089441
    66  H    0.085285
    67  H    0.081860
    68  H    0.099497
    69  H    0.082814
    70  H    0.085510
    71  H    0.109787
    72  H    0.097523
    73  H    0.120714
    74  H    0.095513
    75  H    0.114049
    76  H    0.094357
    77  H    0.104022
    78  H    0.104832
    79  H    0.082810
    80  H    0.138594
    81  H    0.084782
    82  H    0.285194
    83  H    0.308216
    84  H    0.103808
    85  H    0.139825
    86  H    0.116069
    87  H    0.092735
    88  H    0.074846
    89  H    0.113963
    90  H    0.143524
    91  H    0.100904
    92  H    0.078090
    93  H    0.098850
    94  H    0.079041
    95  H    0.089275
    96  H    0.072863
    97  H    0.083543
    98  H    0.111025
    99  H    0.135424
   100  H    0.118020
 Sum of Mulliken charges =  -0.00000

 Dipole moment (field-independent basis, Debye):
    X=              2.8009    Y=             -0.1857    Z=              3.2837  Tot=              4.3200
 Quadrupole moment (field-independent basis, Debye-Ang):
   XX=           -280.3024   YY=           -259.6115   ZZ=           -278.1608
   XY=             -5.2511   XZ=             32.9268   YZ=             -3.8658

 Normal termination of Gaussian 16 at Wed Jul 31 21:56:36 2019.
