 Gaussian 16, Revision A.03,
 Gaussian 16:  ES64L-G16RevA.03 25-Dec-2016

 -------------------------------------
 # td=(NStates=1) CAM-B3LYP/6-31G(d,p)
 -------------------------------------

 --
 TD
 --
 Symbolic Z-matrix:
 Charge =  0 Multiplicity = 1

                         Standard orientation:
 ---------------------------------------------------------------------
 Center     Atomic      Atomic             Coordinates (Angstroms)
 Number     Number       Type             X           Y           Z
 ---------------------------------------------------------------------
      1          8           0      -11.745460    0.371453   -1.436516
      2          8           0      -12.942420   -2.539727    1.380489
      3          8           0       10.714367   -0.869374   -1.998788
      4          8           0       14.518011   -0.912335    0.040958
      5          6           0      -11.054942   -0.063877   -0.291515
      6          6           0      -11.724514   -1.040326   -1.192513
      7          6           0      -11.763328    0.374173    1.042124
      8          6           0      -13.130721   -1.577137   -0.791927
      9          6           0      -13.303725    0.025271    1.036089
     10          6           0      -13.469479   -1.402871    0.618099
     11          6           0      -10.883648   -1.806250   -2.302832
     12          6           0       -9.546142    0.087388   -0.395992
     13          6           0      -10.994526   -0.058978    2.308436
     14          6           0      -11.720031    1.985731    1.083455
     15          6           0       -8.685995   -0.786226    0.072663
     16          6           0       -7.193400   -0.642415    0.130223
     17          6           0       -6.428743   -1.946069    0.249885
     18          6           0       -6.669537    0.599074   -0.176983
     19          6           0       -5.269124    0.783478   -0.082609
     20          6           0       11.798920    0.029409    1.456339
     21          6           0       11.761069   -0.448461   -1.245676
     22          6           0       12.543324   -1.344569    1.624019
     23          6           0       13.461282   -1.770266    0.316970
     24          6           0       12.497278   -1.777975   -1.002114
     25          6           0       11.097528    0.047206    0.041872
     26          6           0       10.903516    0.120628    2.616125
     27          6           0       12.783121    1.205349    1.643548
     28          6           0       12.568395    0.571026   -1.915274
     29          6           0       -4.733084    2.083945   -0.210873
     30          6           0        9.891522    0.622969    0.071986
     31          6           0       -3.307579    2.374468   -0.382577
     32          6           0        8.616203    0.940978   -0.045464
     33          6           0       -3.001772    3.855701   -0.685527
     34          6           0       -2.277017    1.469030   -0.313471
     35          6           0        7.442363    0.080013   -0.010852
     36          6           0        7.555998   -1.387990    0.106770
     37          6           0        6.233414    0.687600   -0.134706
     38          6           0       -0.937059    1.751886   -0.347204
     39          6           0        4.937151    0.027371   -0.378529
     40          6           0        0.042614    0.776709   -0.166312
     41          6           0        3.769408    0.834415   -0.436588
     42          6           0        1.359035    1.184639   -0.262357
     43          6           0        2.576266    0.252712   -0.325492
     44          6           0        2.350494   -1.238782   -0.065566
     45          1           0      -13.094802   -2.580786   -1.262486
     46          1           0      -13.859980   -1.244837   -1.518625
     47          1           0      -13.742186    0.178259    1.969647
     48          1           0      -13.825012    0.610520    0.379705
     49          1           0      -14.491424   -1.705793    0.846303
     50          1           0      -10.435383   -2.636517   -2.012757
     51          1           0      -11.471926   -1.933085   -3.203123
     52          1           0       -9.902214   -0.939846   -2.495385
     53          1           0       -9.458819    0.846951   -0.994903
     54          1           0      -10.046843    0.458911    2.438915
     55          1           0      -11.496376    0.129233    3.265010
     56          1           0      -10.669096   -1.115194    2.182980
     57          1           0      -12.145880    2.317458    0.052152
     58          1           0      -12.105610    2.383050    1.953998
     59          1           0      -10.696390    2.302370    1.134414
     60          1           0      -11.883302   -2.446031    1.211104
     61          1           0       -9.131397   -1.730782    0.504803
     62          1           0       -5.945679   -2.147532   -0.674983
     63          1           0       -5.633777   -1.982332    1.212954
     64          1           0       -7.019398   -2.852851    0.439469
     65          1           0       -7.388529    1.415582   -0.306290
     66          1           0       -4.778987   -0.044632    0.025189
     67          1           0       13.300262   -1.201059    2.286926
     68          1           0       11.872802   -2.346548    1.619827
     69          1           0       13.865380   -2.808056    0.440274
     70          1           0       13.214652   -1.967134   -1.910576
     71          1           0       11.569178   -2.482766   -1.094089
     72          1           0       11.520567    0.148065    3.546433
     73          1           0       10.406492    1.170800    2.571756
     74          1           0       10.171675   -0.569365    2.791034
     75          1           0       13.817359    1.128799    0.972531
     76          1           0       12.241170    2.089988    1.204857
     77          1           0       13.181764    1.224722    2.679261
     78          1           0       13.005652    0.111721   -2.829104
     79          1           0       11.773924    1.386368   -2.242515
     80          1           0       13.436971    1.315202   -1.250091
     81          1           0       -5.430380    2.940352    0.046728
     82          1           0       10.101549   -0.075330   -2.175987
     83          1           0       15.215649   -0.835016    0.812752
     84          1           0        8.608887    1.959100   -0.258633
     85          1           0       -2.299581    4.149303    0.030801
     86          1           0       -2.383662    4.033776   -1.556331
     87          1           0       -3.924661    4.621518   -0.691698
     88          1           0       -2.656452    0.322576   -0.075084
     89          1           0        6.568351   -2.051835    0.216910
     90          1           0        8.207066   -2.085190   -0.487990
     91          1           0        8.069882   -1.618267    1.055223
     92          1           0        6.330242    1.811463   -0.195641
     93          1           0       -0.593649    2.904196   -0.442568
     94          1           0        4.821022   -1.127328   -0.416817
     95          1           0       -0.247439   -0.139227   -0.127980
     96          1           0        3.843253    1.910173   -0.429298
     97          1           0        1.644249    2.368320   -0.393346
     98          1           0        1.461578   -1.582763   -0.155635
     99          1           0        2.827879   -1.652369   -0.985061
    100          1           0        2.758179   -1.610314    0.872002
 ---------------------------------------------------------------------

 SCF Done:  E(RCAM-B3LYP) =  -1857.26153691     A.U. after   15 cycles

 Excitation energies and oscillator strengths:

 Excited State   1:      Singlet-A      1.9220 eV  645.07 nm  f=3.0866  <S**2>=0.000
     163 ->166         0.12350
     164 ->165         0.70314
     164 <-165        -0.12654
 This state for optimization and/or second-order correction.
 Total Energy, E(TD-HF/TD-DFT) =  -1857.19090354
 Copying the excited state density for this state as the 1-particle RhoCI density.

 The electronic state is 1-A.
 Alpha  occ. eigenvalues --  -19.22524 -19.22188 -19.21651 -19.21064 -10.32352
 Alpha  occ. eigenvalues --  -10.31882 -10.31750 -10.31049 -10.29651 -10.28212
 Alpha  occ. eigenvalues --  -10.28186 -10.28183 -10.27891 -10.27795 -10.27718
 Alpha  occ. eigenvalues --  -10.27657 -10.27624 -10.27603 -10.27591 -10.27448
 Alpha  occ. eigenvalues --  -10.27292 -10.26905 -10.26651 -10.26647 -10.26578
 Alpha  occ. eigenvalues --  -10.26492 -10.26487 -10.26386 -10.26369 -10.26144
 Alpha  occ. eigenvalues --  -10.26112 -10.26014 -10.25891 -10.25862 -10.25822
 Alpha  occ. eigenvalues --  -10.25799 -10.25475 -10.25198 -10.25032 -10.25021
 Alpha  occ. eigenvalues --  -10.24898 -10.24266 -10.24133 -10.23755  -1.16169
 Alpha  occ. eigenvalues --   -1.11731  -1.09515  -1.06600  -0.92261  -0.92084
 Alpha  occ. eigenvalues --   -0.91629  -0.90876  -0.90093  -0.89799  -0.87709
 Alpha  occ. eigenvalues --   -0.86380  -0.85240  -0.85063  -0.84187  -0.82433
 Alpha  occ. eigenvalues --   -0.81099  -0.80696  -0.79698  -0.78561  -0.76927
 Alpha  occ. eigenvalues --   -0.76919  -0.76678  -0.76491  -0.75599  -0.75156
 Alpha  occ. eigenvalues --   -0.74449  -0.74063  -0.72463  -0.70667  -0.69323
 Alpha  occ. eigenvalues --   -0.68700  -0.66994  -0.65849  -0.64978  -0.63925
 Alpha  occ. eigenvalues --   -0.63481  -0.61857  -0.61007  -0.60563  -0.60219
 Alpha  occ. eigenvalues --   -0.58546  -0.58386  -0.58074  -0.57545  -0.56980
 Alpha  occ. eigenvalues --   -0.55771  -0.54653  -0.54323  -0.54009  -0.53824
 Alpha  occ. eigenvalues --   -0.53667  -0.52647  -0.51973  -0.51885  -0.51445
 Alpha  occ. eigenvalues --   -0.51134  -0.50794  -0.50498  -0.49992  -0.49392
 Alpha  occ. eigenvalues --   -0.48964  -0.48952  -0.48832  -0.48553  -0.48244
 Alpha  occ. eigenvalues --   -0.47950  -0.47408  -0.47188  -0.47042  -0.46814
 Alpha  occ. eigenvalues --   -0.46360  -0.46197  -0.45492  -0.45263  -0.45129
 Alpha  occ. eigenvalues --   -0.45012  -0.44501  -0.44476  -0.44438  -0.44072
 Alpha  occ. eigenvalues --   -0.44018  -0.43854  -0.43227  -0.42936  -0.42773
 Alpha  occ. eigenvalues --   -0.42712  -0.41953  -0.41777  -0.41130  -0.41036
 Alpha  occ. eigenvalues --   -0.40845  -0.40497  -0.40332  -0.40231  -0.40120
 Alpha  occ. eigenvalues --   -0.39216  -0.39169  -0.38923  -0.38477  -0.38019
 Alpha  occ. eigenvalues --   -0.37882  -0.37653  -0.37482  -0.37144  -0.36942
 Alpha  occ. eigenvalues --   -0.36072  -0.35445  -0.34552  -0.34196  -0.33808
 Alpha  occ. eigenvalues --   -0.32760  -0.32006  -0.31708  -0.30987  -0.30699
 Alpha  occ. eigenvalues --   -0.29219  -0.28052  -0.24513  -0.18364
 Alpha virt. eigenvalues --   -0.06685  -0.00886   0.03804   0.06622   0.07112
 Alpha virt. eigenvalues --    0.08463   0.09239   0.09927   0.11595   0.12069
 Alpha virt. eigenvalues --    0.12507   0.13043   0.13211   0.13567   0.13943

 Mulliken charges:
               1
     1  O   -0.497102
     2  O   -0.558806
     3  O   -0.554711
     4  O   -0.539940
     5  C    0.170562
     6  C    0.194574
     7  C    0.010158
     8  C   -0.194521
     9  C   -0.167764
    10  C    0.139187
    11  C   -0.311921
    12  C   -0.068726
    13  C   -0.307841
    14  C   -0.322584
    15  C   -0.092470
    16  C    0.075209
    17  C   -0.379743
    18  C   -0.101933
    19  C   -0.037312
    20  C    0.017448
    21  C    0.277876
    22  C   -0.172302
    23  C    0.145046
    24  C   -0.206312
    25  C   -0.036037
    26  C   -0.280483
    27  C   -0.304159
    28  C   -0.259819
    29  C   -0.149460
    30  C    0.046709
    31  C    0.096312
    32  C   -0.251587
    33  C   -0.384953
    34  C   -0.111352
    35  C    0.176794
    36  C   -0.397026
    37  C   -0.130858
    38  C   -0.088558
    39  C   -0.127704
    40  C   -0.034306
    41  C   -0.080425
    42  C   -0.140808
    43  C    0.073110
    44  C   -0.354979
    45  H    0.100957
    46  H    0.118307
    47  H    0.106214
    48  H    0.123939
    49  H    0.097338
    50  H    0.124726
    51  H    0.118539
    52  H    0.083287
    53  H    0.101247
    54  H    0.113959
    55  H    0.110952
    56  H    0.074249
    57  H    0.113049
    58  H    0.108662
    59  H    0.095092
    60  H    0.286947
    61  H    0.070686
    62  H    0.143349
    63  H    0.093387
    64  H    0.117313
    65  H    0.094321
    66  H    0.074225
    67  H    0.078054
    68  H    0.090018
    69  H    0.071536
    70  H    0.093172
    71  H    0.119749
    72  H    0.088045
    73  H    0.086920
    74  H    0.111079
    75  H    0.086057
    76  H    0.108219
    77  H    0.098304
    78  H    0.112682
    79  H    0.061325
    80  H    0.093069
    81  H    0.096886
    82  H    0.305733
    83  H    0.314616
    84  H    0.107423
    85  H    0.130451
    86  H    0.127545
    87  H    0.097949
    88  H    0.067590
    89  H    0.094545
    90  H    0.135150
    91  H    0.120546
    92  H    0.083128
    93  H    0.079310
    94  H    0.099525
    95  H    0.073551
    96  H    0.090755
    97  H    0.070310
    98  H    0.113711
    99  H    0.115817
   100  H    0.130003
 Sum of Mulliken charges =  -0.00000

 Dipole moment (field-independent basis, Debye):
    X=              2.4614    Y=             -0.0641    Z=              1.5040  Tot=              2.8852
 Quadrupole moment (field-independent basis, Debye-Ang):
   XX=           -274.6088   YY=           -260.8725   ZZ=           -277.7147
   XY=             -5.4941   XZ=             26.9667   YZ=              1.4911

 Normal termination of Gaussian 16 at Fri Aug  2 07:51:51 2019.
