 Gaussian 16, Revision A.03,
 Gaussian 16:  ES64L-G16RevA.03 25-Dec-2016

 -------------------------------------
 # td=(NStates=1) CAM-B3LYP/6-31G(d,p)
 -------------------------------------

 --
 TD
 --
 Symbolic Z-matrix:
 Charge =  0 Multiplicity = 1

                         Standard orientation:
 ---------------------------------------------------------------------
 Center     Atomic      Atomic             Coordinates (Angstroms)
 Number     Number       Type             X           Y           Z
 ---------------------------------------------------------------------
      1          8           0      -11.682756    0.015124   -1.665439
      2          8           0      -12.730003   -2.413628    1.598188
      3          8           0       10.452588   -1.371142   -1.966735
      4          8           0       14.330871   -1.011377   -0.139176
      5          6           0      -10.977504   -0.184963   -0.461015
      6          6           0      -11.546268   -1.355932   -1.201055
      7          6           0      -11.703643    0.402852    0.834640
      8          6           0      -12.845562   -1.926083   -0.792495
      9          6           0      -13.253491   -0.064443    0.814590
     10          6           0      -13.392168   -1.547017    0.549279
     11          6           0      -10.714972   -2.198838   -2.067578
     12          6           0       -9.551713    0.087195   -0.555860
     13          6           0      -11.022830    0.051418    2.125981
     14          6           0      -11.684743    1.938155    0.723233
     15          6           0       -8.593471   -0.635975    0.089579
     16          6           0       -7.212542   -0.444893    0.160335
     17          6           0       -6.301961   -1.523535    0.911062
     18          6           0       -6.548467    0.720867   -0.289133
     19          6           0       -5.226509    0.968463   -0.143952
     20          6           0       11.869196    0.083551    1.303544
     21          6           0       11.583981   -0.735813   -1.274143
     22          6           0       12.556297   -1.241921    1.535180
     23          6           0       13.302197   -1.831474    0.346435
     24          6           0       12.274501   -2.000006   -0.828497
     25          6           0       11.097430   -0.062916   -0.030088
     26          6           0       11.023564    0.327726    2.526628
     27          6           0       12.922469    1.226783    1.088500
     28          6           0       12.357864    0.250152   -2.257330
     29          6           0       -4.686962    2.242903   -0.443977
     30          6           0        9.875489    0.523039   -0.066005
     31          6           0       -3.381280    2.500625   -0.531117
     32          6           0        8.610118    0.997176   -0.128823
     33          6           0       -3.046763    3.944050   -0.715492
     34          6           0       -2.389394    1.606106   -0.285500
     35          6           0        7.429488    0.230890    0.076127
     36          6           0        7.605781   -1.231805    0.289477
     37          6           0        6.183152    0.916937   -0.112809
     38          6           0       -0.975297    1.876865   -0.248244
     39          6           0        5.025637    0.372390    0.137992
     40          6           0       -0.062506    0.857152   -0.078320
     41          6           0        3.736258    0.981002   -0.003740
     42          6           0        1.334748    1.221808   -0.152826
     43          6           0        2.511840    0.391740    0.072034
     44          6           0        2.317264   -1.032933    0.322197
     45          1           0      -12.837067   -3.069206   -0.900194
     46          1           0      -13.667711   -1.570476   -1.484599
     47          1           0      -13.780983    0.217047    1.879865
     48          1           0      -13.794962    0.375328   -0.049431
     49          1           0      -14.368276   -1.919481    0.767311
     50          1           0      -10.571224   -3.151614   -1.580097
     51          1           0      -11.384935   -2.553694   -2.881552
     52          1           0       -9.743659   -1.660402   -2.442038
     53          1           0       -9.338382    0.841405   -1.312779
     54          1           0       -9.948554    0.449975    2.151248
     55          1           0      -11.782504    0.306965    3.093162
     56          1           0      -10.938255   -1.110719    2.296450
     57          1           0      -12.262992    2.173035   -0.385984
     58          1           0      -11.992135    2.400784    1.625539
     59          1           0      -10.762050    2.309512    0.725507
     60          1           0      -11.787003   -2.420591    1.455756
     61          1           0       -9.039531   -1.482505    0.763068
     62          1           0       -5.447743   -1.939360    0.274053
     63          1           0       -5.883284   -1.177230    2.087025
     64          1           0       -6.931428   -2.464681    1.031591
     65          1           0       -7.238060    1.408287   -0.617747
     66          1           0       -4.710913    0.065184    0.219264
     67          1           0       13.258513   -1.405756    2.378601
     68          1           0       11.927872   -2.076390    1.724702
     69          1           0       13.564629   -2.776581    0.510250
     70          1           0       12.864578   -2.617910   -1.572727
     71          1           0       11.590344   -2.713804   -0.454544
     72          1           0       11.704761    0.641488    3.274117
     73          1           0       10.382901    1.162976    2.139626
     74          1           0       10.228230   -0.204673    2.762841
     75          1           0       13.481922    1.205333    0.138257
     76          1           0       12.371276    2.222807    1.161779
     77          1           0       13.634875    1.340693    2.048314
     78          1           0       12.919376   -0.375039   -3.026003
     79          1           0       11.259115    0.902902   -2.488586
     80          1           0       13.250666    0.574815   -1.902446
     81          1           0       -5.405139    3.044790   -0.871358
     82          1           0        9.623044   -0.821174   -2.042746
     83          1           0       14.860113   -0.799625    0.658651
     84          1           0        8.427721    2.120209   -0.265734
     85          1           0       -2.643710    4.362079    0.244827
     86          1           0       -2.201692    4.075431   -1.577761
     87          1           0       -3.835406    4.677064   -0.940889
     88          1           0       -2.690108    0.557925   -0.188586
     89          1           0        6.705885   -1.996207    0.055433
     90          1           0        8.449130   -1.606510   -0.475013
     91          1           0        8.204419   -1.526919    1.314073
     92          1           0        6.219688    1.988899   -0.305477
     93          1           0       -0.611329    2.842858   -0.267213
     94          1           0        4.855669   -0.741898    0.239800
     95          1           0       -0.230389   -0.181398    0.097395
     96          1           0        3.927067    2.152503   -0.091657
     97          1           0        1.570557    2.334943   -0.208241
     98          1           0        1.142145   -1.289312    0.470974
     99          1           0        2.675276   -1.832186   -0.498078
    100          1           0        2.768670   -1.229499    1.194413
 ---------------------------------------------------------------------

 SCF Done:  E(RCAM-B3LYP) =  -1857.29638180     A.U. after   18 cycles

 Excitation energies and oscillator strengths:

 Excited State   1:      Singlet-A      1.7405 eV  712.36 nm  f=3.3618  <S**2>=0.000
     163 ->166        -0.13172
     164 ->165         0.70123
     164 <-165        -0.12600
 This state for optimization and/or second-order correction.
 Total Energy, E(TD-HF/TD-DFT) =  -1857.23242105
 Copying the excited state density for this state as the 1-particle RhoCI density.

 The electronic state is 1-A.
 Alpha  occ. eigenvalues --  -19.22182 -19.21964 -19.20558 -19.19516 -10.32459
 Alpha  occ. eigenvalues --  -10.31853 -10.31826 -10.30246 -10.29004 -10.28929
 Alpha  occ. eigenvalues --  -10.28799 -10.28669 -10.28495 -10.28255 -10.28116
 Alpha  occ. eigenvalues --  -10.28111 -10.28066 -10.27914 -10.27847 -10.27648
 Alpha  occ. eigenvalues --  -10.27614 -10.27174 -10.27154 -10.27118 -10.27014
 Alpha  occ. eigenvalues --  -10.26916 -10.26747 -10.26728 -10.26655 -10.26506
 Alpha  occ. eigenvalues --  -10.26475 -10.26432 -10.26428 -10.26368 -10.26305
 Alpha  occ. eigenvalues --  -10.26264 -10.26127 -10.26075 -10.26072 -10.25386
 Alpha  occ. eigenvalues --  -10.24784 -10.24385 -10.24162 -10.23465  -1.15641
 Alpha  occ. eigenvalues --   -1.10666  -1.07433  -1.06479  -0.93527  -0.93311
 Alpha  occ. eigenvalues --   -0.92538  -0.91403  -0.90821  -0.89836  -0.88104
 Alpha  occ. eigenvalues --   -0.87684  -0.86218  -0.86117  -0.85399  -0.83696
 Alpha  occ. eigenvalues --   -0.82781  -0.80833  -0.79806  -0.78294  -0.77267
 Alpha  occ. eigenvalues --   -0.76626  -0.76181  -0.75936  -0.75891  -0.75666
 Alpha  occ. eigenvalues --   -0.75209  -0.74340  -0.72716  -0.70668  -0.70158
 Alpha  occ. eigenvalues --   -0.68554  -0.67224  -0.65635  -0.65281  -0.64619
 Alpha  occ. eigenvalues --   -0.64271  -0.62438  -0.61165  -0.60270  -0.59824
 Alpha  occ. eigenvalues --   -0.58896  -0.58585  -0.58238  -0.57145  -0.56352
 Alpha  occ. eigenvalues --   -0.56108  -0.55891  -0.55466  -0.54812  -0.54360
 Alpha  occ. eigenvalues --   -0.53690  -0.53446  -0.52655  -0.52482  -0.51774
 Alpha  occ. eigenvalues --   -0.51429  -0.50660  -0.50440  -0.50076  -0.49579
 Alpha  occ. eigenvalues --   -0.49336  -0.49142  -0.48731  -0.48386  -0.48258
 Alpha  occ. eigenvalues --   -0.47783  -0.47284  -0.47125  -0.47060  -0.46795
 Alpha  occ. eigenvalues --   -0.46577  -0.46310  -0.46133  -0.45724  -0.44769
 Alpha  occ. eigenvalues --   -0.44701  -0.44401  -0.43914  -0.43826  -0.43640
 Alpha  occ. eigenvalues --   -0.43504  -0.43164  -0.42953  -0.42616  -0.42410
 Alpha  occ. eigenvalues --   -0.42190  -0.41897  -0.41620  -0.41485  -0.41147
 Alpha  occ. eigenvalues --   -0.40751  -0.40459  -0.40298  -0.40007  -0.39723
 Alpha  occ. eigenvalues --   -0.39549  -0.39524  -0.38822  -0.38651  -0.38504
 Alpha  occ. eigenvalues --   -0.38354  -0.38204  -0.37954  -0.37665  -0.37250
 Alpha  occ. eigenvalues --   -0.36642  -0.36055  -0.35736  -0.35099  -0.34140
 Alpha  occ. eigenvalues --   -0.32707  -0.32339  -0.32299  -0.31820  -0.30932
 Alpha  occ. eigenvalues --   -0.29665  -0.28631  -0.23305  -0.18519
 Alpha virt. eigenvalues --   -0.07721  -0.02630   0.03143   0.05057   0.06798
 Alpha virt. eigenvalues --    0.09685   0.09900   0.10435   0.11700   0.11993
 Alpha virt. eigenvalues --    0.12516   0.12719   0.12777   0.13033   0.13409

 Mulliken charges:
               1
     1  O   -0.516028
     2  O   -0.578841
     3  O   -0.575537
     4  O   -0.540564
     5  C    0.212462
     6  C    0.258893
     7  C    0.029440
     8  C   -0.223025
     9  C   -0.177513
    10  C    0.151645
    11  C   -0.338456
    12  C   -0.129006
    13  C   -0.297085
    14  C   -0.291087
    15  C   -0.086897
    16  C    0.062844
    17  C   -0.367619
    18  C   -0.071728
    19  C   -0.065065
    20  C    0.027941
    21  C    0.250546
    22  C   -0.191571
    23  C    0.139095
    24  C   -0.191242
    25  C   -0.035479
    26  C   -0.294705
    27  C   -0.312715
    28  C   -0.268240
    29  C   -0.148809
    30  C    0.076371
    31  C    0.146630
    32  C   -0.285306
    33  C   -0.382565
    34  C   -0.124481
    35  C    0.154925
    36  C   -0.387123
    37  C   -0.101052
    38  C   -0.080637
    39  C   -0.083169
    40  C   -0.059053
    41  C   -0.122091
    42  C   -0.137966
    43  C    0.115304
    44  C   -0.370091
    45  H    0.102941
    46  H    0.118279
    47  H    0.084830
    48  H    0.110552
    49  H    0.111373
    50  H    0.111139
    51  H    0.114986
    52  H    0.122772
    53  H    0.109630
    54  H    0.111761
    55  H    0.089462
    56  H    0.070847
    57  H    0.092541
    58  H    0.104089
    59  H    0.107559
    60  H    0.292951
    61  H    0.073913
    62  H    0.120101
    63  H    0.096251
    64  H    0.101702
    65  H    0.072493
    66  H    0.095806
    67  H    0.073992
    68  H    0.101658
    69  H    0.080265
    70  H    0.098517
    71  H    0.114732
    72  H    0.107635
    73  H    0.095326
    74  H    0.116505
    75  H    0.139638
    76  H    0.098151
    77  H    0.069565
    78  H    0.105658
    79  H    0.085206
    80  H    0.131523
    81  H    0.091053
    82  H    0.302730
    83  H    0.305268
    84  H    0.109636
    85  H    0.124019
    86  H    0.095816
    87  H    0.111234
    88  H    0.080685
    89  H    0.108177
    90  H    0.113989
    91  H    0.107534
    92  H    0.083830
    93  H    0.093867
    94  H    0.075052
    95  H    0.087687
    96  H    0.067448
    97  H    0.078064
    98  H    0.086020
    99  H    0.110067
   100  H    0.142120
 Sum of Mulliken charges =  -0.00000

 Dipole moment (field-independent basis, Debye):
    X=              2.7640    Y=              0.1244    Z=              1.9765  Tot=              3.4003
 Quadrupole moment (field-independent basis, Debye-Ang):
   XX=           -283.1836   YY=           -261.2972   ZZ=           -282.0190
   XY=              0.0562   XZ=             37.0621   YZ=             -0.5523

 Normal termination of Gaussian 16 at Wed Jul 31 07:04:41 2019.
